Ar    ONCVPSP-4.0.1  r_core=   1.55886   1.55886   1.55886
     18.0000      8.0000      231019    zatom,zion,pspd
     8       2   2     4   400     0    pspcod,pspxc,lmax,lloc,mmax,r2well
  3.99000000  7.00000000  0.00000000    rchrg fchrg qchrg
     2     2     2     0     0    nproj
     1     1           extension_switch
   0                         8.4935637625203E+00  4.3162355428333E-01
     1  0.0000000000000E+00  8.5392637405590E-11 -5.1947163237642E-10
     2  1.0000000000000E-02  6.2666012833535E-02 -3.3746735067978E-02
     3  2.0000000000000E-02  1.2522470842283E-01 -6.7382781013280E-02
     4  3.0000000000000E-02  1.8756895550985E-01 -1.0079745456073E-01
     5  4.0000000000000E-02  2.4959199547043E-01 -1.3388009038515E-01
     6  5.0000000000000E-02  3.1118763026267E-01 -1.6652006558766E-01
     7  6.0000000000000E-02  3.7225041227064E-01 -1.9860684239472E-01
     8  7.0000000000000E-02  4.3267583657258E-01 -2.3003003453034E-01
     9  8.0000000000000E-02  4.9236053607748E-01 -2.6067950219246E-01
    10  9.0000000000000E-02  5.5120247987008E-01 -2.9044547993368E-01
    11  1.0000000000000E-01  6.0910117498465E-01 -3.1921874101610E-01
    12  1.1000000000000E-01  6.6595787169417E-01 -3.4689080099442E-01
    13  1.2000000000000E-01  7.2167577225630E-01 -3.7335416239508E-01
    14  1.3000000000000E-01  7.7616024290439E-01 -3.9850260142024E-01
    15  1.4000000000000E-01  8.2931902871237E-01 -4.2223149662975E-01
    16  1.5000000000000E-01  8.8106247080147E-01 -4.4443819856286E-01
    17  1.6000000000000E-01  9.3130372519610E-01 -4.6502243827143E-01
    18  1.7000000000000E-01  9.7995898247994E-01 -4.8388677176715E-01
    19  1.8000000000000E-01  1.0269476872544E+00 -5.0093705645698E-01
    20  1.9000000000000E-01  1.0721927562628E+00 -5.1608295476955E-01
    21  2.0000000000000E-01  1.1156207939182E+00 -5.2923845937927E-01
    22  2.1000000000000E-01  1.1571623038629E+00 -5.4032243373011E-01
    23  2.2000000000000E-01  1.1967518950975E+00 -5.4925916096113E-01
    24  2.3000000000000E-01  1.2343284811456E+00 -5.5597889385308E-01
    25  2.4000000000000E-01  1.2698354706714E+00 -5.6041839806153E-01
    26  2.5000000000000E-01  1.3032209479441E+00 -5.6252148068306E-01
    27  2.6000000000000E-01  1.3344378415415E+00 -5.6223949612430E-01
    28  2.7000000000000E-01  1.3634440797094E+00 -5.5953182131051E-01
    29  2.8000000000000E-01  1.3902027308454E+00 -5.5436629248357E-01
    30  2.9000000000000E-01  1.4146821276473E+00 -5.4671959619325E-01
    31  3.0000000000000E-01  1.4368559735693E+00 -5.3657760757922E-01
    32  3.1000000000000E-01  1.4567034303471E+00 -5.2393566966381E-01
    33  3.2000000000000E-01  1.4742091854980E+00 -5.0879880811908E-01
    34  3.3000000000000E-01  1.4893634988639E+00 -4.9118187682356E-01
    35  3.4000000000000E-01  1.5021622274446E+00 -4.7110963047033E-01
    36  3.5000000000000E-01  1.5126068279600E+00 -4.4861672151114E-01
    37  3.6000000000000E-01  1.5207043367872E+00 -4.2374761980693E-01
    38  3.7000000000000E-01  1.5264673271281E+00 -3.9655645448035E-01
    39  3.8000000000000E-01  1.5299138434822E+00 -3.6710677861481E-01
    40  3.9000000000000E-01  1.5310673137169E+00 -3.3547125859389E-01
    41  4.0000000000000E-01  1.5299564392440E+00 -3.0173129100684E-01
    42  4.1000000000000E-01  1.5266150640218E+00 -2.6597655113799E-01
    43  4.2000000000000E-01  1.5210820233055E+00 -2.2830447809078E-01
    44  4.3000000000000E-01  1.5134009732547E+00 -1.8881970255463E-01
    45  4.4000000000000E-01  1.5036202026860E+00 -1.4763342408211E-01
    46  4.5000000000000E-01  1.4917924284100E+00 -1.0486274549488E-01
    47  4.6000000000000E-01  1.4779745757338E+00 -6.0629972660741E-02
    48  4.7000000000000E-01  1.4622275458167E+00 -1.5061888371980E-02
    49  4.8000000000000E-01  1.4446159716633E+00  3.1710990605077E-02
    50  4.9000000000000E-01  1.4252079645951E+00  7.9555164051793E-02
    51  5.0000000000000E-01  1.4040748530830E+00  1.2833489710462E-01
    52  5.1000000000000E-01  1.3812909158330E+00  1.7791295819407E-01
    53  5.2000000000000E-01  1.3569331109965E+00  2.2815133724958E-01
    54  5.3000000000000E-01  1.3310808033398E+00  2.7891193574822E-01
    55  5.4000000000000E-01  1.3038154911345E+00  3.3005722077548E-01
    56  5.5000000000000E-01  1.2752205344398E+00  3.8145083599295E-01
    57  5.6000000000000E-01  1.2453808863332E+00  4.3295816326007E-01
    58  5.7000000000000E-01  1.2143828285143E+00  4.8444682961824E-01
    59  5.8000000000000E-01  1.1823137125509E+00  5.3578715540068E-01
    60  5.9000000000000E-01  1.1492617078767E+00  5.8685254036049E-01
    61  6.0000000000000E-01  1.1153155574701E+00  6.3751978589255E-01
    62  6.1000000000000E-01  1.0805643419609E+00  6.8766935264117E-01
    63  6.2000000000000E-01  1.0450972527250E+00  7.3718555401120E-01
    64  6.3000000000000E-01  1.0090033743365E+00  7.8595668731626E-01
    65  6.4000000000000E-01  9.7237147656396E-01  8.3387510547652E-01
    66  6.5000000000000E-01  9.3528981591696E-01  8.8083723330230E-01
    67  6.6000000000000E-01  8.9784594658179E-01  9.2674353344475E-01
    68  6.7000000000000E-01  8.6012654042912E-01  9.7149842804227E-01
    69  6.8000000000000E-01  8.2221721563809E-01  1.0150101829207E+00
    70  6.9000000000000E-01  7.8420237336093E-01  1.0571907619022E+00
    71  7.0000000000000E-01  7.4616504175358E-01  1.0979556593273E+00
    72  7.1000000000000E-01  7.0818672662235E-01  1.1372237192833E+00
    73  7.2000000000000E-01  6.7034726788561E-01  1.1749169502521E+00
    74  7.3000000000000E-01  6.3272470102458E-01  1.2109603439382E+00
    75  7.4000000000000E-01  5.9539512269782E-01  1.2452817069051E+00
    76  7.5000000000000E-01  5.5843255972174E-01  1.2778115133384E+00
    77  7.6000000000000E-01  5.2190884067135E-01  1.3084827867728E+00
    78  7.7000000000000E-01  4.8589346943366E-01  1.3372310179699E+00
    79  7.8000000000000E-01  4.5045350014557E-01  1.3639941253265E+00
    80  7.9000000000000E-01  4.1565341307002E-01  1.3887124632427E+00
    81  8.0000000000000E-01  3.8155499110366E-01  1.4113288828013E+00
    82  8.1000000000000E-01  3.4821719676475E-01  1.4317888479174E+00
    83  8.2000000000000E-01  3.1569604967803E-01  1.4500406088444E+00
    84  8.3000000000000E-01  2.8404450474988E-01  1.4660354335712E+00
    85  8.4000000000000E-01  2.5331233140915E-01  1.4797278962630E+00
    86  8.5000000000000E-01  2.2354599447180E-01  1.4910762204911E+00
    87  8.6000000000000E-01  1.9478853736792E-01  1.5000426735993E+00
    88  8.7000000000000E-01  1.6707946864263E-01  1.5065940071980E+00
    89  8.8000000000000E-01  1.4045465280487E-01  1.5107019374715E+00
    90  8.9000000000000E-01  1.1494620674507E-01  1.5123436577755E+00
    91  9.0000000000000E-01  9.0582403071639E-02  1.5115023748974E+00
    92  9.1000000000000E-01  6.7387581822902E-02  1.5081678593828E+00
    93  9.2000000000000E-01  4.5382072092584E-02  1.5023369995182E+00
    94  9.3000000000000E-01  2.4582125160745E-02  1.4940143479193E+00
    95  9.4000000000000E-01  4.9998607456840E-03  1.4832126492205E+00
    96  9.5000000000000E-01 -1.3356772015559E-02  1.4699533371071E+00
    97  9.6000000000000E-01 -3.0484017291946E-02  1.4542669888961E+00
    98  9.7000000000000E-01 -4.6382317496406E-02  1.4361937260368E+00
    99  9.8000000000000E-01 -6.1056299053698E-02  1.4157835493023E+00
   100  9.9000000000000E-01 -7.4514737755435E-02  1.3930965980455E+00
   101  1.0000000000000E+00 -8.6770502632735E-02  1.3682033237122E+00
   102  1.0100000000000E+00 -9.7840477479204E-02  1.3411845688229E+00
   103  1.0200000000000E+00 -1.0774545938703E-01  1.3121315438407E+00
   104  1.0300000000000E+00 -1.1651003391303E-01  1.2811456957175E+00
   105  1.0400000000000E+00 -1.2416242676688E-01  1.2483384634417E+00
   106  1.0500000000000E+00 -1.3073433220494E-01  1.2138309175615E+00
   107  1.0600000000000E+00 -1.3626071861795E-01  1.1777532824181E+00
   108  1.0700000000000E+00 -1.4077961211232E-01  1.1402443416545E+00
   109  1.0800000000000E+00 -1.4433185919901E-01  1.1014507294394E+00
   110  1.0900000000000E+00 -1.4696087001638E-01  1.0615261117393E+00
   111  1.1000000000000E+00 -1.4871234381661E-01  1.0206302638377E+00
   112  1.1100000000000E+00 -1.4963397873662E-01  9.7892805212816E-01
   113  1.1200000000000E+00 -1.4977516814615E-01  9.3658832993878E-01
   114  1.1300000000000E+00 -1.4918668611481E-01  8.9378275877739E-01
   115  1.1400000000000E+00 -1.4792036476008E-01  8.5068456786323E-01
   116  1.1500000000000E+00 -1.4602876642589E-01  8.0746726612451E-01
   117  1.1600000000000E+00 -1.4356485379240E-01  7.6430332195284E-01
   118  1.1700000000000E+00 -1.4058166112769E-01  7.2136282690033E-01
   119  1.1800000000000E+00 -1.3713196995977E-01  6.7881216015932E-01
   120  1.1900000000000E+00 -1.3326799246801E-01  6.3681267106356E-01
   121  1.2000000000000E+00 -1.2904106586836E-01  5.9551939698314E-01
   122  1.2100000000000E+00 -1.2450136099140E-01  5.5507983384002E-01
   123  1.2200000000000E+00 -1.1969760813110E-01  5.1563277605179E-01
   124  1.2300000000000E+00 -1.1467684307102E-01  4.7730724201037E-01
   125  1.2400000000000E+00 -1.0948417597807E-01  4.4022150022909E-01
   126  1.2500000000000E+00 -1.0416258559363E-01  4.0448221006317E-01
   127  1.2600000000000E+00 -9.8752740848117E-02  3.7018368941966E-01
   128  1.2700000000000E+00 -9.3292851685171E-02  3.3740732016643E-01
   129  1.2800000000000E+00 -8.7818550508134E-02  3.0622110003430E-01
   130  1.2900000000000E+00 -8.2362805256952E-02  2.7667934770226E-01
   131  1.3000000000000E+00 -7.6955864697923E-02  2.4882256551042E-01
   132  1.3100000000000E+00 -7.1625236065298E-02  2.2267746188296E-01
   133  1.3200000000000E+00 -6.6395694736205E-02  1.9825713308241E-01
   134  1.3300000000000E+00 -6.1289325160637E-02  1.7556140142303E-01
   135  1.3400000000000E+00 -5.6325591809917E-02  1.5457730456730E-01
   136  1.3500000000000E+00 -5.1521438455026E-02  1.3527972804211E-01
   137  1.3600000000000E+00 -4.6891413651389E-02  1.1763217070297E-01
   138  1.3700000000000E+00 -4.2447819892479E-02  1.0158763056480E-01
   139  1.3800000000000E+00 -3.8200883509975E-02  8.7089596258165E-02
   140  1.3900000000000E+00 -3.4158942044935E-02  7.4073127371408E-02
   141  1.4000000000000E+00 -3.0328645503495E-02  6.2466005164485E-02
   142  1.4100000000000E+00 -2.6715167643099E-02  5.2189933597047E-02
   143  1.4200000000000E+00 -2.3322423217172E-02  4.3161769336184E-02
   144  1.4300000000000E+00 -2.0153286941238E-02  3.5294758420773E-02
   145  1.4400000000000E+00 -1.7209809833905E-02  2.8499756572325E-02
   146  1.4500000000000E+00 -1.4493428535816E-02  2.2686409780865E-02
   147  1.4600000000000E+00 -1.2005163572358E-02  1.7764272353827E-02
   148  1.4700000000000E+00 -9.7458026849729E-03  1.3643847338587E-02
   149  1.4800000000000E+00 -7.7160546051754E-03  1.0237438189139E-02
   150  1.4900000000000E+00 -5.9181279320513E-03  7.4638095981906E-03
   151  1.5000000000000E+00 -4.3546659401413E-03  5.2470649842933E-03
   152  1.5100000000000E+00 -3.0259516937682E-03  3.5084422979043E-03
   153  1.5200000000000E+00 -1.9329262130134E-03  2.1752226691630E-03
   154  1.5300000000000E+00 -1.0781404674598E-03  1.1889403361218E-03
   155  1.5400000000000E+00 -4.6631456769879E-04  5.0908973095553E-04
   156  1.5500000000000E+00 -1.0488184198881E-04  1.1455840711668E-04
   157  1.5600000000000E+00  3.2735273844074E-06 -3.5465262832184E-06
   158  1.5700000000000E+00 -1.1504508358593E-06  1.2528195029497E-06
   159  1.58  0. -0.
   160  1.59  0. -0.
   161  1.60  0.  0.
   162  1.61  0.  0.
   163  1.62  0.  0.
   164  1.63  0.  0.
   165  1.64  0.  0.
   166  1.65  0.  0.
   167  1.66  0.  0.
   168  1.67  0.  0.
   169  1.68  0.  0.
   170  1.69  0.  0.
   171  1.70  0.  0.
   172  1.71  0.  0.
   173  1.72  0.  0.
   174  1.73  0.  0.
   175  1.74  0.  0.
   176  1.75  0.  0.
   177  1.76  0.  0.
   178  1.77  0.  0.
   179  1.78  0.  0.
   180  1.79  0.  0.
   181  1.80  0.  0.
   182  1.81  0.  0.
   183  1.82  0.  0.
   184  1.83  0.  0.
   185  1.84  0.  0.
   186  1.85  0.  0.
   187  1.86  0.  0.
   188  1.87  0.  0.
   189  1.88  0.  0.
   190  1.89  0.  0.
   191  1.90  0.  0.
   192  1.91  0.  0.
   193  1.92  0.  0.
   194  1.93  0.  0.
   195  1.94  0.  0.
   196  1.95  0.  0.
   197  1.96  0.  0.
   198  1.97  0.  0.
   199  1.98  0.  0.
   200  1.99  0.  0.
   201  2.00  0.  0.
   202  2.01  0.  0.
   203  2.02  0.  0.
   204  2.03  0.  0.
   205  2.04  0.  0.
   206  2.05  0.  0.
   207  2.06  0.  0.
   208  2.07  0.  0.
   209  2.08  0.  0.
   210  2.09  0.  0.
   211  2.10  0.  0.
   212  2.11  0.  0.
   213  2.12  0.  0.
   214  2.13  0.  0.
   215  2.14  0.  0.
   216  2.15  0.  0.
   217  2.16  0.  0.
   218  2.17  0.  0.
   219  2.18  0.  0.
   220  2.19  0.  0.
   221  2.20  0.  0.
   222  2.21  0.  0.
   223  2.22  0.  0.
   224  2.23  0.  0.
   225  2.24  0.  0.
   226  2.25  0.  0.
   227  2.26  0.  0.
   228  2.27  0.  0.
   229  2.28  0.  0.
   230  2.29  0.  0.
   231  2.30  0.  0.
   232  2.31  0.  0.
   233  2.32  0.  0.
   234  2.33  0.  0.
   235  2.34  0.  0.
   236  2.35  0.  0.
   237  2.36  0.  0.
   238  2.37  0.  0.
   239  2.38  0.  0.
   240  2.39  0.  0.
   241  2.40  0.  0.
   242  2.41  0.  0.
   243  2.42  0.  0.
   244  2.43  0.  0.
   245  2.44  0.  0.
   246  2.45  0.  0.
   247  2.46  0.  0.
   248  2.47  0.  0.
   249  2.48  0.  0.
   250  2.49  0.  0.
   251  2.50  0.  0.
   252  2.51  0.  0.
   253  2.52  0.  0.
   254  2.53  0.  0.
   255  2.54  0.  0.
   256  2.55  0.  0.
   257  2.56  0.  0.
   258  2.57  0.  0.
   259  2.58  0.  0.
   260  2.59  0.  0.
   261  2.60  0.  0.
   262  2.61  0.  0.
   263  2.62  0.  0.
   264  2.63  0.  0.
   265  2.64  0.  0.
   266  2.65  0.  0.
   267  2.66  0.  0.
   268  2.67  0.  0.
   269  2.68  0.  0.
   270  2.69  0.  0.
   271  2.70  0.  0.
   272  2.71  0.  0.
   273  2.72  0.  0.
   274  2.73  0.  0.
   275  2.74  0.  0.
   276  2.75  0.  0.
   277  2.76  0.  0.
   278  2.77  0.  0.
   279  2.78  0.  0.
   280  2.79  0.  0.
   281  2.80  0.  0.
   282  2.81  0.  0.
   283  2.82  0.  0.
   284  2.83  0.  0.
   285  2.84  0.  0.
   286  2.85  0.  0.
   287  2.86  0.  0.
   288  2.87  0.  0.
   289  2.88  0.  0.
   290  2.89  0.  0.
   291  2.90  0.  0.
   292  2.91  0.  0.
   293  2.92  0.  0.
   294  2.93  0.  0.
   295  2.94  0.  0.
   296  2.95  0.  0.
   297  2.96  0.  0.
   298  2.97  0.  0.
   299  2.98  0.  0.
   300  2.99  0.  0.
   301  3.00  0.  0.
   302  3.01  0.  0.
   303  3.02  0.  0.
   304  3.03  0.  0.
   305  3.04  0.  0.
   306  3.05  0.  0.
   307  3.06  0.  0.
   308  3.07  0.  0.
   309  3.08  0.  0.
   310  3.09  0.  0.
   311  3.10  0.  0.
   312  3.11  0.  0.
   313  3.12  0.  0.
   314  3.13  0.  0.
   315  3.14  0.  0.
   316  3.15  0.  0.
   317  3.16  0.  0.
   318  3.17  0.  0.
   319  3.18  0.  0.
   320  3.19  0.  0.
   321  3.20  0.  0.
   322  3.21  0.  0.
   323  3.22  0.  0.
   324  3.23  0.  0.
   325  3.24  0.  0.
   326  3.25  0.  0.
   327  3.26  0.  0.
   328  3.27  0.  0.
   329  3.28  0.  0.
   330  3.29  0.  0.
   331  3.30  0.  0.
   332  3.31  0.  0.
   333  3.32  0.  0.
   334  3.33  0.  0.
   335  3.34  0.  0.
   336  3.35  0.  0.
   337  3.36  0.  0.
   338  3.37  0.  0.
   339  3.38  0.  0.
   340  3.39  0.  0.
   341  3.40  0.  0.
   342  3.41  0.  0.
   343  3.42  0.  0.
   344  3.43  0.  0.
   345  3.44  0.  0.
   346  3.45  0.  0.
   347  3.46  0.  0.
   348  3.47  0.  0.
   349  3.48  0.  0.
   350  3.49  0.  0.
   351  3.50  0.  0.
   352  3.51  0.  0.
   353  3.52  0.  0.
   354  3.53  0.  0.
   355  3.54  0.  0.
   356  3.55  0.  0.
   357  3.56  0.  0.
   358  3.57  0.  0.
   359  3.58  0.  0.
   360  3.59  0.  0.
   361  3.60  0.  0.
   362  3.61  0.  0.
   363  3.62  0.  0.
   364  3.63  0.  0.
   365  3.64  0.  0.
   366  3.65  0.  0.
   367  3.66  0.  0.
   368  3.67  0.  0.
   369  3.68  0.  0.
   370  3.69  0.  0.
   371  3.70  0.  0.
   372  3.71  0.  0.
   373  3.72  0.  0.
   374  3.73  0.  0.
   375  3.74  0.  0.
   376  3.75  0.  0.
   377  3.76  0.  0.
   378  3.77  0.  0.
   379  3.78  0.  0.
   380  3.79  0.  0.
   381  3.80  0.  0.
   382  3.81  0.  0.
   383  3.82  0.  0.
   384  3.83  0.  0.
   385  3.84  0.  0.
   386  3.85  0.  0.
   387  3.86  0.  0.
   388  3.87  0.  0.
   389  3.88  0.  0.
   390  3.89  0.  0.
   391  3.90  0.  0.
   392  3.91  0.  0.
   393  3.92  0.  0.
   394  3.93  0.  0.
   395  3.94  0.  0.
   396  3.95  0.  0.
   397  3.96  0.  0.
   398  3.97  0.  0.
   399  3.98  0.  0.
   400  3.99  0.  0.
   1                         2.3419516551027E+00  2.2947357260985E-01
     1  0.0000000000000E+00  3.7612261916120E-10 -1.5052391347248E-09
     2  1.0000000000000E-02  1.3951487456334E-03 -8.4960048064774E-04
     3  2.0000000000000E-02  5.5752650781330E-03 -3.3913890089548E-03
     4  3.0000000000000E-02  1.2524385355122E-02 -7.6043932865727E-03
     5  4.0000000000000E-02  2.2215990200791E-02 -1.3453880108073E-02
     6  5.0000000000000E-02  3.4613133822192E-02 -2.0891683333296E-02
     7  6.0000000000000E-02  4.9668623609520E-02 -2.9856657163405E-02
     8  7.0000000000000E-02  6.7325248599030E-02 -4.0275248938736E-02
     9  8.0000000000000E-02  8.7516055001085E-02 -5.2062184171271E-02
    10  9.0000000000000E-02  1.1016466664182E-01 -6.5121255126352E-02
    11  1.0000000000000E-01  1.3518564783841E-01 -7.9346202995691E-02
    12  1.1000000000000E-01  1.6248490593016E-01 -9.4621682579297E-02
    13  1.2000000000000E-01  1.9196013042208E-01 -1.1082429742852E-01
    14  1.3000000000000E-01  2.2350126546956E-01 -1.2782369261541E-01
    15  1.4000000000000E-01  2.5699101224165E-01 -1.4548369169074E-01
    16  1.5000000000000E-01  2.9230535755133E-01 -1.6366346398776E-01
    17  1.6000000000000E-01  3.2931412503225E-01 -1.8221870822183E-01
    18  1.7000000000000E-01  3.6788154507546E-01 -2.0100283833312E-01
    19  1.8000000000000E-01  4.0786683971570E-01 -2.1986815771816E-01
    20  1.9000000000000E-01  4.4912481867436E-01 -2.3866700839240E-01
    21  2.0000000000000E-01  4.9150648282423E-01 -2.5725288221423E-01
    22  2.1000000000000E-01  5.3485963143807E-01 -2.7548148207004E-01
    23  2.2000000000000E-01  5.7902946971584E-01 -2.9321172185838E-01
    24  2.3000000000000E-01  6.2385921325254E-01 -3.1030665520401E-01
    25  2.4000000000000E-01  6.6919068630512E-01 -3.2663432406090E-01
    26  2.5000000000000E-01  7.1486491094130E-01 -3.4206851971048E-01
    27  2.6000000000000E-01  7.6072268439909E-01 -3.5648945010254E-01
    28  2.7000000000000E-01  8.0660514225096E-01 -3.6978430900230E-01
    29  2.8000000000000E-01  8.5235430524558E-01 -3.8184774397198E-01
    30  2.9000000000000E-01  8.9781360798814E-01 -3.9258222180566E-01
    31  3.0000000000000E-01  9.4282840791311E-01 -4.0189829162616E-01
    32  3.1000000000000E-01  9.8724647329651E-01 -4.0971474741953E-01
    33  3.2000000000000E-01  1.0309184493428E+00 -4.1595869329931E-01
    34  3.3000000000000E-01  1.0736983016611E+00 -4.2056551623780E-01
    35  3.4000000000000E-01  1.1154437367107E+00 -4.2347877235172E-01
    36  3.5000000000000E-01  1.1560165990459E+00 -4.2464999406329E-01
    37  3.6000000000000E-01  1.1952832454186E+00 -4.2403842655763E-01
    38  3.7000000000000E-01  1.2331148959979E+00 -4.2161070290398E-01
    39  3.8000000000000E-01  1.2693879631500E+00 -4.1734046799013E-01
    40  3.9000000000000E-01  1.3039843583645E+00 -4.1120796202046E-01
    41  4.0000000000000E-01  1.3367917780352E+00 -4.0319957474385E-01
    42  4.1000000000000E-01  1.3677039688898E+00 -3.9330738179767E-01
    43  4.2000000000000E-01  1.3966209739175E+00 -3.8152867457827E-01
    44  4.3000000000000E-01  1.4234493596667E+00 -3.6786549487419E-01
    45  4.4000000000000E-01  1.4481024257759E+00 -3.5232418513174E-01
    46  4.5000000000000E-01  1.4705003975635E+00 -3.3491496466619E-01
    47  4.6000000000000E-01  1.4905706024334E+00 -3.1565154139803E-01
    48  4.7000000000000E-01  1.5082476307616E+00 -2.9455076779280E-01
    49  4.8000000000000E-01  1.5234734818107E+00 -2.7163234862926E-01
    50  4.9000000000000E-01  1.5361976950833E+00 -2.4691860703342E-01
    51  5.0000000000000E-01  1.5463774673706E+00 -2.2043431391146E-01
    52  5.1000000000000E-01  1.5539777555858E+00 -1.9220658451734E-01
    53  5.2000000000000E-01  1.5589713652972E+00 -1.6226484442092E-01
    54  5.3000000000000E-01  1.5613390246947E+00 -1.3064086562613E-01
    55  5.4000000000000E-01  1.5610694435447E+00 -9.7368872049460E-02
    56  5.5000000000000E-01  1.5581593565102E+00 -6.2485712033209E-02
    57  5.6000000000000E-01  1.5526135500504E+00 -2.6031094061069E-02
    58  5.7000000000000E-01  1.5444448719549E+00  1.1952119610406E-02
    59  5.8000000000000E-01  1.5336742224360E+00  5.1417568064247E-02
    60  5.9000000000000E-01  1.5203305255839E+00  9.2315003513169E-02
    61  6.0000000000000E-01  1.5044506798997E+00  1.3458986884834E-01
    62  6.1000000000000E-01  1.4860794865583E+00  1.7818285103284E-01
    63  6.2000000000000E-01  1.4652695540204E+00  2.2302942126703E-01
    64  6.3000000000000E-01  1.4420811776113E+00  2.6905937351678E-01
    65  6.4000000000000E-01  1.4165821927208E+00  3.1619637346780E-01
    66  6.5000000000000E-01  1.3888478003446E+00  3.6435753024056E-01
    67  6.6000000000000E-01  1.3589603637960E+00  4.1345300326284E-01
    68  6.7000000000000E-01  1.3270091755544E+00  4.6338565654806E-01
    69  6.8000000000000E-01  1.2930901933944E+00  5.1405077226474E-01
    70  6.9000000000000E-01  1.2573057451483E+00  5.6533583491157E-01
    71  7.0000000000000E-01  1.2197642016933E+00  6.1712039663566E-01
    72  7.1000000000000E-01  1.1805796180265E+00  6.6927603326230E-01
    73  7.2000000000000E-01  1.1398713425827E+00  7.2166639945142E-01
    74  7.3000000000000E-01  1.0977635952694E+00  7.7414739007793E-01
    75  7.4000000000000E-01  1.0543850150269E+00  8.2656741346473E-01
    76  7.5000000000000E-01  1.0098681780685E+00  8.7876778050262E-01
    77  7.6000000000000E-01  9.6434908831393E-01  9.3058321199135E-01
    78  7.7000000000000E-01  9.1796664188870E-01  9.8184246475462E-01
    79  7.8000000000000E-01  8.7086206791805E-01  1.0323690752487E+00
    80  7.9000000000000E-01  8.2317834819694E-01  1.0819822175229E+00
    81  8.0000000000000E-01  7.7505961865315E-01  1.1304976705299E+00
    82  8.1000000000000E-01  7.2665055584013E-01  1.1777288879566E+00
    83  8.2000000000000E-01  6.7809575199141E-01  1.2234881619723E+00
    84  8.3000000000000E-01  6.2953908243474E-01  1.2675878706092E+00
    85  8.4000000000000E-01  5.8112306939684E-01  1.3098417969145E+00
    86  8.5000000000000E-01  5.3298824642475E-01  1.3500665065842E+00
    87  8.6000000000000E-01  4.8527252780221E-01  1.3880827695129E+00
    88  8.7000000000000E-01  4.3811058744732E-01  1.4237170096093E+00
    89  8.8000000000000E-01  3.9163325183624E-01  1.4568027663421E+00
    90  8.9000000000000E-01  3.4596691150675E-01  1.4871821508129E+00
    91  9.0000000000000E-01  3.0123295565147E-01  1.5147072787228E+00
    92  9.1000000000000E-01  2.5754723421363E-01  1.5392416624077E+00
    93  9.2000000000000E-01  2.1501955174872E-01  1.5606615441757E+00
    94  9.3000000000000E-01  1.7375319711250E-01  1.5788571534909E+00
    95  9.4000000000000E-01  1.3384451278177E-01  1.5937338711109E+00
    96  9.5000000000000E-01  9.5382507311545E-02  1.6052132840947E+00
    97  9.6000000000000E-01  5.8448514082422E-02  1.6132341166454E+00
    98  9.7000000000000E-01  2.3115899099259E-02  1.6177530230299E+00
    99  9.8000000000000E-01 -1.0550179828889E-02  1.6187452303058E+00
   100  9.9000000000000E-01 -4.2492960663191E-02  1.6162050202692E+00
   101  1.0000000000000E+00 -7.2664210094035E-02  1.6101460418935E+00
   102  1.0100000000000E+00 -1.0102430103190E-01  1.6006014475347E+00
   103  1.0200000000000E+00 -1.2754223431204E-01  1.5876238483074E+00
   104  1.0300000000000E+00 -1.5219560483922E-01  1.5712850862559E+00
   105  1.0400000000000E+00 -1.7497051294776E-01  1.5516758232355E+00
   106  1.0500000000000E+00 -1.9586142229674E-01  1.5289049487309E+00
   107  1.0600000000000E+00 -2.1487096615548E-01  1.5030988111653E+00
   108  1.0700000000000E+00 -2.3200970445283E-01  1.4744002795363E+00
   109  1.0800000000000E+00 -2.4729583445697E-01  1.4429676444355E+00
   110  1.0900000000000E+00 -2.6075485841757E-01  1.4089733696420E+00
   111  1.1000000000000E+00 -2.7241921192794E-01  1.3726027074667E+00
   112  1.1100000000000E+00 -2.8232785715086E-01  1.3340521928770E+00
   113  1.1200000000000E+00 -2.9052584538780E-01  1.2935280330803E+00
   114  1.1300000000000E+00 -2.9706385375642E-01  1.2512444106957E+00
   115  1.1400000000000E+00 -3.0199770096865E-01  1.2074217198581E+00
   116  1.1500000000000E+00 -3.0538784736963E-01  1.1622847555614E+00
   117  1.1600000000000E+00 -3.0729888450261E-01  1.1160608772448E+00
   118  1.1700000000000E+00 -3.0779901950526E-01  1.0689781680408E+00
   119  1.1800000000000E+00 -3.0695955961756E-01  1.0212636112304E+00
   120  1.1900000000000E+00 -3.0485440198953E-01  9.7314130528332E-01
   121  1.2000000000000E+00 -3.0155953382146E-01  9.2483073840009E-01
   122  1.2100000000000E+00 -2.9715254764723E-01  8.7654514271503E-01
   123  1.2200000000000E+00 -2.9171217629137E-01  8.2848994728732E-01
   124  1.2300000000000E+00 -2.8531785168863E-01  7.8086134769097E-01
   125  1.2400000000000E+00 -2.7804929136092E-01  7.3384500844616E-01
   126  1.2500000000000E+00 -2.6998611590341E-01  6.8761491273267E-01
   127  1.2600000000000E+00 -2.6120750034116E-01  6.4233237179234E-01
   128  1.2700000000000E+00 -2.5179186169242E-01  5.9814520421780E-01
   129  1.2800000000000E+00 -2.4181658451675E-01  5.5518709294849E-01
   130  1.2900000000000E+00 -2.3135778564127E-01  5.1357712527569E-01
   131  1.3000000000000E+00 -2.2049011865895E-01  4.7341951855367E-01
   132  1.3100000000000E+00 -2.0928661818338E-01  4.3480353164231E-01
   133  1.3200000000000E+00 -1.9781858323012E-01  3.9780355939189E-01
   134  1.3300000000000E+00 -1.8615549848953E-01  3.6247940478722E-01
   135  1.3400000000000E+00 -1.7436499166436E-01  3.2887672071798E-01
   136  1.3500000000000E+00 -1.6251282447259E-01  2.9702761075660E-01
   137  1.3600000000000E+00 -1.5066291437487E-01  2.6695137586814E-01
   138  1.3700000000000E+00 -1.3887738357954E-01  2.3865539165942E-01
   139  1.3800000000000E+00 -1.2721663141645E-01  2.1213609864736E-01
   140  1.3900000000000E+00 -1.1573942575499E-01  1.8738008609372E-01
   141  1.4000000000000E+00 -1.0450300878376E-01  1.6436524827345E-01
   142  1.4100000000000E+00 -9.3563212169259E-02  1.4306199061689E-01
   143  1.4200000000000E+00 -8.2974576375602E-02  1.2343446202543E-01
   144  1.4300000000000E+00 -7.2790468758351E-02  1.0544178881745E-01
   145  1.4400000000000E+00 -6.3063194946834E-02  8.9039285231029E-02
   146  1.4500000000000E+00 -5.3844098002344E-02  7.4179615205500E-02
   147  1.4600000000000E+00 -4.5183640176834E-02  6.0813881084758E-02
   148  1.4700000000000E+00 -3.7131465887366E-02  4.8892626601672E-02
   149  1.4800000000000E+00 -2.9736397184478E-02  3.8366598940124E-02
   150  1.4900000000000E+00 -2.3048332679925E-02  2.9192925078592E-02
   151  1.5000000000000E+00 -1.7117336653031E-02  2.1333367722310E-02
   152  1.5100000000000E+00 -1.1989321024295E-02  1.4742414173781E-02
   153  1.5200000000000E+00 -7.7091588185502E-03  9.3791401751809E-03
   154  1.5300000000000E+00 -4.3224957487017E-03  5.2181624329931E-03
   155  1.5400000000000E+00 -1.8768065183697E-03  2.2546380167507E-03
   156  1.5500000000000E+00 -4.2319786929715E-04  5.0736016860370E-04
   157  1.5600000000000E+00  1.3244368437302E-05 -1.5831689313449E-05
   158  1.5700000000000E+00 -4.6500487144087E-06  5.5650476890445E-06
   159  1.58  0. -0.
   160  1.59  0. -0.
   161  1.60  0.  0.
   162  1.61  0.  0.
   163  1.62  0.  0.
   164  1.63  0.  0.
   165  1.64  0.  0.
   166  1.65  0.  0.
   167  1.66  0.  0.
   168  1.67  0.  0.
   169  1.68  0.  0.
   170  1.69  0.  0.
   171  1.70  0.  0.
   172  1.71  0.  0.
   173  1.72  0.  0.
   174  1.73  0.  0.
   175  1.74  0.  0.
   176  1.75  0.  0.
   177  1.76  0.  0.
   178  1.77  0.  0.
   179  1.78  0.  0.
   180  1.79  0.  0.
   181  1.80  0.  0.
   182  1.81  0.  0.
   183  1.82  0.  0.
   184  1.83  0.  0.
   185  1.84  0.  0.
   186  1.85  0.  0.
   187  1.86  0.  0.
   188  1.87  0.  0.
   189  1.88  0.  0.
   190  1.89  0.  0.
   191  1.90  0.  0.
   192  1.91  0.  0.
   193  1.92  0.  0.
   194  1.93  0.  0.
   195  1.94  0.  0.
   196  1.95  0.  0.
   197  1.96  0.  0.
   198  1.97  0.  0.
   199  1.98  0.  0.
   200  1.99  0.  0.
   201  2.00  0.  0.
   202  2.01  0.  0.
   203  2.02  0.  0.
   204  2.03  0.  0.
   205  2.04  0.  0.
   206  2.05  0.  0.
   207  2.06  0.  0.
   208  2.07  0.  0.
   209  2.08  0.  0.
   210  2.09  0.  0.
   211  2.10  0.  0.
   212  2.11  0.  0.
   213  2.12  0.  0.
   214  2.13  0.  0.
   215  2.14  0.  0.
   216  2.15  0.  0.
   217  2.16  0.  0.
   218  2.17  0.  0.
   219  2.18  0.  0.
   220  2.19  0.  0.
   221  2.20  0.  0.
   222  2.21  0.  0.
   223  2.22  0.  0.
   224  2.23  0.  0.
   225  2.24  0.  0.
   226  2.25  0.  0.
   227  2.26  0.  0.
   228  2.27  0.  0.
   229  2.28  0.  0.
   230  2.29  0.  0.
   231  2.30  0.  0.
   232  2.31  0.  0.
   233  2.32  0.  0.
   234  2.33  0.  0.
   235  2.34  0.  0.
   236  2.35  0.  0.
   237  2.36  0.  0.
   238  2.37  0.  0.
   239  2.38  0.  0.
   240  2.39  0.  0.
   241  2.40  0.  0.
   242  2.41  0.  0.
   243  2.42  0.  0.
   244  2.43  0.  0.
   245  2.44  0.  0.
   246  2.45  0.  0.
   247  2.46  0.  0.
   248  2.47  0.  0.
   249  2.48  0.  0.
   250  2.49  0.  0.
   251  2.50  0.  0.
   252  2.51  0.  0.
   253  2.52  0.  0.
   254  2.53  0.  0.
   255  2.54  0.  0.
   256  2.55  0.  0.
   257  2.56  0.  0.
   258  2.57  0.  0.
   259  2.58  0.  0.
   260  2.59  0.  0.
   261  2.60  0.  0.
   262  2.61  0.  0.
   263  2.62  0.  0.
   264  2.63  0.  0.
   265  2.64  0.  0.
   266  2.65  0.  0.
   267  2.66  0.  0.
   268  2.67  0.  0.