Ar    ONCVPSP-4.0.1  r_core=   1.55886   1.55886   1.55886
     18.0000      8.0000      250217    zatom,zion,pspd
     8       2   2     4   400     0    pspcod,pspxc,lmax,lloc,mmax,r2well
  3.99000000  7.00000000  0.00000000    rchrg fchrg qchrg
     2     2     2     0    nproj
     3     1           extension_switch
     3     3     0    nprojso
   0                         8.4930558888054E+00  4.3147807165110E-01
     1  0.0000000000000E+00  8.5204565625219E-11 -5.1850673754572E-10
     2  1.0000000000000E-02  6.2658741685848E-02 -3.3740115572112E-02
     3  2.0000000000000E-02  1.2521018912063E-01 -6.7369559452976E-02
     4  3.0000000000000E-02  1.8754723409739E-01 -1.0077766643058E-01
     5  4.0000000000000E-02  2.4956314115593E-01 -1.3385379048964E-01
     6  5.0000000000000E-02  3.1115173558051E-01 -1.6648732986972E-01
     7  6.0000000000000E-02  3.7220759328427E-01 -1.9856777029710E-01
     8  7.0000000000000E-02  4.3262623310727E-01 -2.2998475182615E-01
     9  8.0000000000000E-02  4.9230431196945E-01 -2.6062816420753E-01
    10  9.0000000000000E-02  5.5113982321674E-01 -2.9038827507145E-01
    11  1.0000000000000E-01  6.0903229837880E-01 -3.1915589448544E-01
    12  1.1000000000000E-01  6.6588301242369E-01 -3.4682257863264E-01
    13  1.2000000000000E-01  7.2159519244999E-01 -3.7328087447230E-01
    14  1.3000000000000E-01  7.7607422960394E-01 -3.9842460630722E-01
    15  1.4000000000000E-01  8.2922789385036E-01 -4.2214920421019E-01
    16  1.5000000000000E-01  8.8096655106572E-01 -4.4435207327218E-01
    17  1.6000000000000E-01  9.3120338176130E-01 -4.6493300164703E-01
    18  1.7000000000000E-01  9.7985460058887E-01 -4.8379460440177E-01
    19  1.8000000000000E-01  1.0268396756325E+00 -5.0084279925417E-01
    20  1.9000000000000E-01  1.0720815463517E+00 -5.1598730941111E-01
    21  2.0000000000000E-01  1.1155068389172E+00 -5.2914218792658E-01
    22  2.1000000000000E-01  1.1570460775681E+00 -5.4022635729565E-01
    23  2.2000000000000E-01  1.1966338905337E+00 -5.4916415740186E-01
    24  2.3000000000000E-01  1.2342092089871E+00 -5.5588589445459E-01
    25  2.4000000000000E-01  1.2697154574523E+00 -5.6032838319964E-01
    26  2.5000000000000E-01  1.3031007340631E+00 -5.6243547446843E-01
    27  2.6000000000000E-01  1.3343179790664E+00 -5.6215856005392E-01
    28  2.7000000000000E-01  1.3633251299949E+00 -5.5945704696974E-01
    29  2.8000000000000E-01  1.3900852619764E+00 -5.5429879335995E-01
    30  2.9000000000000E-01  1.4145667117268E+00 -5.4666049868201E-01
    31  3.0000000000000E-01  1.4367431838714E+00 -5.3652804127659E-01
    32  3.1000000000000E-01  1.4565938383577E+00 -5.2389675705979E-01
    33  3.2000000000000E-01  1.4741033578714E+00 -5.0877165381521E-01
    34  3.3000000000000E-01  1.4892619943219E+00 -4.9116755641322E-01
    35  3.4000000000000E-01  1.5020655936487E+00 -4.7110917922791E-01
    36  3.5000000000000E-01  1.5125155983886E+00 -4.4863112304509E-01
    37  3.6000000000000E-01  1.5206190276497E+00 -4.2377779483513E-01
    38  3.7000000000000E-01  1.5263884343482E+00 -3.9660324988939E-01
    39  3.8000000000000E-01  1.5298418397837E+00 -3.6717095696335E-01
    40  3.9000000000000E-01  1.5310026458430E+00 -3.3555348821794E-01
    41  4.0000000000000E-01  1.5298995253408E+00 -3.0183213687772E-01
    42  4.1000000000000E-01  1.5265662912164E+00 -2.6609646661588E-01
    43  4.2000000000000E-01  1.5210417455029E+00 -2.2844379770534E-01
    44  4.3000000000000E-01  1.5133695091805E+00 -1.8897863593037E-01
    45  4.4000000000000E-01  1.5035978341942E+00 -1.4781205111117E-01
    46  4.5000000000000E-01  1.4917793990756E+00 -1.0506101284148E-01
    47  4.6000000000000E-01  1.4779710897427E+00 -6.0847691663388E-02
    48  4.7000000000000E-01  1.4622337671652E+00 -1.5298734388047E-02
    49  4.8000000000000E-01  1.4446320236724E+00  3.1455477388431E-02
    50  4.9000000000000E-01  1.4252339297423E+00  7.9281576338658E-02
    51  5.0000000000000E-01  1.4041107731502E+00  1.2804395676432E-01
    52  5.1000000000000E-01  1.3813367923632E+00  1.7760551113030E-01
    53  5.2000000000000E-01  1.3569889060499E+00  2.2782834692903E-01
    54  5.3000000000000E-01  1.3311464405353E+00  2.7857447547389E-01
    55  5.4000000000000E-01  1.3038908569581E+00  3.2970646480856E-01
    56  5.5000000000000E-01  1.2753054797984E+00  3.8108804964551E-01
    57  5.6000000000000E-01  1.2454752283308E+00  4.3258469209645E-01
    58  5.7000000000000E-01  1.2144863524214E+00  4.8406408791665E-01
    59  5.8000000000000E-01  1.1824261739401E+00  5.3539661403768E-01
    60  5.9000000000000E-01  1.1493828348915E+00  5.8645571428975E-01
    61  6.0000000000000E-01  1.1154450531957E+00  6.3711822139470E-01
    62  6.1000000000000E-01  1.0807018868641E+00  6.8726461452435E-01
    63  6.2000000000000E-01  1.0452425071292E+00  7.3677921294199E-01
    64  6.3000000000000E-01  1.0091559809000E+00  7.8555030745704E-01
    65  6.4000000000000E-01  9.7253106272936E-01  8.3347023259893E-01
    66  6.5000000000000E-01  9.3545599630169E-01  8.8043538353795E-01
    67  6.6000000000000E-01  8.9801832528098E-01  9.2634618282192E-01
    68  6.7000000000000E-01  8.6030471320539E-01  9.7110700294304E-01
    69  6.8000000000000E-01  8.2240077197513E-01  1.0146260515763E+00
    70  6.9000000000000E-01  7.8439089836109E-01  1.0568152270256E+00
    71  7.0000000000000E-01  7.4635811786330E-01  1.0975899519620E+00
    72  7.1000000000000E-01  7.0838393517310E-01  1.1368689939238E+00
    73  7.2000000000000E-01  6.7054819044185E-01  1.1745742812719E+00
    74  7.3000000000000E-01  6.3292892053450E-01  1.2106307233343E+00
    75  7.4000000000000E-01  5.9560222444673E-01  1.2449660433469E+00
    76  7.5000000000000E-01  5.5864213209192E-01  1.2775106324844E+00
    77  7.6000000000000E-01  5.2212047571643E-01  1.3081974327965E+00
    78  7.7000000000000E-01  4.8610676327906E-01  1.3369618562139E+00
    79  7.8000000000000E-01  4.5066805323042E-01  1.3637417459851E+00
    80  7.9000000000000E-01  4.1586883024889E-01  1.3884773859537E+00
    81  8.0000000000000E-01  3.8177088162939E-01  1.4111115620115E+00
    82  8.1000000000000E-01  3.4843317417602E-01  1.4315896788746E+00
    83  8.2000000000000E-01  3.1591173161733E-01  1.4498599340543E+00
    84  8.3000000000000E-01  2.8425951273865E-01  1.4658735495542E+00
    85  8.4000000000000E-01  2.5352629060789E-01  1.4795850604366E+00
    86  8.5000000000000E-01  2.2375853345315E-01  1.4909526580042E+00
    87  8.6000000000000E-01  1.9499928793025E-01  1.4999385839477E+00
    88  8.7000000000000E-01  1.6728806569102E-01  1.5065095704504E+00
    89  8.8000000000000E-01  1.4066073432443E-01  1.5106373199504E+00
    90  8.9000000000000E-01  1.1514941388999E-01  1.5122990170421E+00
    91  9.0000000000000E-01  9.0782380390475E-02  1.5114778639079E+00
    92  9.1000000000000E-01  6.7583977637654E-02  1.5081636296983E+00
    93  9.2000000000000E-01  4.5574539045719E-02  1.5023532034711E+00
    94  9.3000000000000E-01  2.4770320940425E-02  1.4940511396594E+00
    95  9.4000000000000E-01  5.1834489954467E-03  1.4832701845863E+00
    96  9.5000000000000E-01 -1.3178120600911E-02  1.4700317722959E+00
    97  9.6000000000000E-01 -3.0310623686758E-02  1.4543664779261E+00
    98  9.7000000000000E-01 -4.6214492888200E-02  1.4363144170260E+00
    99  9.8000000000000E-01 -6.0894343222346E-02  1.4159255796106E+00
   100  9.9000000000000E-01 -7.4358937303762E-02  1.3932600883539E+00
   101  1.0000000000000E+00 -8.6621129088708E-02  1.3683883711358E+00
   102  1.0100000000000E+00 -9.7697785294152E-02  1.3413912391801E+00
   103  1.0200000000000E+00 -1.0760968385767E-01  1.3123598632184E+00
   104  1.0300000000000E+00 -1.1638138905850E-01  1.2813956414947E+00
   105  1.0400000000000E+00 -1.2404110319442E-01  1.2486099549478E+00
   106  1.0500000000000E+00 -1.3062049500023E-01  1.2141238065602E+00
   107  1.0600000000000E+00 -1.3615450529762E-01  1.1780673436179E+00
   108  1.0700000000000E+00 -1.4068113067686E-01  1.1405792634532E+00
   109  1.0800000000000E+00 -1.4424118632490E-01  1.1018061051136E+00
   110  1.0900000000000E+00 -1.4687804942549E-01  1.0619014312889E+00
   111  1.1000000000000E+00 -1.4863738485999E-01  1.0210249066922E+00
   112  1.1100000000000E+00 -1.4956685522783E-01  9.7934128091134E-01
   113  1.1200000000000E+00 -1.4971581747699E-01  9.3701928547837E-01
   114  1.1300000000000E+00 -1.4913500868287E-01  8.9423045653028E-01
   115  1.1400000000000E+00 -1.4787622373406E-01  8.5114789590781E-01
   116  1.1500000000000E+00 -1.4599198787023E-01  8.0794498485026E-01
   117  1.1600000000000E+00 -1.4353522716788E-01  7.6479406555221E-01
   118  1.1700000000000E+00 -1.4055894017970E-01  7.2186510674167E-01
   119  1.1800000000000E+00 -1.3711587400011E-01  6.7932437008957E-01
   120  1.1900000000000E+00 -1.3325820805053E-01  6.3733309466007E-01
   121  1.2000000000000E+00 -1.2903724885262E-01  5.9604621674133E-01
   122  1.2100000000000E+00 -1.2450313898256E-01  5.5561114225219E-01
   123  1.2200000000000E+00 -1.1970458327830E-01  5.1616658850012E-01
   124  1.2300000000000E+00 -1.1468859520052E-01  4.7784151136534E-01
   125  1.2400000000000E+00 -1.0950026603192E-01  4.4075413301424E-01
   126  1.2500000000000E+00 -1.0418255933917E-01  4.0501108401839E-01
   127  1.2600000000000E+00 -9.8776132818844E-02  3.7070667226770E-01
   128  1.2700000000000E+00 -9.3319189309092E-02  3.3792228936373E-01
   129  1.2800000000000E+00 -8.7847358375812E-02  3.0672596326549E-01
   130  1.2900000000000E+00 -8.2393609478403E-02  2.7717206385969E-01
   131  1.3000000000000E+00 -7.6988197295060E-02  2.4930116588618E-01
   132  1.3100000000000E+00 -7.1658639344907E-02  2.2314007129019E-01
   133  1.3200000000000E+00 -6.6429725587614E-02  1.9870199061695E-01
   134  1.3300000000000E+00 -6.1323559222159E-02  1.7598688057465E-01
   135  1.3400000000000E+00 -5.6359627449010E-02  1.5498193239254E-01
   136  1.3500000000000E+00 -5.1554900508701E-02  1.3566220311790E-01
   137  1.3600000000000E+00 -4.6923956875944E-02  1.1799137959211E-01
   138  1.3700000000000E+00 -4.2479132074887E-02  1.0192266253992E-01
   139  1.3800000000000E+00 -3.8230688197303E-02  8.7399756050928E-02
   140  1.3900000000000E+00 -3.4187000852965E-02  7.4357945737551E-02
   141  1.4000000000000E+00 -3.0354759971095E-02  6.2725247082312E-02
   142  1.4100000000000E+00 -2.6739180604903E-02  5.2423603947596E-02
   143  1.4200000000000E+00 -2.3344219673550E-02  4.3370115945756E-02
   144  1.4300000000000E+00 -2.0172794411439E-02  3.5478272382055E-02
   145  1.4400000000000E+00 -1.7226998185414E-02  2.8659169796921E-02
   146  1.4500000000000E+00 -1.4508309290261E-02  2.2822689773633E-02
   147  1.4600000000000E+00 -1.2017788695443E-02  1.7878614236429E-02
   148  1.4700000000000E+00 -9.7562628764962E-03  1.3737663194853E-02
   149  1.4800000000000E+00 -7.7244771063454E-03  1.0312343799879E-02
   150  1.4900000000000E+00 -5.9246729338880E-03  7.5216047348672E-03
   151  1.5000000000000E+00 -4.3595236444057E-03  5.2897163125253E-03
   152  1.5100000000000E+00 -3.0293407046126E-03  3.5380711405323E-03
   153  1.5200000000000E+00 -1.9350893575330E-03  2.1940814423595E-03
   154  1.5300000000000E+00 -1.0793400590231E-03  1.1993873587618E-03
   155  1.5400000000000E+00 -4.6682732416931E-04  5.1356291946357E-04
   156  1.5500000000000E+00 -1.0499400594712E-04  1.1555160623727E-04
   157  1.5600000000000E+00  3.2788458259068E-06 -3.5770277874296E-06
   158  1.5700000000000E+00 -1.1518425258586E-06  1.2636211133928E-06
   159  1.58  0.  0.
   160  1.59  0.  0.
   161  1.60  0.  0.
   162  1.61  0.  0.
   163  1.62  0.  0.
   164  1.63  0.  0.
   165  1.64  0.  0.
   166  1.65  0.  0.
   167  1.66  0.  0.
   168  1.67  0.  0.
   169  1.68  0.  0.
   170  1.69  0.  0.
   171  1.70  0.  0.
   172  1.71  0.  0.
   173  1.72  0.  0.
   174  1.73  0.  0.
   175  1.74  0.  0.
   176  1.75  0.  0.
   177  1.76  0.  0.
   178  1.77  0.  0.
   179  1.78  0.  0.
   180  1.79  0.  0.
   181  1.80  0.  0.
   182  1.81  0.  0.
   183  1.82  0.  0.
   184  1.83  0.  0.
   185  1.84  0.  0.
   186  1.85  0.  0.
   187  1.86  0.  0.
   188  1.87  0.  0.
   189  1.88  0.  0.
   190  1.89  0.  0.
   191  1.90  0.  0.
   192  1.91  0.  0.
   193  1.92  0.  0.
   194  1.93  0.  0.
   195  1.94  0.  0.
   196  1.95  0.  0.
   197  1.96  0.  0.
   198  1.97  0.  0.
   199  1.98  0.  0.
   200  1.99  0.  0.
   201  2.00  0.  0.
   202  2.01  0.  0.
   203  2.02  0.  0.
   204  2.03  0.  0.
   205  2.04  0.  0.
   206  2.05  0.  0.
   207  2.06  0.  0.
   208  2.07  0.  0.
   209  2.08  0.  0.
   210  2.09  0.  0.
   211  2.10  0.  0.
   212  2.11  0.  0.
   213  2.12  0.  0.
   214  2.13  0.  0.
   215  2.14  0.  0.
   216  2.15  0.  0.
   217  2.16  0.  0.
   218  2.17  0.  0.
   219  2.18  0.  0.
   220  2.19  0.  0.
   221  2.20  0.  0.
   222  2.21  0.  0.
   223  2.22  0.  0.
   224  2.23  0.  0.
   225  2.24  0.  0.
   226  2.25  0.  0.
   227  2.26  0.  0.
   228  2.27  0.  0.
   229  2.28  0.  0.
   230  2.29  0.  0.
   231  2.30  0.  0.
   232  2.31  0.  0.
   233  2.32  0.  0.
   234  2.33  0.  0.
   235  2.34  0.  0.
   236  2.35  0.  0.
   237  2.36  0.  0.
   238  2.37  0.  0.
   239  2.38  0.  0.
   240  2.39  0.  0.
   241  2.40  0.  0.
   242  2.41  0.  0.
   243  2.42  0.  0.
   244  2.43  0.  0.
   245  2.44  0.  0.
   246  2.45  0.  0.
   247  2.46  0.  0.
   248  2.47  0.  0.
   249  2.48  0.  0.
   250  2.49  0.  0.
   251  2.50  0.  0.
   252  2.51  0.  0.
   253  2.52  0.  0.
   254  2.53  0.  0.
   255  2.54  0.  0.
   256  2.55  0.  0.
   257  2.56  0.  0.
   258  2.57  0.  0.
   259  2.58  0.  0.
   260  2.59  0.  0.
   261  2.60  0.  0.
   262  2.61  0.  0.
   263  2.62  0.  0.
   264  2.63  0.  0.
   265  2.64  0.  0.
   266  2.65  0.  0.
   267  2.66  0.  0.
   268  2.67  0.  0.
   269  2.68  0.  0.
   270  2.69  0.  0.
   271  2.70  0.  0.
   272  2.71  0.  0.
   273  2.72  0.  0.
   274  2.73  0.  0.
   275  2.74  0.  0.
   276  2.75  0.  0.
   277  2.76  0.  0.
   278  2.77  0.  0.
   279  2.78  0.  0.
   280  2.79  0.  0.
   281  2.80  0.  0.
   282  2.81  0.  0.
   283  2.82  0.  0.
   284  2.83  0.  0.
   285  2.84  0.  0.
   286  2.85  0.  0.
   287  2.86  0.  0.
   288  2.87  0.  0.
   289  2.88  0.  0.
   290  2.89  0.  0.
   291  2.90  0.  0.
   292  2.91  0.  0.
   293  2.92  0.  0.
   294  2.93  0.  0.
   295  2.94  0.  0.
   296  2.95  0.  0.
   297  2.96  0.  0.
   298  2.97  0.  0.
   299  2.98  0.  0.
   300  2.99  0.  0.
   301  3.00  0.  0.
   302  3.01  0.  0.
   303  3.02  0.  0.
   304  3.03  0.  0.
   305  3.04  0.  0.
   306  3.05  0.  0.
   307  3.06  0.  0.
   308  3.07  0.  0.
   309  3.08  0.  0.
   310  3.09  0.  0.
   311  3.10  0.  0.
   312  3.11  0.  0.
   313  3.12  0.  0.
   314  3.13  0.  0.
   315  3.14  0.  0.
   316  3.15  0.  0.
   317  3.16  0.  0.
   318  3.17  0.  0.
   319  3.18  0.  0.
   320  3.19  0.  0.
   321  3.20  0.  0.
   322  3.21  0.  0.
   323  3.22  0.  0.
   324  3.23  0.  0.
   325  3.24  0.  0.
   326  3.25  0.  0.
   327  3.26  0.  0.
   328  3.27  0.  0.
   329  3.28  0.  0.
   330  3.29  0.  0.
   331  3.30  0.  0.
   332  3.31  0.  0.
   333  3.32  0.  0.
   334  3.33  0.  0.
   335  3.34  0.  0.
   336  3.35  0.  0.
   337  3.36  0.  0.
   338  3.37  0.  0.
   339  3.38  0.  0.
   340  3.39  0.  0.
   341  3.40  0.  0.
   342  3.41  0.  0.
   343  3.42  0.  0.
   344  3.43  0.  0.
   345  3.44  0.  0.
   346  3.45  0.  0.
   347  3.46  0.  0.
   348  3.47  0.  0.
   349  3.48  0.  0.
   350  3.49  0.  0.
   351  3.50  0.  0.
   352  3.51  0.  0.
   353  3.52  0.  0.
   354  3.53  0.  0.
   355  3.54  0.  0.
   356  3.55  0.  0.
   357  3.56  0.  0.
   358  3.57  0.  0.
   359  3.58  0.  0.
   360  3.59  0.  0.
   361  3.60  0.  0.
   362  3.61  0.  0.
   363  3.62  0.  0.
   364  3.63  0.  0.
   365  3.64  0.  0.
   366  3.65  0.  0.
   367  3.66  0.  0.
   368  3.67  0.  0.
   369  3.68  0.  0.
   370  3.69  0.  0.
   371  3.70  0.  0.
   372  3.71  0.  0.
   373  3.72  0.  0.
   374  3.73  0.  0.
   375  3.74  0.  0.
   376  3.75  0.  0.
   377  3.76  0.  0.
   378  3.77  0.  0.
   379  3.78  0.  0.
   380  3.79  0.  0.
   381  3.80  0.  0.
   382  3.81  0.  0.
   383  3.82  0.  0.
   384  3.83  0.  0.
   385  3.84  0.  0.
   386  3.85  0.  0.
   387  3.86  0.  0.
   388  3.87  0.  0.
   389  3.88  0.  0.
   390  3.89  0.  0.
   391  3.90  0.  0.
   392  3.91  0.  0.
   393  3.92  0.  0.
   394  3.93  0.  0.
   395  3.94  0.  0.
   396  3.95  0.  0.
   397  3.96  0.  0.
   398  3.97  0.  0.
   399  3.98  0.  0.
   400  3.99  0.  0.
   1                         2.3422606848773E+00  2.2953886937922E-01
     1  0.0000000000000E+00  3.7894172522090E-10 -1.5116489865408E-09
     2  1.0000000000000E-02  1.3949626754114E-03 -8.4978400879018E-04
     3  2.0000000000000E-02  5.5745196228159E-03 -3.3921186743246E-03
     4  3.0000000000000E-02  1.2522703740025E-02 -7.6060184874977E-03
     5  4.0000000000000E-02  2.2212990094771E-02 -1.3456728657538E-02
     6  5.0000000000000E-02  3.4608425550329E-02 -2.0896053722282E-02
     7  6.0000000000000E-02  4.9661808787769E-02 -2.9862811694708E-02
     8  7.0000000000000E-02  6.7315919292864E-02 -4.0283407942876E-02
     9  8.0000000000000E-02  8.7503793496732E-02 -5.2072521488762E-02
    10  9.0000000000000E-02  1.1014904590295E-01 -6.5133895008988E-02
    11  1.0000000000000E-01  1.3516623270343E-01 -7.9361218544067E-02
    12  1.1000000000000E-01  1.6246125508599E-01 -9.4639095794964E-02
    13  1.2000000000000E-01  1.9193179916967E-01 -1.1084408091797E-01
    14  1.3000000000000E-01  2.2346780927529E-01 -1.2784577294068E-01
    15  1.4000000000000E-01  2.5695199104730E-01 -1.4550795431895E-01
    16  1.5000000000000E-01  2.9226034079412E-01 -1.6368975974932E-01
    17  1.6000000000000E-01  3.2926269730602E-01 -1.8224686114700E-01
    18  1.7000000000000E-01  3.6782331234480E-01 -2.0103265469821E-01
    19  1.8000000000000E-01  4.0780143597741E-01 -2.1989943609872E-01
    20  1.9000000000000E-01  4.4905191294499E-01 -2.3869955049016E-01
    21  2.0000000000000E-01  4.9142578631957E-01 -2.5728650419988E-01
    22  2.1000000000000E-01  5.3477090480011E-01 -2.7551602616424E-01
    23  2.2000000000000E-01  5.7893253013565E-01 -2.9324706786058E-01
    24  2.3000000000000E-01  6.2375394133333E-01 -3.1034273167171E-01
    25  2.4000000000000E-01  6.6907703250959E-01 -3.2667111884284E-01
    26  2.5000000000000E-01  7.1474290146963E-01 -3.4210608954374E-01
    27  2.6000000000000E-01  7.6059242635084E-01 -3.5652792899834E-01
    28  2.7000000000000E-01  8.0646682793336E-01 -3.6982391516533E-01
    29  2.8000000000000E-01  8.5220821550365E-01 -3.8188878502578E-01
    30  2.9000000000000E-01  8.9766011444768E-01 -3.9262509812851E-01
    31  3.0000000000000E-01  9.4266797404641E-01 -4.0194349764068E-01
    32  3.1000000000000E-01  9.8707965424086E-01 -4.0976287072076E-01
    33  3.2000000000000E-01  1.0307458904248E+00 -4.1601041155209E-01
    34  3.3000000000000E-01  1.0735207356035E+00 -4.2062159182257E-01
    35  3.4000000000000E-01  1.1152619795244E+00 -4.2354004478745E-01
    36  3.5000000000000E-01  1.1558315446341E+00 -4.2471737028651E-01
    37  3.6000000000000E-01  1.1950958589455E+00 -4.2411286918622E-01
    38  3.7000000000000E-01  1.2329262061009E+00 -4.2169321666215E-01
    39  3.8000000000000E-01  1.2691990530953E+00 -4.1743208451559E-01
    40  3.9000000000000E-01  1.3037963562698E+00 -4.1130972331654E-01
    41  4.0000000000000E-01  1.3366058463030E+00 -4.0331251557509E-01
    42  4.1000000000000E-01  1.3675212930110E+00 -3.9343251135819E-01
    43  4.2000000000000E-01  1.3964427508206E+00 -3.8166695778608E-01
    44  4.3000000000000E-01  1.4232767857975E+00 -3.6801783366227E-01
    45  4.4000000000000E-01  1.4479366851017E+00 -3.5249140011531E-01
    46  4.5000000000000E-01  1.4703426496985E+00 -3.3509777756774E-01
    47  4.6000000000000E-01  1.4904219710815E+00 -3.1585055860484E-01
    48  4.7000000000000E-01  1.5081091926700E+00 -2.9476646540690E-01
    49  4.8000000000000E-01  1.5233462564185E+00 -2.7186505934747E-01
    50  4.9000000000000E-01  1.5360826350381E+00 -2.4716850916438E-01
    51  5.0000000000000E-01  1.5462754500701E+00 -2.2070142279981E-01
    52  5.1000000000000E-01  1.5538895758847E+00 -1.9249074660079E-01
    53  5.2000000000000E-01  1.5588977294952E+00 -1.6256573409712E-01
    54  5.3000000000000E-01  1.5612805459000E+00 -1.3095798505179E-01
    55  5.4000000000000E-01  1.5610266384785E+00 -9.7701553936531E-02
    56  5.5000000000000E-01  1.5581326437935E+00 -6.2833125446799E-02
    57  5.6000000000000E-01  1.5526032499814E+00 -2.6392253162018E-02
    58  5.7000000000000E-01  1.5444512077595E+00  1.1578343996477E-02
    59  5.8000000000000E-01  1.5336973229434E+00  5.1032434230372E-02
    60  5.9000000000000E-01  1.5203704292501E+00  9.1919882243017E-02
    61  6.0000000000000E-01  1.5045073400772E+00  1.3418622466725E-01
    62  6.1000000000000E-01  1.4861527778829E+00  1.7777222167679E-01
    63  6.2000000000000E-01  1.4653592797645E+00  2.2261339575167E-01
    64  6.3000000000000E-01  1.4421870778335E+00  2.6863956922394E-01
    65  6.4000000000000E-01  1.4167039530249E+00  3.1577441269490E-01
    66  6.5000000000000E-01  1.3889850610493E+00  3.6393501667734E-01
    67  6.6000000000000E-01  1.3591127293072E+00  4.1303149886952E-01
    68  6.7000000000000E-01  1.3271762237284E+00  4.6296665930914E-01
    69  6.8000000000000E-01  1.2932714846809E+00  5.1363569528350E-01
    70  6.9000000000000E-01  1.2575008313059E+00  5.6492598729029E-01
    71  7.0000000000000E-01  1.2199726338798E+00  6.1671696655834E-01
    72  7.1000000000000E-01  1.1808009540793E+00  6.6888007365782E-01
    73  7.2000000000000E-01  1.1401051533230E+00  7.2127881656942E-01
    74  7.3000000000000E-01  1.0980094696836E+00  7.7376893525430E-01
    75  7.4000000000000E-01  1.0546425642039E+00  8.2619867829321E-01
    76  7.5000000000000E-01  1.0101370377990E+00  8.7840919556217E-01
    77  7.6000000000000E-01  9.6462892028733E-01  9.3023504920729E-01
    78  7.7000000000000E-01  9.1825713345400E-01  9.8150484339800E-01
    79  7.8000000000000E-01  8.7116293040946E-01  1.0320419715022E+00
    80  7.9000000000000E-01  8.2348931385600E-01  1.0816654774654E+00
    81  8.0000000000000E-01  7.7538043621335E-01  1.1301910263186E+00
    82  8.1000000000000E-01  7.2698098487137E-01  1.1774319769124E+00
    83  8.2000000000000E-01  6.7843555613234E-01  1.2232005482093E+00
    84  8.3000000000000E-01  6.2988802166894E-01  1.2673090687855E+00
    85  8.4000000000000E-01  5.8148089155446E-01  1.3095712976318E+00
    86  8.5000000000000E-01  5.3335467811295E-01  1.3498038029128E+00
    87  8.6000000000000E-01  4.8564726498586E-01  1.3878273840894E+00
    88  8.7000000000000E-01  4.3849328591523E-01  1.4234685217234E+00
    89  8.8000000000000E-01  3.9202351779698E-01  1.4565608384184E+00
    90  8.9000000000000E-01  3.4636429256254E-01  1.4869465536901E+00
    91  9.0000000000000E-01  3.0163693239699E-01  1.5144779151418E+00
    92  9.1000000000000E-01  2.5795721270104E-01  1.5390185881421E+00
    93  9.2000000000000E-01  2.1543485704811E-01  1.5604449862718E+00
    94  9.3000000000000E-01  1.7417306818093E-01  1.5786475251279E+00
    95  9.4000000000000E-01  1.3426809883275E-01  1.5935317826488E+00
    96  9.5000000000000E-01  9.5808865851108E-02  1.6050195499417E+00
    97  9.6000000000000E-01  5.8876610748257E-02  1.6130497576504E+00
    98  9.7000000000000E-01  2.3544609406430E-02  1.6175792641880E+00
    99  9.8000000000000E-01 -1.0122066768294E-02  1.6185834936521E+00
   100  9.9000000000000E-01 -4.2066736417378E-02  1.6160569129267E+00
   101  1.0000000000000E+00 -7.2241239196191E-02  1.6100133393373E+00
   102  1.0100000000000E+00 -1.0060601132340E-01  1.6004860722301E+00
   103  1.0200000000000E+00 -1.2713010543539E-01  1.5875278439730E+00
   104  1.0300000000000E+00 -1.5179115501185E-01  1.5712105880970E+00
   105  1.0400000000000E+00 -1.7457528418542E-01  1.5516250245777E+00
   106  1.0500000000000E+00 -1.9547696429094E-01  1.5288800645693E+00
   107  1.0600000000000E+00 -2.1449881904169E-01  1.5031020392135E+00
   108  1.0700000000000E+00 -2.3165138073467E-01  1.4744337594264E+00
   109  1.0800000000000E+00 -2.4695280037588E-01  1.4430334157734E+00
   110  1.0900000000000E+00 -2.6042851507616E-01  1.4090733296595E+00
   111  1.1000000000000E+00 -2.7211087648934E-01  1.3727385690455E+00
   112  1.1100000000000E+00 -2.8203874444372E-01  1.3342254437286E+00
   113  1.1200000000000E+00 -2.9025705024869E-01  1.2937398968683E+00
   114  1.1300000000000E+00 -2.9681633443681E-01  1.2514958108713E+00
   115  1.1400000000000E+00 -3.0177226392291E-01  1.2077132469502E+00
   116  1.1500000000000E+00 -3.0518513372386E-01  1.1626166386191E+00
   117  1.1600000000000E+00 -3.0711935848132E-01  1.1164329600728E+00
   118  1.1700000000000E+00 -3.0764295906472E-01  1.0693898907976E+00
   119  1.1800000000000E+00 -3.0682704950116E-01  1.0217139978786E+00
   120  1.1900000000000E+00 -3.0474532938259E-01  9.7362895728692E-01
   121  1.2000000000000E+00 -3.0147358674108E-01  9.2535383496441E-01
   122  1.2100000000000E+00 -2.9708921615752E-01  8.7710144775588E-01
   123  1.2200000000000E+00 -2.9167075658679E-01  8.2907682320205E-01
   124  1.2300000000000E+00 -2.8529745303935E-01  7.8147577588822E-01
   125  1.2400000000000E+00 -2.7804884586384E-01  7.3448361647213E-01
   126  1.2500000000000E+00 -2.7000439093321E-01  6.8827400771553E-01
   127  1.2600000000000E+00 -2.6124311354715E-01  6.4300797981207E-01
   128  1.2700000000000E+00 -2.5184329834059E-01  5.9883311510054E-01
   129  1.2800000000000E+00 -2.4188221693288E-01  5.5588290988268E-01
   130  1.2900000000000E+00 -2.3143589447134E-01  5.1427631855558E-01
   131  1.3000000000000E+00 -2.2057891562776E-01  4.7411748267447E-01
   132  1.3100000000000E+00 -2.0938427000254E-01  4.3549564490274E-01
   133  1.3200000000000E+00 -1.9792323628236E-01  3.9848524510555E-01
   134  1.3300000000000E+00 -1.8626530389849E-01  3.6314619316465E-01
   135  1.3400000000000E+00 -1.7447813034826E-01  3.2952431045805E-01
   136  1.3500000000000E+00 -1.6262753177585E-01  2.9765192937929E-01
   137  1.3600000000000E+00 -1.5077750387541E-01  2.6754863783083E-01
   138  1.3700000000000E+00 -1.3899026967941E-01  2.3922215332623E-01
   139  1.3800000000000E+00 -1.2732635034125E-01  2.1266930922476E-01
   140  1.3900000000000E+00 -1.1584465461169E-01  1.8787713370591E-01
   141  1.4000000000000E+00 -1.0460258235721E-01  1.6482400042524E-01
   142  1.4100000000000E+00 -9.3656137174544E-02  1.4348082838208E-01
   143  1.4200000000000E+00 -8.3060042925315E-02  1.2381230739884E-01
   144  1.4300000000000E+00 -7.2867858850636E-02  1.0577812478214E-01
   145  1.4400000000000E+00 -6.3132087830633E-02  8.9334168213108E-02
   146  1.4500000000000E+00 -5.3904272329809E-02  7.4433679717266E-02
   147  1.4600000000000E+00 -4.5235072908882E-02  6.1028336494174E-02
   148  1.4700000000000E+00 -3.7174327974491E-02  4.9069246089698E-02
   149  1.4800000000000E+00 -2.9771046101018E-02  3.8507700886334E-02
   150  1.4900000000000E+00 -2.3075303401744E-02  2.9301361368326E-02
   151  1.5000000000000E+00 -1.7137328406306E-02  2.1412490366304E-02
   152  1.5100000000000E+00 -1.2003178735982E-02  1.4796009806005E-02
   153  1.5200000000000E+00 -7.7178544905404E-03  9.4113857068909E-03
   154  1.5300000000000E+00 -4.3271064578384E-03  5.2335693084323E-03
   155  1.5400000000000E+00 -1.8784902830662E-03  2.2579897434680E-03
   156  1.5500000000000E+00 -4.2316500869329E-04  5.0359944843301E-04
   157  1.5600000000000E+00  1.3717912355962E-05 -2.0995980922779E-05
   158  1.5700000000000E+00 -4.6932512069796E-06  6.0088378887216E-06
   159  1.58  0.  0.
   160  1.59  0.  0.
   161  1.60  0.  0.
   162  1.61  0.  0.
   163  1.62  0.  0.
   164  1.63  0.  0.
   165  1.64  0.  0.
   166  1.65  0.  0.
   167  1.66  0.  0.
   168  1.67  0.  0.
   169  1.68  0.  0.
   170  1.69  0.  0.
   171  1.70  0.  0.
   172  1.71  0.  0.
   173  1.72  0.  0.
   174  1.73  0.  0.
   175  1.74  0.  0.
   176  1.75  0.  0.
   177  1.76  0.  0.
   178  1.77  0.  0.
   179  1.78  0.  0.
   180  1.79  0.  0.
   181  1.80  0.  0.
   182  1.81  0.  0.
   183  1.82  0.  0.
   184  1.83  0.  0.
   185  1.84  0.  0.
   186  1.85  0.  0.
   187  1.86  0.  0.
   188  1.87  0.  0.
   189  1.88  0.  0.
   190  1.89  0.  0.
   191  1.90  0.  0.
   192  1.91  0.  0.
   193  1.92  0.  0.
   194  1.93  0.  0.
   195  1.94  0.  0.
   196  1.95  0.  0.
   197  1.96  0.  0.
   198  1.97  0.  0.
   199  1.98  0.  0.
   200  1.99  0.  0.
   201  2.00  0.  0.
   202  2.01  0.  0.
   203  2.02  0.  0.
   204  2.03  0.  0.
   205  2.04  0.  0.
   206  2.05  0.  0.
   207  2.06  0.  0.
   208  2.07  0.  0.
   209  2.08  0.  0.
   210  2.09  0.  0.
   211  2.10  0.  0.
   212  2.11  0.  0.
   213  2.12  0.  0.
   214  2.13  0.  0.
   215  2.14  0.  0.
   216  2.15  0.  0.
   217  2.16  0.  0.
   218  2.17  0.  0.
   219  2.18  0.  0.
   220  2.19  0.  0.
   221  2.20  0.  0.
   222  2.21  0.  0.
   223  2.22  0.  0.
   224  2.23  0.  0.
   225  2.24  0.  0.
   226  2.25  0.  0.
   227  2.26  0.  0.
   228  2.27  0.  0.
   229  2.28  0.  0.
   230  2.29  0.  0.
   231  2.30  0.  0.
   232  2.31  0.  0.
   233  2.32  0.  0.
   234  2.33  0.  0.
   235  2.34  0.  0.
   236  2.35  0.  0.
   237  2.36  0.  0.
   238  2.37  0.  0.
   239  2.38  0.  0.
   240  2.39  0.  0.
   241  2.40  0.  0.
   242  2.41  0.  0.
   243  2.42  0.  0.
   244  2.43  0.  0.
   245  2.44  0.  0.
   246  2.45  0.  0.
   247  2.46  0.  0.
   248  2.47  0.  0.
   249  2.48  0.  0.
   250  2.49  0.  0.
   251  2.50  0.  0.
   252  2.51  0.  0.
   253  2.52  0.  0.
   254  2.53  0.  0.
   255  2.54  0.  0.
   256  2.55  0.  0.
   257  2.56  0.  0.
   258  2.57  0.  0.
   259  2.58  0.  0.
   260  2.59  0.  0.
   261  2.60  0.  0.
   262  2.61  0.  0.
   263  2.62  0.  0.
   264  2.63  0.  0.
   265  2.64  0.  0.
   266  2.65  0.  0.
   267  2.66  0.  0.