<UPF version="2.0.1">
  <PP_INFO>

 This pseudopotential file has been produced using the code
 ONCVPSP  (Optimized Norm-Conservinng Vanderbilt PSeudopotential)
 fully-relativistic version 4.0.1 06/20/2107 by D. R. Hamann
 The code is available through a link at URL www.mat-simresearch.com.
 Documentation with the package provides a full discription of the
 input data below.


 While it is not required under the terms of the GNU GPL, it is
 suggested that you cite D. R. Hamann, Phys. Rev. B 88, 085117 (2013)
 in any publication using these pseudopotentials.

    <PP_INPUTFILE>
# ATOM AND REFERENCE CONFIGURATION
# atsym  z   nc   nv     iexc    psfile
  Ar 18.00    3    2       3      both
#
#   n    l    f        energy (Ha)
    1    0    2.00
    2    0    2.00
    2    1    6.00
    3    0    2.00
    3    1    6.00
#
# PSEUDOPOTENTIAL AND OPTIMIZATION
# lmax
    2
#
#   l,   rc,     ep,   ncon, nbas, qcut
    0   1.55000   0.00000    4    8   8.20000
    1   1.55000   0.00000    4    8   8.20000
    2   1.55000   0.10000    4    8   8.20000
#
# LOCAL POTENTIAL
# lloc, lpopt,  rc(5),   dvloc0
    4    5   1.50000      0.00000
#
# VANDERBILT-KLEINMAN-BYLANDER PROJECTORs
# l, nproj, debl
    0    2   1.50000
    1    2   1.50000
    2    2   1.00000
#
# MODEL CORE CHARGE
# icmod, fcfact, rcfact
    3   7.00000   1.25000
#
# LOG DERIVATIVE ANALYSIS
# epsh1, epsh2, depsh
  -12.00   12.00    0.02
#
# OUTPUT GRID
# rlmax, drl
    4.00    0.01
#
# TEST CONFIGURATIONS
# ncnf
    0
# nvcnf
#   n    l    f
    </PP_INPUTFILE>
  </PP_INFO>
  <!--                               -->
  <!-- END OF HUMAN READABLE SECTION -->
  <!--                               -->
    <PP_HEADER
       generated="Generated using ONCVPSP code by D. R. Hamann"
       author="anonymous"
       date="250217"
       comment=""
       element="Ar"
       pseudo_type="NC"
       relativistic="full"
       is_ultrasoft="F"
       is_paw="F"
       is_coulomb="F"
       has_so="T"
       has_wfc="F"
       has_gipaw="F"
       core_correction="T"
       functional="PZ"
       z_valence="    8.00"
       total_psenergy="  -4.23829049400E+01"
       rho_cutoff="   9.33000000000E+00"
       l_max="2"
       l_local="-1"
       mesh_size="   934"
       number_of_wfc="3"
       number_of_proj="10"/>
 <PP_MESH>
   <PP_R type="real"  size=" 934" columns="8">
    0.0000    0.0100    0.0200    0.0300    0.0400    0.0500    0.0600    0.0700
    0.0800    0.0900    0.1000    0.1100    0.1200    0.1300    0.1400    0.1500
    0.1600    0.1700    0.1800    0.1900    0.2000    0.2100    0.2200    0.2300
    0.2400    0.2500    0.2600    0.2700    0.2800    0.2900    0.3000    0.3100
    0.3200    0.3300    0.3400    0.3500    0.3600    0.3700    0.3800    0.3900
    0.4000    0.4100    0.4200    0.4300    0.4400    0.4500    0.4600    0.4700
    0.4800    0.4900    0.5000    0.5100    0.5200    0.5300    0.5400    0.5500
    0.5600    0.5700    0.5800    0.5900    0.6000    0.6100    0.6200    0.6300
    0.6400    0.6500    0.6600    0.6700    0.6800    0.6900    0.7000    0.7100
    0.7200    0.7300    0.7400    0.7500    0.7600    0.7700    0.7800    0.7900
    0.8000    0.8100    0.8200    0.8300    0.8400    0.8500    0.8600    0.8700
    0.8800    0.8900    0.9000    0.9100    0.9200    0.9300    0.9400    0.9500
    0.9600    0.9700    0.9800    0.9900    1.0000    1.0100    1.0200    1.0300
    1.0400    1.0500    1.0600    1.0700    1.0800    1.0900    1.1000    1.1100
    1.1200    1.1300    1.1400    1.1500    1.1600    1.1700    1.1800    1.1900
    1.2000    1.2100    1.2200    1.2300    1.2400    1.2500    1.2600    1.2700
    1.2800    1.2900    1.3000    1.3100    1.3200    1.3300    1.3400    1.3500
    1.3600    1.3700    1.3800    1.3900    1.4000    1.4100    1.4200    1.4300
    1.4400    1.4500    1.4600    1.4700    1.4800    1.4900    1.5000    1.5100
    1.5200    1.5300    1.5400    1.5500    1.5600    1.5700    1.5800    1.5900
    1.6000    1.6100    1.6200    1.6300    1.6400    1.6500    1.6600    1.6700
    1.6800    1.6900    1.7000    1.7100    1.7200    1.7300    1.7400    1.7500
    1.7600    1.7700    1.7800    1.7900    1.8000    1.8100    1.8200    1.8300
    1.8400    1.8500    1.8600    1.8700    1.8800    1.8900    1.9000    1.9100
    1.9200    1.9300    1.9400    1.9500    1.9600    1.9700    1.9800    1.9900
    2.0000    2.0100    2.0200    2.0300    2.0400    2.0500    2.0600    2.0700
    2.0800    2.0900    2.1000    2.1100    2.1200    2.1300    2.1400    2.1500
    2.1600    2.1700    2.1800    2.1900    2.2000    2.2100    2.2200    2.2300
    2.2400    2.2500    2.2600    2.2700    2.2800    2.2900    2.3000    2.3100
    2.3200    2.3300    2.3400    2.3500    2.3600    2.3700    2.3800    2.3900
    2.4000    2.4100    2.4200    2.4300    2.4400    2.4500    2.4600    2.4700
    2.4800    2.4900    2.5000    2.5100    2.5200    2.5300    2.5400    2.5500
    2.5600    2.5700    2.5800    2.5900    2.6000    2.6100    2.6200    2.6300
    2.6400    2.6500    2.6600    2.6700    2.6800    2.6900    2.7000    2.7100
    2.7200    2.7300    2.7400    2.7500    2.7600    2.7700    2.7800    2.7900
    2.8000    2.8100    2.8200    2.8300    2.8400    2.8500    2.8600    2.8700
    2.8800    2.8900    2.9000    2.9100    2.9200    2.9300    2.9400    2.9500
    2.9600    2.9700    2.9800    2.9900    3.0000    3.0100    3.0200    3.0300
    3.0400    3.0500    3.0600    3.0700    3.0800    3.0900    3.1000    3.1100
    3.1200    3.1300    3.1400    3.1500    3.1600    3.1700    3.1800    3.1900
    3.2000    3.2100    3.2200    3.2300    3.2400    3.2500    3.2600    3.2700
    3.2800    3.2900    3.3000    3.3100    3.3200    3.3300    3.3400    3.3500
    3.3600    3.3700    3.3800    3.3900    3.4000    3.4100    3.4200    3.4300
    3.4400    3.4500    3.4600    3.4700    3.4800    3.4900    3.5000    3.5100
    3.5200    3.5300    3.5400    3.5500    3.5600    3.5700    3.5800    3.5900
    3.6000    3.6100    3.6200    3.6300    3.6400    3.6500    3.6600    3.6700
    3.6800    3.6900    3.7000    3.7100    3.7200    3.7300    3.7400    3.7500
    3.7600    3.7700    3.7800    3.7900    3.8000    3.8100    3.8200    3.8300
    3.8400    3.8500    3.8600    3.8700    3.8800    3.8900    3.9000    3.9100
    3.9200    3.9300    3.9400    3.9500    3.9600    3.9700    3.9800    3.9900
    4.0000    4.0100    4.0200    4.0300    4.0400    4.0500    4.0600    4.0700
    4.0800    4.0900    4.1000    4.1100    4.1200    4.1300    4.1400    4.1500
    4.1600    4.1700    4.1800    4.1900    4.2000    4.2100    4.2200    4.2300
    4.2400    4.2500    4.2600    4.2700    4.2800    4.2900    4.3000    4.3100
    4.3200    4.3300    4.3400    4.3500    4.3600    4.3700    4.3800    4.3900
    4.4000    4.4100    4.4200    4.4300    4.4400    4.4500    4.4600    4.4700
    4.4800    4.4900    4.5000    4.5100    4.5200    4.5300    4.5400    4.5500
    4.5600    4.5700    4.5800    4.5900    4.6000    4.6100    4.6200    4.6300
    4.6400    4.6500    4.6600    4.6700    4.6800    4.6900    4.7000    4.7100
    4.7200    4.7300    4.7400    4.7500    4.7600    4.7700    4.7800    4.7900
    4.8000    4.8100    4.8200    4.8300    4.8400    4.8500    4.8600    4.8700
    4.8800    4.8900    4.9000    4.9100    4.9200    4.9300    4.9400    4.9500
    4.9600    4.9700    4.9800    4.9900    5.0000    5.0100    5.0200    5.0300
    5.0400    5.0500    5.0600    5.0700    5.0800    5.0900    5.1000    5.1100
    5.1200    5.1300    5.1400    5.1500    5.1600    5.1700    5.1800    5.1900
    5.2000    5.2100    5.2200    5.2300    5.2400    5.2500    5.2600    5.2700
    5.2800    5.2900    5.3000    5.3100    5.3200    5.3300    5.3400    5.3500
    5.3600    5.3700    5.3800    5.3900    5.4000    5.4100    5.4200    5.4300
    5.4400    5.4500    5.4600    5.4700    5.4800    5.4900    5.5000    5.5100
    5.5200    5.5300    5.5400    5.5500    5.5600    5.5700    5.5800    5.5900
    5.6000    5.6100    5.6200    5.6300    5.6400    5.6500    5.6600    5.6700
    5.6800    5.6900    5.7000    5.7100    5.7200    5.7300    5.7400    5.7500
    5.7600    5.7700    5.7800    5.7900    5.8000    5.8100    5.8200    5.8300
    5.8400    5.8500    5.8600    5.8700    5.8800    5.8900    5.9000    5.9100
    5.9200    5.9300    5.9400    5.9500    5.9600    5.9700    5.9800    5.9900
    6.0000    6.0100    6.0200    6.0300    6.0400    6.0500    6.0600    6.0700
    6.0800    6.0900    6.1000    6.1100    6.1200    6.1300    6.1400    6.1500
    6.1600    6.1700    6.1800    6.1900    6.2000    6.2100    6.2200    6.2300
    6.2400    6.2500    6.2600    6.2700    6.2800    6.2900    6.3000    6.3100
    6.3200    6.3300    6.3400    6.3500    6.3600    6.3700    6.3800    6.3900
    6.4000    6.4100    6.4200    6.4300    6.4400    6.4500    6.4600    6.4700
    6.4800    6.4900    6.5000    6.5100    6.5200    6.5300    6.5400    6.5500
    6.5600    6.5700    6.5800    6.5900    6.6000    6.6100    6.6200    6.6300
    6.6400    6.6500    6.6600    6.6700    6.6800    6.6900    6.7000    6.7100
    6.7200    6.7300    6.7400    6.7500    6.7600    6.7700    6.7800    6.7900
    6.8000    6.8100    6.8200    6.8300    6.8400    6.8500    6.8600    6.8700
    6.8800    6.8900    6.9000    6.9100    6.9200    6.9300    6.9400    6.9500
    6.9600    6.9700    6.9800    6.9900    7.0000    7.0100    7.0200    7.0300
    7.0400    7.0500    7.0600    7.0700    7.0800    7.0900    7.1000    7.1100
    7.1200    7.1300    7.1400    7.1500    7.1600    7.1700    7.1800    7.1900
    7.2000    7.2100    7.2200    7.2300    7.2400    7.2500    7.2600    7.2700
    7.2800    7.2900    7.3000    7.3100    7.3200    7.3300    7.3400    7.3500
    7.3600    7.3700    7.3800    7.3900    7.4000    7.4100    7.4200    7.4300
    7.4400    7.4500    7.4600    7.4700    7.4800    7.4900    7.5000    7.5100
    7.5200    7.5300    7.5400    7.5500    7.5600    7.5700    7.5800    7.5900
    7.6000    7.6100    7.6200    7.6300    7.6400    7.6500    7.6600    7.6700
    7.6800    7.6900    7.7000    7.7100    7.7200    7.7300    7.7400    7.7500
    7.7600    7.7700    7.7800    7.7900    7.8000    7.8100    7.8200    7.8300
    7.8400    7.8500    7.8600    7.8700    7.8800    7.8900    7.9000    7.9100
    7.9200    7.9300    7.9400    7.9500    7.9600    7.9700    7.9800    7.9900
    8.0000    8.0100    8.0200    8.0300    8.0400    8.0500    8.0600    8.0700
    8.0800    8.0900    8.1000    8.1100    8.1200    8.1300    8.1400    8.1500
    8.1600    8.1700    8.1800    8.1900    8.2000    8.2100    8.2200    8.2300
    8.2400    8.2500    8.2600    8.2700    8.2800    8.2900    8.3000    8.3100
    8.3200    8.3300    8.3400    8.3500    8.3600    8.3700    8.3800    8.3900
    8.4000    8.4100    8.4200    8.4300    8.4400    8.4500    8.4600    8.4700
    8.4800    8.4900    8.5000    8.5100    8.5200    8.5300    8.5400    8.5500
    8.5600    8.5700    8.5800    8.5900    8.6000    8.6100    8.6200    8.6300
    8.6400    8.6500    8.6600    8.6700    8.6800    8.6900    8.7000    8.7100
    8.7200    8.7300    8.7400    8.7500    8.7600    8.7700    8.7800    8.7900
    8.8000    8.8100    8.8200    8.8300    8.8400    8.8500    8.8600    8.8700
    8.8800    8.8900    8.9000    8.9100    8.9200    8.9300    8.9400    8.9500
    8.9600    8.9700    8.9800    8.9900    9.0000    9.0100    9.0200    9.0300
    9.0400    9.0500    9.0600    9.0700    9.0800    9.0900    9.1000    9.1100
    9.1200    9.1300    9.1400    9.1500    9.1600    9.1700    9.1800    9.1900
    9.2000    9.2100    9.2200    9.2300    9.2400    9.2500    9.2600    9.2700
    9.2800    9.2900    9.3000    9.3100    9.3200    9.3300
   </PP_R>
   <PP_RAB type="real"  size=" 934" columns="8">
    0.0100    0.0100    0.0100    0.0100    0.0100    0.0100    0.0100    0.0100
    0.0100    0.0100    0.0100    0.0100    0.0100    0.0100    0.0100    0.0100
    0.0100    0.0100    0.0100    0.0100    0.0100    0.0100    0.0100    0.0100
    0.0100    0.0100    0.0100    0.0100    0.0100    0.0100    0.0100    0.0100
    0.0100    0.0100    0.0100    0.0100    0.0100    0.0100    0.0100    0.0100
    0.0100    0.0100    0.0100    0.0100    0.0100    0.0100    0.0100    0.0100
    0.0100    0.0100    0.0100    0.0100    0.0100    0.0100    0.0100    0.0100
    0.0100    0.0100    0.0100    0.0100    0.0100    0.0100    0.0100    0.0100
    0.0100    0.0100    0.0100    0.0100    0.0100    0.0100    0.0100    0.0100
    0.0100    0.0100    0.0100    0.0100    0.0100    0.0100    0.0100    0.0100
    0.0100    0.0100    0.0100    0.0100    0.0100    0.0100    0.0100    0.0100
    0.0100    0.0100    0.0100    0.0100    0.0100    0.0100    0.0100    0.0100
    0.0100    0.0100    0.0100    0.0100    0.0100    0.0100    0.0100    0.0100
    0.0100    0.0100    0.0100    0.0100    0.0100    0.0100    0.0100    0.0100
    0.0100    0.0100    0.0100    0.0100    0.0100    0.0100    0.0100    0.0100
    0.0100    0.0100    0.0100    0.0100    0.0100    0.0100    0.0100    0.0100
    0.0100    0.0100    0.0100    0.0100    0.0100    0.0100    0.0100    0.0100
    0.0100    0.0100    0.0100    0.0100    0.0100    0.0100    0.0100    0.0100
    0.0100    0.0100    0.0100    0.0100    0.0100    0.0100    0.0100    0.0100
    0.0100    0.0100    0.0100    0.0100    0.0100    0.0100    0.0100    0.0100
    0.0100    0.0100    0.0100    0.0100    0.0100    0.0100    0.0100    0.0100
    0.0100    0.0100    0.0100    0.0100    0.0100    0.0100    0.0100    0.0100
    0.0100    0.0100    0.0100    0.0100    0.0100    0.0100    0.0100    0.0100
    0.0100    0.0100    0.0100    0.0100    0.0100    0.0100    0.0100    0.0100
    0.0100    0.0100    0.0100    0.0100    0.0100    0.0100    0.0100    0.0100
    0.0100    0.0100    0.0100    0.0100    0.0100    0.0100    0.0100    0.0100
    0.0100    0.0100    0.0100    0.0100    0.0100    0.0100    0.0100    0.0100
    0.0100    0.0100    0.0100    0.0100    0.0100    0.0100    0.0100    0.0100
    0.0100    0.0100    0.0100    0.0100    0.0100    0.0100    0.0100    0.0100
    0.0100    0.0100    0.0100    0.0100    0.0100    0.0100    0.0100    0.0100
    0.0100    0.0100    0.0100    0.0100    0.0100    0.0100    0.0100    0.0100
    0.0100    0.0100    0.0100    0.0100    0.0100    0.0100    0.0100    0.0100
    0.0100    0.0100    0.0100    0.0100    0.0100    0.0100    0.0100    0.0100
    0.0100    0.0100    0.0100    0.0100    0.0100    0.0100    0.0100    0.0100
    0.0100    0.0100    0.0100    0.0100    0.0100    0.0100    0.0100    0.0100
    0.0100    0.0100    0.0100    0.0100    0.0100    0.0100    0.0100    0.0100
    0.0100    0.0100    0.0100    0.0100    0.0100    0.0100    0.0100    0.0100
    0.0100    0.0100    0.0100    0.0100    0.0100    0.0100    0.0100    0.0100
    0.0100    0.0100    0.0100    0.0100    0.0100    0.0100    0.0100    0.0100
    0.0100    0.0100    0.0100    0.0100    0.0100    0.0100    0.0100    0.0100
    0.0100    0.0100    0.0100    0.0100    0.0100    0.0100    0.0100    0.0100
    0.0100    0.0100    0.0100    0.0100    0.0100    0.0100    0.0100    0.0100
    0.0100    0.0100    0.0100    0.0100    0.0100    0.0100    0.0100    0.0100
    0.0100    0.0100    0.0100    0.0100    0.0100    0.0100    0.0100    0.0100
    0.0100    0.0100    0.0100    0.0100    0.0100    0.0100    0.0100    0.0100
    0.0100    0.0100    0.0100    0.0100    0.0100    0.0100    0.0100    0.0100
    0.0100    0.0100    0.0100    0.0100    0.0100    0.0100    0.0100    0.0100
    0.0100    0.0100    0.0100    0.0100    0.0100    0.0100    0.0100    0.0100
    0.0100    0.0100    0.0100    0.0100    0.0100    0.0100    0.0100    0.0100
    0.0100    0.0100    0.0100    0.0100    0.0100    0.0100    0.0100    0.0100
    0.0100    0.0100    0.0100    0.0100    0.0100    0.0100    0.0100    0.0100
    0.0100    0.0100    0.0100    0.0100    0.0100    0.0100    0.0100    0.0100
    0.0100    0.0100    0.0100    0.0100    0.0100    0.0100    0.0100    0.0100
    0.0100    0.0100    0.0100    0.0100    0.0100    0.0100    0.0100    0.0100
    0.0100    0.0100    0.0100    0.0100    0.0100    0.0100    0.0100    0.0100
    0.0100    0.0100    0.0100    0.0100    0.0100    0.0100    0.0100    0.0100
    0.0100    0.0100    0.0100    0.0100    0.0100    0.0100    0.0100    0.0100
    0.0100    0.0100    0.0100    0.0100    0.0100    0.0100    0.0100    0.0100
    0.0100    0.0100    0.0100    0.0100    0.0100    0.0100    0.0100    0.0100
    0.0100    0.0100    0.0100    0.0100    0.0100    0.0100    0.0100    0.0100
    0.0100    0.0100    0.0100    0.0100    0.0100    0.0100    0.0100    0.0100
    0.0100    0.0100    0.0100    0.0100    0.0100    0.0100    0.0100    0.0100
    0.0100    0.0100    0.0100    0.0100    0.0100    0.0100    0.0100    0.0100
    0.0100    0.0100    0.0100    0.0100    0.0100    0.0100    0.0100    0.0100
    0.0100    0.0100    0.0100    0.0100    0.0100    0.0100    0.0100    0.0100
    0.0100    0.0100    0.0100    0.0100    0.0100    0.0100    0.0100    0.0100
    0.0100    0.0100    0.0100    0.0100    0.0100    0.0100    0.0100    0.0100
    0.0100    0.0100    0.0100    0.0100    0.0100    0.0100    0.0100    0.0100
    0.0100    0.0100    0.0100    0.0100    0.0100    0.0100    0.0100    0.0100
    0.0100    0.0100    0.0100    0.0100    0.0100    0.0100    0.0100    0.0100
    0.0100    0.0100    0.0100    0.0100    0.0100    0.0100    0.0100    0.0100
    0.0100    0.0100    0.0100    0.0100    0.0100    0.0100    0.0100    0.0100
    0.0100    0.0100    0.0100    0.0100    0.0100    0.0100    0.0100    0.0100
    0.0100    0.0100    0.0100    0.0100    0.0100    0.0100    0.0100    0.0100
    0.0100    0.0100    0.0100    0.0100    0.0100    0.0100    0.0100    0.0100
    0.0100    0.0100    0.0100    0.0100    0.0100    0.0100    0.0100    0.0100
    0.0100    0.0100    0.0100    0.0100    0.0100    0.0100    0.0100    0.0100
    0.0100    0.0100    0.0100    0.0100    0.0100    0.0100    0.0100    0.0100
    0.0100    0.0100    0.0100    0.0100    0.0100    0.0100    0.0100    0.0100
    0.0100    0.0100    0.0100    0.0100    0.0100    0.0100    0.0100    0.0100
    0.0100    0.0100    0.0100    0.0100    0.0100    0.0100    0.0100    0.0100
    0.0100    0.0100    0.0100    0.0100    0.0100    0.0100    0.0100    0.0100
    0.0100    0.0100    0.0100    0.0100    0.0100    0.0100    0.0100    0.0100
    0.0100    0.0100    0.0100    0.0100    0.0100    0.0100    0.0100    0.0100
    0.0100    0.0100    0.0100    0.0100    0.0100    0.0100    0.0100    0.0100
    0.0100    0.0100    0.0100    0.0100    0.0100    0.0100    0.0100    0.0100
    0.0100    0.0100    0.0100    0.0100    0.0100    0.0100    0.0100    0.0100
    0.0100    0.0100    0.0100    0.0100    0.0100    0.0100    0.0100    0.0100
    0.0100    0.0100    0.0100    0.0100    0.0100    0.0100    0.0100    0.0100
    0.0100    0.0100    0.0100    0.0100    0.0100    0.0100    0.0100    0.0100
    0.0100    0.0100    0.0100    0.0100    0.0100    0.0100    0.0100    0.0100
    0.0100    0.0100    0.0100    0.0100    0.0100    0.0100    0.0100    0.0100
    0.0100    0.0100    0.0100    0.0100    0.0100    0.0100    0.0100    0.0100
    0.0100    0.0100    0.0100    0.0100    0.0100    0.0100    0.0100    0.0100
    0.0100    0.0100    0.0100    0.0100    0.0100    0.0100    0.0100    0.0100
    0.0100    0.0100    0.0100    0.0100    0.0100    0.0100    0.0100    0.0100
    0.0100    0.0100    0.0100    0.0100    0.0100    0.0100    0.0100    0.0100
    0.0100    0.0100    0.0100    0.0100    0.0100    0.0100    0.0100    0.0100
    0.0100    0.0100    0.0100    0.0100    0.0100    0.0100    0.0100    0.0100
    0.0100    0.0100    0.0100    0.0100    0.0100    0.0100    0.0100    0.0100
    0.0100    0.0100    0.0100    0.0100    0.0100    0.0100    0.0100    0.0100
    0.0100    0.0100    0.0100    0.0100    0.0100    0.0100    0.0100    0.0100
    0.0100    0.0100    0.0100    0.0100    0.0100    0.0100    0.0100    0.0100
    0.0100    0.0100    0.0100    0.0100    0.0100    0.0100    0.0100    0.0100
    0.0100    0.0100    0.0100    0.0100    0.0100    0.0100    0.0100    0.0100
    0.0100    0.0100    0.0100    0.0100    0.0100    0.0100    0.0100    0.0100
    0.0100    0.0100    0.0100    0.0100    0.0100    0.0100    0.0100    0.0100
    0.0100    0.0100    0.0100    0.0100    0.0100    0.0100    0.0100    0.0100
    0.0100    0.0100    0.0100    0.0100    0.0100    0.0100    0.0100    0.0100
    0.0100    0.0100    0.0100    0.0100    0.0100    0.0100    0.0100    0.0100
    0.0100    0.0100    0.0100    0.0100    0.0100    0.0100    0.0100    0.0100
    0.0100    0.0100    0.0100    0.0100    0.0100    0.0100    0.0100    0.0100
    0.0100    0.0100    0.0100    0.0100    0.0100    0.0100    0.0100    0.0100
    0.0100    0.0100    0.0100    0.0100    0.0100    0.0100    0.0100    0.0100
    0.0100    0.0100    0.0100    0.0100    0.0100    0.0100    0.0100    0.0100
    0.0100    0.0100    0.0100    0.0100    0.0100    0.0100    0.0100    0.0100
    0.0100    0.0100    0.0100    0.0100    0.0100    0.0100
   </PP_RAB>
 </PP_MESH>
  <PP_LOCAL type="real"  size=" 934" columns="4">
   -2.1516993614E+01   -2.1516411489E+01   -2.1514664988E+01   -2.1511753749E+01
   -2.1507677169E+01   -2.1502434400E+01   -2.1496024356E+01   -2.1488445705E+01
   -2.1479696876E+01   -2.1469776055E+01   -2.1458681184E+01   -2.1446409965E+01
   -2.1432959859E+01   -2.1418328084E+01   -2.1402511619E+01   -2.1385507204E+01
   -2.1367311341E+01   -2.1347920295E+01   -2.1327330100E+01   -2.1305536558E+01
   -2.1282535243E+01   -2.1258321509E+01   -2.1232890488E+01   -2.1206237104E+01
   -2.1178356072E+01   -2.1149241912E+01   -2.1118888953E+01   -2.1087291345E+01
   -2.1054443070E+01   -2.1020337952E+01   -2.0984969676E+01   -2.0948331798E+01
   -2.0910417761E+01   -2.0871220920E+01   -2.0830734554E+01   -2.0788951895E+01
   -2.0745866143E+01   -2.0701470501E+01   -2.0655758196E+01   -2.0608722510E+01
   -2.0560356815E+01   -2.0510654600E+01   -2.0459609516E+01   -2.0407215408E+01
   -2.0353466358E+01   -2.0298356729E+01   -2.0241881209E+01   -2.0184034863E+01
   -2.0124813179E+01   -2.0064212122E+01   -2.0002228192E+01   -1.9938858479E+01
   -1.9874100722E+01   -1.9807953373E+01   -1.9740415657E+01   -1.9671487640E+01
   -1.9601170293E+01   -1.9529465557E+01   -1.9456376416E+01   -1.9381906958E+01
   -1.9306062445E+01   -1.9228849382E+01   -1.9150275574E+01   -1.9070350198E+01
   -1.8989083856E+01   -1.8906488633E+01   -1.8822578151E+01   -1.8737367618E+01
   -1.8650873865E+01   -1.8563115388E+01   -1.8474112373E+01   -1.8383886722E+01
   -1.8292462064E+01   -1.8199863762E+01   -1.8106118910E+01   -1.8011256323E+01
   -1.7915306511E+01   -1.7818301655E+01   -1.7720275565E+01   -1.7621263630E+01
   -1.7521302763E+01   -1.7420431336E+01   -1.7318689105E+01   -1.7216117136E+01
   -1.7112757710E+01   -1.7008654238E+01   -1.6903851163E+01   -1.6798393859E+01
   -1.6692328527E+01   -1.6585702090E+01   -1.6478562087E+01   -1.6370956566E+01
   -1.6262933976E+01   -1.6154543060E+01   -1.6045832756E+01   -1.5936852089E+01
   -1.5827650077E+01   -1.5718275632E+01   -1.5608777472E+01   -1.5499204029E+01
   -1.5389603367E+01   -1.5280023102E+01   -1.5170510328E+01   -1.5061111546E+01
   -1.4951872593E+01   -1.4842838588E+01   -1.4734053867E+01   -1.4625561930E+01
   -1.4517405394E+01   -1.4409625943E+01   -1.4302264287E+01   -1.4195360120E+01
   -1.4088952084E+01   -1.3983077735E+01   -1.3877773510E+01   -1.3773074700E+01
   -1.3669015420E+01   -1.3565628585E+01   -1.3462945887E+01   -1.3360997771E+01
   -1.3259813418E+01   -1.3159420721E+01   -1.3059846270E+01   -1.2961115333E+01
   -1.2863251840E+01   -1.2766278367E+01   -1.2670216122E+01   -1.2575084927E+01
   -1.2480903206E+01   -1.2387687971E+01   -1.2295454807E+01   -1.2204217860E+01
   -1.2113989820E+01   -1.2024782040E+01   -1.1936602886E+01   -1.1849465142E+01
   -1.1763303852E+01   -1.1678233410E+01   -1.1594212416E+01   -1.1511248551E+01
   -1.1429341329E+01   -1.1348489827E+01   -1.1268691447E+01   -1.1189941979E+01
   -1.1112235581E+01   -1.1035564764E+01   -1.0959920377E+01   -1.0885291582E+01
   -1.0811665845E+01   -1.0739028907E+01   -1.0667364778E+01   -1.0596655696E+01
   -1.0526882756E+01   -1.0458027178E+01   -1.0390070715E+01   -1.0322995613E+01
   -1.0256784613E+01   -1.0191420937E+01   -1.0126888251E+01   -1.0063170626E+01
   -1.0000252528E+01   -9.9381188082E+00   -9.8767546964E+00   -9.8161457882E+00
   -9.7562780372E+00   -9.6971377453E+00   -9.6387115541E+00   -9.5809864359E+00
   -9.5239496845E+00   -9.4675889070E+00   -9.4118920148E+00   -9.3568472154E+00
   -9.3024430038E+00   -9.2486681542E+00   -9.1955117123E+00   -9.1429629868E+00
   -9.0910115422E+00   -9.0396471903E+00   -8.9888599836E+00   -8.9386402071E+00
   -8.8889783718E+00   -8.8398652074E+00   -8.7912916555E+00   -8.7432488632E+00
   -8.6957281765E+00   -8.6487211339E+00   -8.6022194611E+00   -8.5562150644E+00
   -8.5107000257E+00   -8.4656665966E+00   -8.4211071938E+00   -8.3770143938E+00
   -8.3333809281E+00   -8.2901996787E+00   -8.2474636739E+00   -8.2051660839E+00
   -8.1633002168E+00   -8.1218595151E+00   -8.0808375514E+00   -8.0402280258E+00
   -8.0000247618E+00   -7.9602217038E+00   -7.9208129133E+00   -7.8817925668E+00
   -7.8431549525E+00   -7.8048944679E+00   -7.7670056172E+00   -7.7294830088E+00
   -7.6923213532E+00   -7.6555154603E+00   -7.6190602377E+00   -7.5829506884E+00
   -7.5471819087E+00   -7.5117490863E+00   -7.4766474986E+00   -7.4418725102E+00
   -7.4074195719E+00   -7.3732842184E+00   -7.3394620665E+00   -7.3059488138E+00
   -7.2727402365E+00   -7.2398321883E+00   -7.2072205984E+00   -7.1749014699E+00
   -7.1428708784E+00   -7.1111249704E+00   -7.0796599615E+00   -7.0484721354E+00
   -7.0175578420E+00   -6.9869134958E+00   -6.9565355752E+00   -6.9264206200E+00
   -6.8965652310E+00   -6.8669660681E+00   -6.8376198490E+00   -6.8085233478E+00
   -6.7796733941E+00   -6.7510668714E+00   -6.7227007157E+00   -6.6945719149E+00
   -6.6666775070E+00   -6.6390145793E+00   -6.6115802672E+00   -6.5843717531E+00
   -6.5573862656E+00   -6.5306210780E+00   -6.5040735077E+00   -6.4777409152E+00
   -6.4516207032E+00   -6.4257103155E+00   -6.4000072365E+00   -6.3745089899E+00
   -6.3492131386E+00   -6.3241172832E+00   -6.2992190618E+00   -6.2745161489E+00
   -6.2500062549E+00   -6.2256871257E+00   -6.2015565413E+00   -6.1776123162E+00
   -6.1538522978E+00   -6.1302743664E+00   -6.1068764346E+00   -6.0836564463E+00
   -6.0606123768E+00   -6.0377422317E+00   -6.0150440467E+00   -5.9925158869E+00
   -5.9701558466E+00   -5.9479620483E+00   -5.9259326427E+00   -5.9040658078E+00
   -5.8823597488E+00   -5.8608126974E+00   -5.8394229113E+00   -5.8181886739E+00
   -5.7971082937E+00   -5.7761801042E+00   -5.7554024628E+00   -5.7347737495E+00
   -5.7142923715E+00   -5.6939567621E+00   -5.6737653756E+00   -5.6537166860E+00
   -5.6338091856E+00   -5.6140413875E+00   -5.5944118266E+00   -5.5749190579E+00
   -5.5555616564E+00   -5.5363382169E+00   -5.5172473535E+00   -5.4982876996E+00
   -5.4794579069E+00   -5.4607566460E+00   -5.4421826051E+00   -5.4237344906E+00
   -5.4054110261E+00   -5.3872109526E+00   -5.3691330278E+00   -5.3511760261E+00
   -5.3333387383E+00   -5.3156199713E+00   -5.2980185476E+00   -5.2805333054E+00
   -5.2631630982E+00   -5.2459067946E+00   -5.2287632776E+00   -5.2117314454E+00
   -5.1948102098E+00   -5.1779984973E+00   -5.1612952479E+00   -5.1446994153E+00
   -5.1282099667E+00   -5.1118258823E+00   -5.0955461556E+00   -5.0793697926E+00
   -5.0632958120E+00   -5.0473232450E+00   -5.0314511346E+00   -5.0156785363E+00
   -5.0000045171E+00   -4.9844281557E+00   -4.9689485422E+00   -4.9535647780E+00
   -4.9382759756E+00   -4.9230812585E+00   -4.9079797608E+00   -4.8929706273E+00
   -4.8780530132E+00   -4.8632260840E+00   -4.8484890152E+00   -4.8338409925E+00
   -4.8192812111E+00   -4.8048088761E+00   -4.7904232020E+00   -4.7761234128E+00
   -4.7619087416E+00   -4.7477784308E+00   -4.7337317315E+00   -4.7197679038E+00
   -4.7058862165E+00   -4.6920859469E+00   -4.6783663809E+00   -4.6647268126E+00
   -4.6511665442E+00   -4.6376848864E+00   -4.6242811574E+00   -4.6109546835E+00
   -4.5977047987E+00   -4.5845308447E+00   -4.5714321706E+00   -4.5584081330E+00
   -4.5454580958E+00   -4.5325814301E+00   -4.5197775141E+00   -4.5070457329E+00
   -4.4943854788E+00   -4.4817961507E+00   -4.4692771541E+00   -4.4568279014E+00
   -4.4444478114E+00   -4.4321363093E+00   -4.4198928266E+00   -4.4077168013E+00
   -4.3956076774E+00   -4.3835649050E+00   -4.3715879402E+00   -4.3596762451E+00
   -4.3478292876E+00   -4.3360465414E+00   -4.3243274858E+00   -4.3126716059E+00
   -4.3010783921E+00   -4.2895473403E+00   -4.2780779521E+00   -4.2666697341E+00
   -4.2553221982E+00   -4.2440348615E+00   -4.2328072463E+00   -4.2216388798E+00
   -4.2105292943E+00   -4.1994780269E+00   -4.1884846196E+00   -4.1775486193E+00
   -4.1666695774E+00   -4.1558470501E+00   -4.1450805981E+00   -4.1343697868E+00
   -4.1237141860E+00   -4.1131133698E+00   -4.1025669169E+00   -4.0920744101E+00
   -4.0816354365E+00   -4.0712495876E+00   -4.0609164588E+00   -4.0506356498E+00
   -4.0404067640E+00   -4.0302294093E+00   -4.0201031971E+00   -4.0100277429E+00
   -4.0000026661E+00   -3.9900275897E+00   -3.9801021406E+00   -3.9702259494E+00
   -3.9603986503E+00   -3.9506198811E+00   -3.9408892833E+00   -3.9312065017E+00
   -3.9215711848E+00   -3.9119829844E+00   -3.9024415558E+00   -3.8929465575E+00
   -3.8834976515E+00   -3.8740945030E+00   -3.8647367804E+00   -3.8554241552E+00
   -3.8461563024E+00   -3.8369328997E+00   -3.8277536282E+00   -3.8186181719E+00
   -3.8095262178E+00   -3.8004774559E+00   -3.7914715792E+00   -3.7825082835E+00