<UPF version="2.0.1">
  <PP_INFO>

 This pseudopotential file has been produced using the code
 ONCVPSP  (Optimized Norm-Conservinng Vanderbilt PSeudopotential)
 fully-relativistic version 4.0.1 06/04/2019 by D. R. Hamann
 The code is available through a link at URL www.mat-simresearch.com.
 Documentation with the package provides a full discription of the
 input data below.


 While it is not required under the terms of the GNU GPL, it is
 suggested that you cite D. R. Hamann, Phys. Rev. B 88, 085117 (2013)
 in any publication using these pseudopotentials.

    <PP_INPUTFILE>
# ATOM AND REFERENCE CONFIGURATION
# atsym  z   nc   nv     iexc    psfile
  Ar 18.00    3    2   -1012      both
#
#   n    l    f        energy (Ha)
    1    0    2.00
    2    0    2.00
    2    1    6.00
    3    0    2.00
    3    1    6.00
#
# PSEUDOPOTENTIAL AND OPTIMIZATION
# lmax
    2
#
#   l,   rc,     ep,   ncon, nbas, qcut
    0   1.55000   0.00000    4    8   8.20000
    1   1.55000   0.00000    4    8   8.20000
    2   1.55000   0.10000    4    8   8.20000
#
# LOCAL POTENTIAL
# lloc, lpopt,  rc(5),   dvloc0
    4    5   1.50000      0.00000
#
# VANDERBILT-KLEINMAN-BYLANDER PROJECTORs
# l, nproj, debl
    0    2   1.50000
    1    2   1.50000
    2    2   1.00000
#
# MODEL CORE CHARGE
# icmod, fcfact, rcfact
    3   7.00000   1.25000
#
# LOG DERIVATIVE ANALYSIS
# epsh1, epsh2, depsh
  -12.00   12.00    0.02
#
# OUTPUT GRID
# rlmax, drl
    4.00    0.01
#
# TEST CONFIGURATIONS
# ncnf
    0
# nvcnf
#   n    l    f
    </PP_INPUTFILE>
  </PP_INFO>
  <!--                               -->
  <!-- END OF HUMAN READABLE SECTION -->
  <!--                               -->
    <PP_HEADER
       generated="Generated using ONCVPSP code by D. R. Hamann"
       author="anonymous"
       date="250925"
       comment=""
       element="Ar"
       pseudo_type="NC"
       relativistic="full"
       is_ultrasoft="F"
       is_paw="F"
       is_coulomb="F"
       has_so="T"
       has_wfc="F"
       has_gipaw="F"
       core_correction="T"
       functional="SLA  PW   NOGX NOGC"
       z_valence="    8.00"
       total_psenergy="  -4.23839584382E+01"
       rho_cutoff="   9.33000000000E+00"
       l_max="2"
       l_local="-1"
       mesh_size="   934"
       number_of_wfc="3"
       number_of_proj="10"/>
 <PP_MESH>
   <PP_R type="real"  size=" 934" columns="8">
    0.0000    0.0100    0.0200    0.0300    0.0400    0.0500    0.0600    0.0700
    0.0800    0.0900    0.1000    0.1100    0.1200    0.1300    0.1400    0.1500
    0.1600    0.1700    0.1800    0.1900    0.2000    0.2100    0.2200    0.2300
    0.2400    0.2500    0.2600    0.2700    0.2800    0.2900    0.3000    0.3100
    0.3200    0.3300    0.3400    0.3500    0.3600    0.3700    0.3800    0.3900
    0.4000    0.4100    0.4200    0.4300    0.4400    0.4500    0.4600    0.4700
    0.4800    0.4900    0.5000    0.5100    0.5200    0.5300    0.5400    0.5500
    0.5600    0.5700    0.5800    0.5900    0.6000    0.6100    0.6200    0.6300
    0.6400    0.6500    0.6600    0.6700    0.6800    0.6900    0.7000    0.7100
    0.7200    0.7300    0.7400    0.7500    0.7600    0.7700    0.7800    0.7900
    0.8000    0.8100    0.8200    0.8300    0.8400    0.8500    0.8600    0.8700
    0.8800    0.8900    0.9000    0.9100    0.9200    0.9300    0.9400    0.9500
    0.9600    0.9700    0.9800    0.9900    1.0000    1.0100    1.0200    1.0300
    1.0400    1.0500    1.0600    1.0700    1.0800    1.0900    1.1000    1.1100
    1.1200    1.1300    1.1400    1.1500    1.1600    1.1700    1.1800    1.1900
    1.2000    1.2100    1.2200    1.2300    1.2400    1.2500    1.2600    1.2700
    1.2800    1.2900    1.3000    1.3100    1.3200    1.3300    1.3400    1.3500
    1.3600    1.3700    1.3800    1.3900    1.4000    1.4100    1.4200    1.4300
    1.4400    1.4500    1.4600    1.4700    1.4800    1.4900    1.5000    1.5100
    1.5200    1.5300    1.5400    1.5500    1.5600    1.5700    1.5800    1.5900
    1.6000    1.6100    1.6200    1.6300    1.6400    1.6500    1.6600    1.6700
    1.6800    1.6900    1.7000    1.7100    1.7200    1.7300    1.7400    1.7500
    1.7600    1.7700    1.7800    1.7900    1.8000    1.8100    1.8200    1.8300
    1.8400    1.8500    1.8600    1.8700    1.8800    1.8900    1.9000    1.9100
    1.9200    1.9300    1.9400    1.9500    1.9600    1.9700    1.9800    1.9900
    2.0000    2.0100    2.0200    2.0300    2.0400    2.0500    2.0600    2.0700
    2.0800    2.0900    2.1000    2.1100    2.1200    2.1300    2.1400    2.1500
    2.1600    2.1700    2.1800    2.1900    2.2000    2.2100    2.2200    2.2300
    2.2400    2.2500    2.2600    2.2700    2.2800    2.2900    2.3000    2.3100
    2.3200    2.3300    2.3400    2.3500    2.3600    2.3700    2.3800    2.3900
    2.4000    2.4100    2.4200    2.4300    2.4400    2.4500    2.4600    2.4700
    2.4800    2.4900    2.5000    2.5100    2.5200    2.5300    2.5400    2.5500
    2.5600    2.5700    2.5800    2.5900    2.6000    2.6100    2.6200    2.6300
    2.6400    2.6500    2.6600    2.6700    2.6800    2.6900    2.7000    2.7100
    2.7200    2.7300    2.7400    2.7500    2.7600    2.7700    2.7800    2.7900
    2.8000    2.8100    2.8200    2.8300    2.8400    2.8500    2.8600    2.8700
    2.8800    2.8900    2.9000    2.9100    2.9200    2.9300    2.9400    2.9500
    2.9600    2.9700    2.9800    2.9900    3.0000    3.0100    3.0200    3.0300
    3.0400    3.0500    3.0600    3.0700    3.0800    3.0900    3.1000    3.1100
    3.1200    3.1300    3.1400    3.1500    3.1600    3.1700    3.1800    3.1900
    3.2000    3.2100    3.2200    3.2300    3.2400    3.2500    3.2600    3.2700
    3.2800    3.2900    3.3000    3.3100    3.3200    3.3300    3.3400    3.3500
    3.3600    3.3700    3.3800    3.3900    3.4000    3.4100    3.4200    3.4300
    3.4400    3.4500    3.4600    3.4700    3.4800    3.4900    3.5000    3.5100
    3.5200    3.5300    3.5400    3.5500    3.5600    3.5700    3.5800    3.5900
    3.6000    3.6100    3.6200    3.6300    3.6400    3.6500    3.6600    3.6700
    3.6800    3.6900    3.7000    3.7100    3.7200    3.7300    3.7400    3.7500
    3.7600    3.7700    3.7800    3.7900    3.8000    3.8100    3.8200    3.8300
    3.8400    3.8500    3.8600    3.8700    3.8800    3.8900    3.9000    3.9100
    3.9200    3.9300    3.9400    3.9500    3.9600    3.9700    3.9800    3.9900
    4.0000    4.0100    4.0200    4.0300    4.0400    4.0500    4.0600    4.0700
    4.0800    4.0900    4.1000    4.1100    4.1200    4.1300    4.1400    4.1500
    4.1600    4.1700    4.1800    4.1900    4.2000    4.2100    4.2200    4.2300
    4.2400    4.2500    4.2600    4.2700    4.2800    4.2900    4.3000    4.3100
    4.3200    4.3300    4.3400    4.3500    4.3600    4.3700    4.3800    4.3900
    4.4000    4.4100    4.4200    4.4300    4.4400    4.4500    4.4600    4.4700
    4.4800    4.4900    4.5000    4.5100    4.5200    4.5300    4.5400    4.5500
    4.5600    4.5700    4.5800    4.5900    4.6000    4.6100    4.6200    4.6300
    4.6400    4.6500    4.6600    4.6700    4.6800    4.6900    4.7000    4.7100
    4.7200    4.7300    4.7400    4.7500    4.7600    4.7700    4.7800    4.7900
    4.8000    4.8100    4.8200    4.8300    4.8400    4.8500    4.8600    4.8700
    4.8800    4.8900    4.9000    4.9100    4.9200    4.9300    4.9400    4.9500
    4.9600    4.9700    4.9800    4.9900    5.0000    5.0100    5.0200    5.0300
    5.0400    5.0500    5.0600    5.0700    5.0800    5.0900    5.1000    5.1100
    5.1200    5.1300    5.1400    5.1500    5.1600    5.1700    5.1800    5.1900
    5.2000    5.2100    5.2200    5.2300    5.2400    5.2500    5.2600    5.2700
    5.2800    5.2900    5.3000    5.3100    5.3200    5.3300    5.3400    5.3500
    5.3600    5.3700    5.3800    5.3900    5.4000    5.4100    5.4200    5.4300
    5.4400    5.4500    5.4600    5.4700    5.4800    5.4900    5.5000    5.5100
    5.5200    5.5300    5.5400    5.5500    5.5600    5.5700    5.5800    5.5900
    5.6000    5.6100    5.6200    5.6300    5.6400    5.6500    5.6600    5.6700
    5.6800    5.6900    5.7000    5.7100    5.7200    5.7300    5.7400    5.7500
    5.7600    5.7700    5.7800    5.7900    5.8000    5.8100    5.8200    5.8300
    5.8400    5.8500    5.8600    5.8700    5.8800    5.8900    5.9000    5.9100
    5.9200    5.9300    5.9400    5.9500    5.9600    5.9700    5.9800    5.9900
    6.0000    6.0100    6.0200    6.0300    6.0400    6.0500    6.0600    6.0700
    6.0800    6.0900    6.1000    6.1100    6.1200    6.1300    6.1400    6.1500
    6.1600    6.1700    6.1800    6.1900    6.2000    6.2100    6.2200    6.2300
    6.2400    6.2500    6.2600    6.2700    6.2800    6.2900    6.3000    6.3100
    6.3200    6.3300    6.3400    6.3500    6.3600    6.3700    6.3800    6.3900
    6.4000    6.4100    6.4200    6.4300    6.4400    6.4500    6.4600    6.4700
    6.4800    6.4900    6.5000    6.5100    6.5200    6.5300    6.5400    6.5500
    6.5600    6.5700    6.5800    6.5900    6.6000    6.6100    6.6200    6.6300
    6.6400    6.6500    6.6600    6.6700    6.6800    6.6900    6.7000    6.7100
    6.7200    6.7300    6.7400    6.7500    6.7600    6.7700    6.7800    6.7900
    6.8000    6.8100    6.8200    6.8300    6.8400    6.8500    6.8600    6.8700
    6.8800    6.8900    6.9000    6.9100    6.9200    6.9300    6.9400    6.9500
    6.9600    6.9700    6.9800    6.9900    7.0000    7.0100    7.0200    7.0300
    7.0400    7.0500    7.0600    7.0700    7.0800    7.0900    7.1000    7.1100
    7.1200    7.1300    7.1400    7.1500    7.1600    7.1700    7.1800    7.1900
    7.2000    7.2100    7.2200    7.2300    7.2400    7.2500    7.2600    7.2700
    7.2800    7.2900    7.3000    7.3100    7.3200    7.3300    7.3400    7.3500
    7.3600    7.3700    7.3800    7.3900    7.4000    7.4100    7.4200    7.4300
    7.4400    7.4500    7.4600    7.4700    7.4800    7.4900    7.5000    7.5100
    7.5200    7.5300    7.5400    7.5500    7.5600    7.5700    7.5800    7.5900
    7.6000    7.6100    7.6200    7.6300    7.6400    7.6500    7.6600    7.6700
    7.6800    7.6900    7.7000    7.7100    7.7200    7.7300    7.7400    7.7500
    7.7600    7.7700    7.7800    7.7900    7.8000    7.8100    7.8200    7.8300
    7.8400    7.8500    7.8600    7.8700    7.8800    7.8900    7.9000    7.9100
    7.9200    7.9300    7.9400    7.9500    7.9600    7.9700    7.9800    7.9900
    8.0000    8.0100    8.0200    8.0300    8.0400    8.0500    8.0600    8.0700
    8.0800    8.0900    8.1000    8.1100    8.1200    8.1300    8.1400    8.1500
    8.1600    8.1700    8.1800    8.1900    8.2000    8.2100    8.2200    8.2300
    8.2400    8.2500    8.2600    8.2700    8.2800    8.2900    8.3000    8.3100
    8.3200    8.3300    8.3400    8.3500    8.3600    8.3700    8.3800    8.3900
    8.4000    8.4100    8.4200    8.4300    8.4400    8.4500    8.4600    8.4700
    8.4800    8.4900    8.5000    8.5100    8.5200    8.5300    8.5400    8.5500
    8.5600    8.5700    8.5800    8.5900    8.6000    8.6100    8.6200    8.6300
    8.6400    8.6500    8.6600    8.6700    8.6800    8.6900    8.7000    8.7100
    8.7200    8.7300    8.7400    8.7500    8.7600    8.7700    8.7800    8.7900
    8.8000    8.8100    8.8200    8.8300    8.8400    8.8500    8.8600    8.8700
    8.8800    8.8900    8.9000    8.9100    8.9200    8.9300    8.9400    8.9500
    8.9600    8.9700    8.9800    8.9900    9.0000    9.0100    9.0200    9.0300
    9.0400    9.0500    9.0600    9.0700    9.0800    9.0900    9.1000    9.1100
    9.1200    9.1300    9.1400    9.1500    9.1600    9.1700    9.1800    9.1900
    9.2000    9.2100    9.2200    9.2300    9.2400    9.2500    9.2600    9.2700
    9.2800    9.2900    9.3000    9.3100    9.3200    9.3300
   </PP_R>
   <PP_RAB type="real"  size=" 934" columns="8">
    0.0100    0.0100    0.0100    0.0100    0.0100    0.0100    0.0100    0.0100
    0.0100    0.0100    0.0100    0.0100    0.0100    0.0100    0.0100    0.0100
    0.0100    0.0100    0.0100    0.0100    0.0100    0.0100    0.0100    0.0100
    0.0100    0.0100    0.0100    0.0100    0.0100    0.0100    0.0100    0.0100
    0.0100    0.0100    0.0100    0.0100    0.0100    0.0100    0.0100    0.0100
    0.0100    0.0100    0.0100    0.0100    0.0100    0.0100    0.0100    0.0100
    0.0100    0.0100    0.0100    0.0100    0.0100    0.0100    0.0100    0.0100
    0.0100    0.0100    0.0100    0.0100    0.0100    0.0100    0.0100    0.0100
    0.0100    0.0100    0.0100    0.0100    0.0100    0.0100    0.0100    0.0100
    0.0100    0.0100    0.0100    0.0100    0.0100    0.0100    0.0100    0.0100
    0.0100    0.0100    0.0100    0.0100    0.0100    0.0100    0.0100    0.0100
    0.0100    0.0100    0.0100    0.0100    0.0100    0.0100    0.0100    0.0100
    0.0100    0.0100    0.0100    0.0100    0.0100    0.0100    0.0100    0.0100
    0.0100    0.0100    0.0100    0.0100    0.0100    0.0100    0.0100    0.0100
    0.0100    0.0100    0.0100    0.0100    0.0100    0.0100    0.0100    0.0100
    0.0100    0.0100    0.0100    0.0100    0.0100    0.0100    0.0100    0.0100
    0.0100    0.0100    0.0100    0.0100    0.0100    0.0100    0.0100    0.0100
    0.0100    0.0100    0.0100    0.0100    0.0100    0.0100    0.0100    0.0100
    0.0100    0.0100    0.0100    0.0100    0.0100    0.0100    0.0100    0.0100
    0.0100    0.0100    0.0100    0.0100    0.0100    0.0100    0.0100    0.0100
    0.0100    0.0100    0.0100    0.0100    0.0100    0.0100    0.0100    0.0100
    0.0100    0.0100    0.0100    0.0100    0.0100    0.0100    0.0100    0.0100
    0.0100    0.0100    0.0100    0.0100    0.0100    0.0100    0.0100    0.0100
    0.0100    0.0100    0.0100    0.0100    0.0100    0.0100    0.0100    0.0100
    0.0100    0.0100    0.0100    0.0100    0.0100    0.0100    0.0100    0.0100
    0.0100    0.0100    0.0100    0.0100    0.0100    0.0100    0.0100    0.0100
    0.0100    0.0100    0.0100    0.0100    0.0100    0.0100    0.0100    0.0100
    0.0100    0.0100    0.0100    0.0100    0.0100    0.0100    0.0100    0.0100
    0.0100    0.0100    0.0100    0.0100    0.0100    0.0100    0.0100    0.0100
    0.0100    0.0100    0.0100    0.0100    0.0100    0.0100    0.0100    0.0100
    0.0100    0.0100    0.0100    0.0100    0.0100    0.0100    0.0100    0.0100
    0.0100    0.0100    0.0100    0.0100    0.0100    0.0100    0.0100    0.0100
    0.0100    0.0100    0.0100    0.0100    0.0100    0.0100    0.0100    0.0100
    0.0100    0.0100    0.0100    0.0100    0.0100    0.0100    0.0100    0.0100
    0.0100    0.0100    0.0100    0.0100    0.0100    0.0100    0.0100    0.0100
    0.0100    0.0100    0.0100    0.0100    0.0100    0.0100    0.0100    0.0100
    0.0100    0.0100    0.0100    0.0100    0.0100    0.0100    0.0100    0.0100
    0.0100    0.0100    0.0100    0.0100    0.0100    0.0100    0.0100    0.0100
    0.0100    0.0100    0.0100    0.0100    0.0100    0.0100    0.0100    0.0100
    0.0100    0.0100    0.0100    0.0100    0.0100    0.0100    0.0100    0.0100
    0.0100    0.0100    0.0100    0.0100    0.0100    0.0100    0.0100    0.0100
    0.0100    0.0100    0.0100    0.0100    0.0100    0.0100    0.0100    0.0100
    0.0100    0.0100    0.0100    0.0100    0.0100    0.0100    0.0100    0.0100
    0.0100    0.0100    0.0100    0.0100    0.0100    0.0100    0.0100    0.0100
    0.0100    0.0100    0.0100    0.0100    0.0100    0.0100    0.0100    0.0100
    0.0100    0.0100    0.0100    0.0100    0.0100    0.0100    0.0100    0.0100
    0.0100    0.0100    0.0100    0.0100    0.0100    0.0100    0.0100    0.0100
    0.0100    0.0100    0.0100    0.0100    0.0100    0.0100    0.0100    0.0100
    0.0100    0.0100    0.0100    0.0100    0.0100    0.0100    0.0100    0.0100
    0.0100    0.0100    0.0100    0.0100    0.0100    0.0100    0.0100    0.0100
    0.0100    0.0100    0.0100    0.0100    0.0100    0.0100    0.0100    0.0100
    0.0100    0.0100    0.0100    0.0100    0.0100    0.0100    0.0100    0.0100
    0.0100    0.0100    0.0100    0.0100    0.0100    0.0100    0.0100    0.0100
    0.0100    0.0100    0.0100    0.0100    0.0100    0.0100    0.0100    0.0100
    0.0100    0.0100    0.0100    0.0100    0.0100    0.0100    0.0100    0.0100
    0.0100    0.0100    0.0100    0.0100    0.0100    0.0100    0.0100    0.0100
    0.0100    0.0100    0.0100    0.0100    0.0100    0.0100    0.0100    0.0100
    0.0100    0.0100    0.0100    0.0100    0.0100    0.0100    0.0100    0.0100
    0.0100    0.0100    0.0100    0.0100    0.0100    0.0100    0.0100    0.0100
    0.0100    0.0100    0.0100    0.0100    0.0100    0.0100    0.0100    0.0100
    0.0100    0.0100    0.0100    0.0100    0.0100    0.0100    0.0100    0.0100
    0.0100    0.0100    0.0100    0.0100    0.0100    0.0100    0.0100    0.0100
    0.0100    0.0100    0.0100    0.0100    0.0100    0.0100    0.0100    0.0100
    0.0100    0.0100    0.0100    0.0100    0.0100    0.0100    0.0100    0.0100
    0.0100    0.0100    0.0100    0.0100    0.0100    0.0100    0.0100    0.0100
    0.0100    0.0100    0.0100    0.0100    0.0100    0.0100    0.0100    0.0100
    0.0100    0.0100    0.0100    0.0100    0.0100    0.0100    0.0100    0.0100
    0.0100    0.0100    0.0100    0.0100    0.0100    0.0100    0.0100    0.0100
    0.0100    0.0100    0.0100    0.0100    0.0100    0.0100    0.0100    0.0100
    0.0100    0.0100    0.0100    0.0100    0.0100    0.0100    0.0100    0.0100
    0.0100    0.0100    0.0100    0.0100    0.0100    0.0100    0.0100    0.0100
    0.0100    0.0100    0.0100    0.0100    0.0100    0.0100    0.0100    0.0100
    0.0100    0.0100    0.0100    0.0100    0.0100    0.0100    0.0100    0.0100
    0.0100    0.0100    0.0100    0.0100    0.0100    0.0100    0.0100    0.0100
    0.0100    0.0100    0.0100    0.0100    0.0100    0.0100    0.0100    0.0100
    0.0100    0.0100    0.0100    0.0100    0.0100    0.0100    0.0100    0.0100
    0.0100    0.0100    0.0100    0.0100    0.0100    0.0100    0.0100    0.0100
    0.0100    0.0100    0.0100    0.0100    0.0100    0.0100    0.0100    0.0100
    0.0100    0.0100    0.0100    0.0100    0.0100    0.0100    0.0100    0.0100
    0.0100    0.0100    0.0100    0.0100    0.0100    0.0100    0.0100    0.0100
    0.0100    0.0100    0.0100    0.0100    0.0100    0.0100    0.0100    0.0100
    0.0100    0.0100    0.0100    0.0100    0.0100    0.0100    0.0100    0.0100
    0.0100    0.0100    0.0100    0.0100    0.0100    0.0100    0.0100    0.0100
    0.0100    0.0100    0.0100    0.0100    0.0100    0.0100    0.0100    0.0100
    0.0100    0.0100    0.0100    0.0100    0.0100    0.0100    0.0100    0.0100
    0.0100    0.0100    0.0100    0.0100    0.0100    0.0100    0.0100    0.0100
    0.0100    0.0100    0.0100    0.0100    0.0100    0.0100    0.0100    0.0100
    0.0100    0.0100    0.0100    0.0100    0.0100    0.0100    0.0100    0.0100
    0.0100    0.0100    0.0100    0.0100    0.0100    0.0100    0.0100    0.0100
    0.0100    0.0100    0.0100    0.0100    0.0100    0.0100    0.0100    0.0100
    0.0100    0.0100    0.0100    0.0100    0.0100    0.0100    0.0100    0.0100
    0.0100    0.0100    0.0100    0.0100    0.0100    0.0100    0.0100    0.0100
    0.0100    0.0100    0.0100    0.0100    0.0100    0.0100    0.0100    0.0100
    0.0100    0.0100    0.0100    0.0100    0.0100    0.0100    0.0100    0.0100
    0.0100    0.0100    0.0100    0.0100    0.0100    0.0100    0.0100    0.0100
    0.0100    0.0100    0.0100    0.0100    0.0100    0.0100    0.0100    0.0100
    0.0100    0.0100    0.0100    0.0100    0.0100    0.0100    0.0100    0.0100
    0.0100    0.0100    0.0100    0.0100    0.0100    0.0100    0.0100    0.0100
    0.0100    0.0100    0.0100    0.0100    0.0100    0.0100    0.0100    0.0100
    0.0100    0.0100    0.0100    0.0100    0.0100    0.0100    0.0100    0.0100
    0.0100    0.0100    0.0100    0.0100    0.0100    0.0100    0.0100    0.0100
    0.0100    0.0100    0.0100    0.0100    0.0100    0.0100    0.0100    0.0100
    0.0100    0.0100    0.0100    0.0100    0.0100    0.0100    0.0100    0.0100
    0.0100    0.0100    0.0100    0.0100    0.0100    0.0100    0.0100    0.0100
    0.0100    0.0100    0.0100    0.0100    0.0100    0.0100    0.0100    0.0100
    0.0100    0.0100    0.0100    0.0100    0.0100    0.0100    0.0100    0.0100
    0.0100    0.0100    0.0100    0.0100    0.0100    0.0100    0.0100    0.0100
    0.0100    0.0100    0.0100    0.0100    0.0100    0.0100    0.0100    0.0100
    0.0100    0.0100    0.0100    0.0100    0.0100    0.0100    0.0100    0.0100
    0.0100    0.0100    0.0100    0.0100    0.0100    0.0100    0.0100    0.0100
    0.0100    0.0100    0.0100    0.0100    0.0100    0.0100    0.0100    0.0100
    0.0100    0.0100    0.0100    0.0100    0.0100    0.0100    0.0100    0.0100
    0.0100    0.0100    0.0100    0.0100    0.0100    0.0100    0.0100    0.0100
    0.0100    0.0100    0.0100    0.0100    0.0100    0.0100    0.0100    0.0100
    0.0100    0.0100    0.0100    0.0100    0.0100    0.0100    0.0100    0.0100
    0.0100    0.0100    0.0100    0.0100    0.0100    0.0100    0.0100    0.0100
    0.0100    0.0100    0.0100    0.0100    0.0100    0.0100
   </PP_RAB>
 </PP_MESH>
  <PP_LOCAL type="real"  size=" 934" columns="4">
   -2.1520235943E+01   -2.1519653543E+01   -2.1517906218E+01   -2.1514993607E+01
   -2.1510915104E+01   -2.1505669866E+01   -2.1499256804E+01   -2.1491674588E+01
   -2.1482921649E+01   -2.1472996172E+01   -2.1461896101E+01   -2.1449619141E+01
   -2.1436162751E+01   -2.1421524154E+01   -2.1405700329E+01   -2.1388688018E+01
   -2.1370483725E+01   -2.1351083718E+01   -2.1330484033E+01   -2.1308680474E+01
   -2.1285668620E+01   -2.1261443824E+01   -2.1236001225E+01   -2.1209335749E+01
   -2.1181442114E+01   -2.1152314844E+01   -2.1121948272E+01   -2.1090336552E+01
   -2.1057473671E+01   -2.1023353458E+01   -2.0987969601E+01   -2.0951315662E+01
   -2.0913385091E+01   -2.0874171246E+01   -2.0833667415E+01   -2.0791866832E+01
   -2.0748762706E+01   -2.0704348247E+01   -2.0658616687E+01   -2.0611561317E+01
   -2.0563175514E+01   -2.0513452777E+01   -2.0462386764E+01   -2.0409971328E+01
   -2.0356200559E+01   -2.0301068828E+01   -2.0244570834E+01   -2.0186701648E+01
   -2.0127456768E+01   -2.0066832170E+01   -2.0004824361E+01   -1.9941430440E+01
   -1.9876648157E+01   -1.9810475972E+01   -1.9742913121E+01   -1.9673959678E+01
   -1.9603616624E+01   -1.9531885909E+01   -1.9458770526E+01   -1.9384274572E+01
   -1.9308403318E+01   -1.9231163275E+01   -1.9152562260E+01   -1.9072609456E+01
   -1.8991315471E+01   -1.8908692399E+01   -1.8824753870E+01   -1.8739515095E+01
   -1.8652992914E+01   -1.8565205826E+01   -1.8476174025E+01   -1.8385919415E+01
   -1.8294465631E+01   -1.8201838040E+01   -1.8108063739E+01   -1.8013171546E+01
   -1.7917191974E+01   -1.7820157208E+01   -1.7722101058E+01   -1.7623058917E+01
   -1.7523067698E+01   -1.7422165776E+01   -1.7320392908E+01   -1.7217790161E+01
   -1.7114399818E+01   -1.7010265292E+01   -1.6905431026E+01   -1.6799942395E+01
   -1.6693845602E+01   -1.6587187573E+01   -1.6480015846E+01   -1.6372378473E+01
   -1.6264323903E+01   -1.6155900884E+01   -1.6047158354E+01   -1.5938145342E+01
   -1.5828910869E+01   -1.5719503851E+01   -1.5609973009E+01   -1.5500366779E+01
   -1.5390733230E+01   -1.5281119983E+01   -1.5171574136E+01   -1.5062142197E+01
   -1.4952870009E+01   -1.4843802696E+01   -1.4734984601E+01   -1.4626459232E+01
   -1.4518269215E+01   -1.4410456240E+01   -1.4303061026E+01   -1.4196123275E+01
   -1.4089681640E+01   -1.3983773685E+01   -1.3878435858E+01   -1.3773703460E+01
   -1.3669610617E+01   -1.3566190255E+01   -1.3463474076E+01   -1.3361492539E+01
   -1.3260274835E+01   -1.3159848871E+01   -1.3060241248E+01   -1.2961477247E+01
   -1.2863580813E+01   -1.2766574533E+01   -1.2670479630E+01   -1.2575315938E+01
   -1.2481101897E+01   -1.2387854533E+01   -1.2295589444E+01   -1.2204320791E+01
   -1.2114061278E+01   -1.2024822144E+01   -1.1936613147E+01   -1.1849442547E+01
   -1.1763317100E+01   -1.1678242035E+01   -1.1594221047E+01   -1.1511256277E+01
   -1.1429348303E+01   -1.1348496117E+01   -1.1268697116E+01   -1.1189947085E+01
   -1.1112240176E+01   -1.1035568897E+01   -1.0959924091E+01   -1.0885294917E+01
   -1.0811668837E+01   -1.0739031589E+01   -1.0667367179E+01   -1.0596657844E+01
   -1.0526884674E+01   -1.0458028891E+01   -1.0390072243E+01   -1.0322996977E+01
   -1.0256785831E+01   -1.0191422025E+01   -1.0126889224E+01   -1.0063171498E+01
   -1.0000253312E+01   -9.9381195156E+00   -9.8767553375E+00   -9.8161463722E+00
   -9.7562785720E+00   -9.6971382380E+00   -9.6387120108E+00   -9.5809868618E+00
   -9.5239500842E+00   -9.4675892841E+00   -9.4118923724E+00   -9.3568475559E+00
   -9.3024433292E+00   -9.2486684660E+00   -9.1955120116E+00   -9.1429632746E+00
   -9.0910118188E+00   -9.0396474562E+00   -8.9888602388E+00   -8.9386404517E+00
   -8.8889786058E+00   -8.8398654306E+00   -8.7912918678E+00   -8.7432490645E+00
   -8.6957283665E+00   -8.6487213127E+00   -8.6022196286E+00   -8.5562152206E+00
   -8.5107001706E+00   -8.4656667304E+00   -8.4211073167E+00   -8.3770145061E+00
   -8.3333810301E+00   -8.2901997709E+00   -8.2474637568E+00   -8.2051661579E+00
   -8.1633002825E+00   -8.1218595729E+00   -8.0808376021E+00   -8.0402280699E+00
   -8.0000248001E+00   -7.9602217367E+00   -7.9208129416E+00   -7.8817925910E+00
   -7.8431549732E+00   -7.8048944856E+00   -7.7670056325E+00   -7.7294830221E+00
   -7.6923213650E+00   -7.6555154709E+00   -7.6190602476E+00   -7.5829506978E+00
   -7.5471819179E+00   -7.5117490956E+00   -7.4766475081E+00   -7.4418725201E+00
   -7.4074195823E+00   -7.3732842293E+00   -7.3394620780E+00   -7.3059488258E+00
   -7.2727402491E+00   -7.2398322014E+00   -7.2072206120E+00   -7.1749014839E+00
   -7.1428708927E+00   -7.1111249849E+00   -7.0796599762E+00   -7.0484721501E+00
   -7.0175578566E+00   -6.9869135103E+00   -6.9565355894E+00   -6.9264206339E+00
   -6.8965652445E+00   -6.8669660811E+00   -6.8376198615E+00   -6.8085233597E+00
   -6.7796734054E+00   -6.7510668820E+00   -6.7227007257E+00   -6.6945719243E+00
   -6.6666775157E+00   -6.6390145873E+00   -6.6115802746E+00   -6.5843717600E+00
   -6.5573862718E+00   -6.5306210837E+00   -6.5040735129E+00   -6.4777409200E+00
   -6.4516207076E+00   -6.4257103195E+00   -6.4000072402E+00   -6.3745089934E+00
   -6.3492131418E+00   -6.3241172862E+00   -6.2992190646E+00   -6.2745161515E+00
   -6.2500062574E+00   -6.2256871280E+00   -6.2015565437E+00   -6.1776123184E+00
   -6.1538523000E+00   -6.1302743685E+00   -6.1068764366E+00   -6.0836564483E+00
   -6.0606123787E+00   -6.0377422335E+00   -6.0150440484E+00   -5.9925158886E+00
   -5.9701558482E+00   -5.9479620498E+00   -5.9259326441E+00   -5.9040658091E+00
   -5.8823597499E+00   -5.8608126984E+00   -5.8394229121E+00   -5.8181886746E+00
   -5.7971082943E+00   -5.7761801046E+00   -5.7554024630E+00   -5.7347737496E+00
   -5.7142923714E+00   -5.6939567618E+00   -5.6737653752E+00   -5.6537166855E+00
   -5.6338091849E+00   -5.6140413867E+00   -5.5944118257E+00   -5.5749190568E+00
   -5.5555616551E+00   -5.5363382155E+00   -5.5172473520E+00   -5.4982876979E+00
   -5.4794579052E+00   -5.4607566441E+00   -5.4421826031E+00   -5.4237344885E+00
   -5.4054110239E+00   -5.3872109503E+00   -5.3691330253E+00   -5.3511760236E+00
   -5.3333387357E+00   -5.3156199685E+00   -5.2980185448E+00   -5.2805333025E+00
   -5.2631630952E+00   -5.2459067915E+00   -5.2287632745E+00   -5.2117314421E+00
   -5.1948102065E+00   -5.1779984939E+00   -5.1612952444E+00   -5.1446994117E+00
   -5.1282099630E+00   -5.1118258786E+00   -5.0955461518E+00   -5.0793697887E+00
   -5.0632958081E+00   -5.0473232410E+00   -5.0314511306E+00   -5.0156785322E+00
   -5.0000045130E+00   -4.9844281515E+00   -4.9689485379E+00   -4.9535647737E+00
   -4.9382759712E+00   -4.9230812541E+00   -4.9079797563E+00   -4.8929706228E+00
   -4.8780530086E+00   -4.8632260794E+00   -4.8484890106E+00   -4.8338409877E+00
   -4.8192812063E+00   -4.8048088713E+00   -4.7904231972E+00   -4.7761234079E+00
   -4.7619087368E+00   -4.7477784259E+00   -4.7337317265E+00   -4.7197678988E+00
   -4.7058862115E+00   -4.6920859419E+00   -4.6783663759E+00   -4.6647268075E+00
   -4.6511665392E+00   -4.6376848813E+00   -4.6242811523E+00   -4.6109546784E+00
   -4.5977047936E+00   -4.5845308395E+00   -4.5714321654E+00   -4.5584081278E+00
   -4.5454580906E+00   -4.5325814249E+00   -4.5197775089E+00   -4.5070457277E+00
   -4.4943854736E+00   -4.4817961455E+00   -4.4692771489E+00   -4.4568278962E+00
   -4.4444478062E+00   -4.4321363041E+00   -4.4198928214E+00   -4.4077167962E+00
   -4.3956076723E+00   -4.3835648998E+00   -4.3715879351E+00   -4.3596762400E+00
   -4.3478292825E+00   -4.3360465363E+00   -4.3243274807E+00   -4.3126716008E+00
   -4.3010783870E+00   -4.2895473353E+00   -4.2780779471E+00   -4.2666697291E+00
   -4.2553221932E+00   -4.2440348565E+00   -4.2328072413E+00   -4.2216388748E+00
   -4.2105292893E+00   -4.1994780220E+00   -4.1884846147E+00   -4.1775486144E+00
   -4.1666695725E+00   -4.1558470453E+00   -4.1450805933E+00   -4.1343697821E+00
   -4.1237141812E+00   -4.1131133651E+00   -4.1025669122E+00   -4.0920744054E+00
   -4.0816354319E+00   -4.0712495830E+00   -4.0609164543E+00   -4.0506356452E+00
   -4.0404067595E+00   -4.0302294048E+00   -4.0201031926E+00   -4.0100277385E+00
   -4.0000026617E+00   -3.9900275853E+00   -3.9801021363E+00   -3.9702259451E+00
   -3.9603986461E+00   -3.9506198769E+00   -3.9408892791E+00   -3.9312064976E+00
   -3.9215711807E+00   -3.9119829803E+00   -3.9024415518E+00   -3.8929465535E+00
   -3.8834976476E+00   -3.8740944991E+00   -3.8647367765E+00   -3.8554241514E+00
   -3.8461562986E+00   -3.8369328960E+00   -3.8277536245E+00   -3.8186181682E+00