Ar    ONCVPSP-4.0.1  r_core=   1.55886   1.55886   1.55886
     18.0000      8.0000      250925    zatom,zion,pspd
     8   -1012   2     4   400     0    pspcod,pspxc,lmax,lloc,mmax,r2well
  3.99000000  7.00000000  0.00000000    rchrg fchrg qchrg
     2     2     2     0    nproj
     3     1           extension_switch
     3     3     0    nprojso
   0                         8.4937877666824E+00  4.3189560436311E-01
     1  0.0000000000000E+00  8.5142448646991E-11 -5.1758447527916E-10
     2  1.0000000000000E-02  6.2654025378469E-02 -3.3737966716336E-02
     3  2.0000000000000E-02  1.2520077569506E-01 -6.7365262141511E-02
     4  3.0000000000000E-02  1.8753316188732E-01 -1.0077122189853E-01
     5  4.0000000000000E-02  2.4954446754971E-01 -1.3384520166597E-01
     6  5.0000000000000E-02  3.1112853688506E-01 -1.6647660263828E-01
     7  6.0000000000000E-02  3.7217996454133E-01 -1.9855491512770E-01
     8  7.0000000000000E-02  4.3259428786009E-01 -2.2996978573393E-01
     9  8.0000000000000E-02  4.9226818197764E-01 -2.6061111299003E-01
    10  9.0000000000000E-02  5.5109965811671E-01 -2.9036917576499E-01
    11  1.0000000000000E-01  6.0898826528709E-01 -3.1913479797597E-01
    12  1.1000000000000E-01  6.6583529548034E-01 -3.4679955235069E-01
    13  1.2000000000000E-01  7.2154399229911E-01 -3.7325600509816E-01
    14  1.3000000000000E-01  7.7601976280862E-01 -3.9839800241016E-01
    15  1.4000000000000E-01  8.2917039223957E-01 -4.2212099874480E-01
    16  1.5000000000000E-01  8.8090626101079E-01 -4.4432242585588E-01
    17  1.6000000000000E-01  9.3114056338032E-01 -4.6490210054560E-01
    18  1.7000000000000E-01  9.7978952687776E-01 -4.8376266815360E-01
    19  1.8000000000000E-01  1.0267726315221E+00 -5.0081007787007E-01
    20  1.9000000000000E-01  1.0720128276911E+00 -5.1595408509301E-01
    21  2.0000000000000E-01  1.1154367513840E+00 -5.2910877525757E-01
    22  2.1000000000000E-01  1.1569749355081E+00 -5.4019310286279E-01
    23  2.2000000000000E-01  1.1965620157315E+00 -5.4913143882382E-01
    24  2.3000000000000E-01  1.2341369293728E+00 -5.5585411879783E-01
    25  2.4000000000000E-01  1.2696431057483E+00 -5.6029798477809E-01
    26  2.5000000000000E-01  1.3030286463757E+00 -5.6240691203421E-01
    27  2.6000000000000E-01  1.3342464934317E+00 -5.6213231339886E-01
    28  2.7000000000000E-01  1.3632545848832E+00 -5.5943361296930E-01
    29  2.8000000000000E-01  1.3900159947659E+00 -5.5427868150350E-01
    30  2.9000000000000E-01  1.4144990571555E+00 -5.4664422614390E-01
    31  3.0000000000000E-01  1.4366774724761E+00 -5.3651612759318E-01
    32  3.1000000000000E-01  1.4565303949132E+00 -5.2388971848693E-01
    33  3.2000000000000E-01  1.4740424998377E+00 -5.0876999744865E-01
    34  3.3000000000000E-01  1.4892040303144E+00 -4.9117177416073E-01
    35  3.4000000000000E-01  1.5020108219409E+00 -4.7111974172785E-01
    36  3.5000000000000E-01  1.5124643054600E+00 -4.4864847362864E-01
    37  3.6000000000000E-01  1.5205714867904E+00 -4.2380234363187E-01
    38  3.7000000000000E-01  1.5263449043327E+00 -3.9663536817510E-01
    39  3.8000000000000E-01  1.5298025636233E+00 -3.6721097184772E-01
    40  3.9000000000000E-01  1.5309678496289E+00 -3.3560167776510E-01
    41  4.0000000000000E-01  1.5298694171877E+00 -3.0188872574790E-01
    42  4.1000000000000E-01  1.5265410603142E+00 -2.6616162230825E-01
    43  4.2000000000000E-01  1.5210215612866E+00 -2.2851762747387E-01
    44  4.3000000000000E-01  1.5133545206234E+00 -1.8906118443394E-01
    45  4.4000000000000E-01  1.5035881692311E+00 -1.4790329884701E-01
    46  4.5000000000000E-01  1.4917751641601E+00 -1.0516087539936E-01
    47  4.6000000000000E-01  1.4779723695412E+00 -6.0956019822902E-02
    48  4.7000000000000E-01  1.4622406243897E+00 -1.5415315068135E-02
    49  4.8000000000000E-01  1.4446444990512E+00  3.1330919333499E-02
    50  4.9000000000000E-01  1.4252520421284E+00  7.9149375497948E-02
    51  5.0000000000000E-01  1.4041345197632E+00  1.2790450375848E-01
    52  5.1000000000000E-01  1.3813661491605E+00  1.7745924845934E-01
    53  5.2000000000000E-01  1.3570238282222E+00  2.2767576414262E-01
    54  5.3000000000000E-01  1.3311868631184E+00  2.7841610373977E-01
    55  5.4000000000000E-01  1.3039366955525E+00  3.2954287096664E-01
    56  5.5000000000000E-01  1.2753566313884E+00  3.8091982984440E-01
    57  5.6000000000000E-01  1.2455315721918E+00  4.3241246511822E-01
    58  5.7000000000000E-01  1.2145477511042E+00  4.8388848830190E-01
    59  5.8000000000000E-01  1.1824924743208E+00  5.3521828512768E-01
    60  5.9000000000000E-01  1.1494538692747E+00  5.8627530130511E-01
    61  6.0000000000000E-01  1.1155206404586E+00  6.3693636467033E-01
    62  6.1000000000000E-01  1.0807818336279E+00  6.8708194301875E-01
    63  6.2000000000000E-01  1.0453266089469E+00  7.3659633813542E-01
    64  6.3000000000000E-01  1.0092440234473E+00  7.8536781774616E-01
    65  6.4000000000000E-01  9.7262282298702E-01  8.3328868828855E-01
    66  6.5000000000000E-01  9.3555124371867E-01  8.8025531251957E-01
    67  6.6000000000000E-01  8.9811682290785E-01  9.2616807701733E-01
    68  6.7000000000000E-01  8.6040621878878E-01  9.7093131557763E-01
    69  6.8000000000000E-01  8.2250503900492E-01  1.0144531953319E+00
    70  6.9000000000000E-01  7.8449767706344E-01  1.0566455731070E+00
    71  7.0000000000000E-01  7.4646715613377E-01  1.0974238300932E+00
    72  7.1000000000000E-01  7.0849497944546E-01  1.1367066932750E+00
    73  7.2000000000000E-01  6.7066098648974E-01  1.1744160522972E+00
    74  7.3000000000000E-01  6.3304321420431E-01  1.2104767804861E+00
    75  7.4000000000000E-01  5.9571776232171E-01  1.2448165686117E+00
    76  7.5000000000000E-01  5.5875866208866E-01  1.2773657796715E+00
    77  7.6000000000000E-01  5.2223774761651E-01  1.3080573324939E+00
    78  7.7000000000000E-01  4.8622452919960E-01  1.3368266213104E+00
    79  7.8000000000000E-01  4.5078606803853E-01  1.3636114776469E+00
    80  7.9000000000000E-01  4.1598685192617E-01  1.3883521799308E+00
    81  8.0000000000000E-01  3.8188867159318E-01  1.4109915151419E+00
    82  8.1000000000000E-01  3.4855049756522E-01  1.4314748956463E+00
    83  8.2000000000000E-01  3.1602835755071E-01  1.4497505330821E+00
    84  8.3000000000000E-01  2.8437521455435E-01  1.4657696698252E+00
    85  8.4000000000000E-01  2.5364084609261E-01  1.4794868671803E+00
    86  8.5000000000000E-01  2.2387172506964E-01  1.4908603480469E+00
    87  8.6000000000000E-01  1.9511090305163E-01  1.4998523904146E+00
    88  8.7000000000000E-01  1.6739789684960E-01  1.5064297666923E+00
    89  8.8000000000000E-01  1.4076857948258E-01  1.5105642225775E+00
    90  8.9000000000000E-01  1.1525507673946E-01  1.5122329879657E+00
    91  9.0000000000000E-01  9.0885670685667E-02  1.5114193113036E+00
    92  9.1000000000000E-01  6.7684711567443E-02  1.5081130078234E+00
    93  9.2000000000000E-01  4.5672539646848E-02  1.5023110112872E+00
    94  9.3000000000000E-01  2.4865418554457E-02  1.4940179182324E+00
    95  9.4000000000000E-01  5.2754817696369E-03  1.4832465132574E+00
    96  9.5000000000000E-01 -1.3089306169841E-02  1.4700182636389E+00
    97  9.6000000000000E-01 -3.0225172168506E-02  1.4543637715297E+00
    98  9.7000000000000E-01 -4.6132539298470E-02  1.4363231721611E+00
    99  9.8000000000000E-01 -6.0816012371705E-02  1.4159464668647E+00
   100  9.9000000000000E-01 -7.4284343122638E-02  1.3932937803367E+00
   101  1.0000000000000E+00 -8.6550373936887E-02  1.3684355323785E+00
   102  1.0100000000000E+00 -9.7630959264160E-02  1.3414525153684E+00
   103  1.0200000000000E+00 -1.0754686408266E-01  1.3124358699185E+00
   104  1.0300000000000E+00 -1.1632263903601E-01  1.2814869525408E+00
   105  1.0400000000000E+00 -1.2398647213825E-01  1.2487170906747E+00
   106  1.0500000000000E+00 -1.3057001723308E-01  1.2142472220715E+00
   107  1.0600000000000E+00 -1.3610819969737E-01  1.1782074172850E+00
   108  1.0700000000000E+00 -1.4063900018971E-01  1.1407362858449E+00
   109  1.0800000000000E+00 -1.4420321755804E-01  1.1019802685529E+00
   110  1.0900000000000E+00 -1.4684421233182E-01  1.0620928202305E+00
   111  1.1000000000000E+00 -1.4860763252671E-01  1.0212334891068E+00
   112  1.1100000000000E+00 -1.4954112377969E-01  9.7956690085166E-01
   113  1.1200000000000E+00 -1.4969402610399E-01  9.3726165698948E-01
   114  1.1300000000000E+00 -1.4911705980096E-01  8.9448915904745E-01
   115  1.1400000000000E+00 -1.4786200328552E-01  8.5142237126846E-01
   116  1.1500000000000E+00 -1.4598136576910E-01  8.0823453602326E-01
   117  1.1600000000000E+00 -1.4352805789370E-01  7.6509785716452E-01
   118  1.1700000000000E+00 -1.4055506352086E-01  7.2218216745614E-01
   119  1.1800000000000E+00 -1.3711511594617E-01  6.7965359686136E-01
   120  1.1900000000000E+00 -1.3326038183060E-01  6.3767325887055E-01
   121  1.2000000000000E+00 -1.2904215611464E-01  5.9639597218051E-01
   122  1.2100000000000E+00 -1.2451057110650E-01  5.5596903489183E-01
   123  1.2200000000000E+00 -1.1971432281369E-01  5.1653106797186E-01
   124  1.2300000000000E+00 -1.1470041741717E-01  4.7821094403090E-01
   125  1.2400000000000E+00 -1.0951394057027E-01  4.4112681648947E-01
   126  1.2500000000000E+00 -1.0419785194543E-01  4.0538526298788E-01
   127  1.2600000000000E+00 -9.8792807148049E-02  3.7108055540657E-01
   128  1.2700000000000E+00 -9.3337008777959E-02  3.3829406716244E-01
   129  1.2800000000000E+00 -8.7866088046252E-02  3.0709382653862E-01
   130  1.2900000000000E+00 -8.2413017951410E-02  2.7753422270617E-01
   131  1.3000000000000E+00 -7.7008058594203E-02  2.4965586885920E-01
   132  1.3100000000000E+00 -7.1678734768291E-02  2.2348562452994E-01
   133  1.3200000000000E+00 -6.6449845507149E-02  1.9903677669716E-01
   134  1.3300000000000E+00 -6.1343504809257E-02  1.7630937681674E-01
   135  1.3400000000000E+00 -5.6379212306464E-02  1.5529072840780E-01
   136  1.3500000000000E+00 -5.1573952189384E-02  1.3595601734821E-01
   137  1.3600000000000E+00 -4.6942318270187E-02  1.1826907463453E-01
   138  1.3700000000000E+00 -4.2496662649957E-02  1.0218325905872E-01
   139  1.3800000000000E+00 -3.8247265074165E-02  8.7642445102498E-02
   140  1.3900000000000E+00 -3.4202519707541E-02  7.4582099358403E-02
   141  1.4000000000000E+00 -3.0369135749555E-02  6.2930427019113E-02
   142  1.4100000000000E+00 -2.6752348044952E-02  5.2609568438075E-02
   143  1.4200000000000E+00 -2.3356133626406E-02  4.3536824493203E-02
   144  1.4300000000000E+00 -2.0183429961833E-02  3.5625888499453E-02
   145  1.4400000000000E+00 -1.7236350569953E-02  2.8788061733649E-02
   146  1.4500000000000E+00 -1.4516393617310E-02  2.2933429273215E-02
   147  1.4600000000000E+00 -1.2024639473154E-02  1.7971973412786E-02
   148  1.4700000000000E+00 -9.7619333565821E-03  1.3814609633196E-02
   149  1.4800000000000E+00 -7.7290384641104E-03  1.0374034160747E-02
   150  1.4900000000000E+00 -5.9282146068540E-03  7.5693787368446E-03
   151  1.5000000000000E+00 -4.3621520047446E-03  5.3250846234105E-03
   152  1.5100000000000E+00 -3.0311752834800E-03  3.5627010663287E-03
   153  1.5200000000000E+00 -1.9362616177812E-03  2.2097842879127E-03
   154  1.5300000000000E+00 -1.0799913870725E-03  1.2080931081002E-03
   155  1.5400000000000E+00 -4.6710676020426E-04  5.1728994644718E-04
   156  1.5500000000000E+00 -1.0505607004238E-04  1.1637772424290E-04
   157  1.5600000000000E+00  3.2807850099961E-06 -3.6026954265748E-06
   158  1.5700000000000E+00 -1.1525208238244E-06  1.2726296277645E-06
   159  1.58  0.  0.
   160  1.59  0.  0.
   161  1.60  0.  0.
   162  1.61  0.  0.
   163  1.62  0.  0.
   164  1.63  0.  0.
   165  1.64  0.  0.
   166  1.65  0.  0.
   167  1.66  0.  0.
   168  1.67  0.  0.
   169  1.68  0.  0.
   170  1.69  0.  0.
   171  1.70  0.  0.
   172  1.71  0.  0.
   173  1.72  0.  0.
   174  1.73  0.  0.
   175  1.74  0.  0.
   176  1.75  0.  0.
   177  1.76  0.  0.
   178  1.77  0.  0.
   179  1.78  0.  0.
   180  1.79  0.  0.
   181  1.80  0.  0.
   182  1.81  0.  0.
   183  1.82  0.  0.
   184  1.83  0.  0.
   185  1.84  0.  0.
   186  1.85  0.  0.
   187  1.86  0.  0.
   188  1.87  0.  0.
   189  1.88  0.  0.
   190  1.89  0.  0.
   191  1.90  0.  0.
   192  1.91  0.  0.
   193  1.92  0.  0.
   194  1.93  0.  0.
   195  1.94  0.  0.
   196  1.95  0.  0.
   197  1.96  0.  0.
   198  1.97  0.  0.
   199  1.98  0.  0.
   200  1.99  0.  0.
   201  2.00  0.  0.
   202  2.01  0.  0.
   203  2.02  0.  0.
   204  2.03  0.  0.
   205  2.04  0.  0.
   206  2.05  0.  0.
   207  2.06  0.  0.
   208  2.07  0.  0.
   209  2.08  0.  0.
   210  2.09  0.  0.
   211  2.10  0.  0.
   212  2.11  0.  0.
   213  2.12  0.  0.
   214  2.13  0.  0.
   215  2.14  0.  0.
   216  2.15  0.  0.
   217  2.16  0.  0.
   218  2.17  0.  0.
   219  2.18  0.  0.
   220  2.19  0.  0.
   221  2.20  0.  0.
   222  2.21  0.  0.
   223  2.22  0.  0.
   224  2.23  0.  0.
   225  2.24  0.  0.
   226  2.25  0.  0.
   227  2.26  0.  0.
   228  2.27  0.  0.
   229  2.28  0.  0.
   230  2.29  0.  0.
   231  2.30  0.  0.
   232  2.31  0.  0.
   233  2.32  0.  0.
   234  2.33  0.  0.
   235  2.34  0.  0.
   236  2.35  0.  0.
   237  2.36  0.  0.
   238  2.37  0.  0.
   239  2.38  0.  0.
   240  2.39  0.  0.
   241  2.40  0.  0.
   242  2.41  0.  0.
   243  2.42  0.  0.
   244  2.43  0.  0.
   245  2.44  0.  0.
   246  2.45  0.  0.
   247  2.46  0.  0.
   248  2.47  0.  0.
   249  2.48  0.  0.
   250  2.49  0.  0.
   251  2.50  0.  0.
   252  2.51  0.  0.
   253  2.52  0.  0.
   254  2.53  0.  0.
   255  2.54  0.  0.
   256  2.55  0.  0.
   257  2.56  0.  0.
   258  2.57  0.  0.
   259  2.58  0.  0.
   260  2.59  0.  0.
   261  2.60  0.  0.
   262  2.61  0.  0.
   263  2.62  0.  0.
   264  2.63  0.  0.
   265  2.64  0.  0.
   266  2.65  0.  0.
   267  2.66  0.  0.
   268  2.67  0.  0.
   269  2.68  0.  0.
   270  2.69  0.  0.
   271  2.70  0.  0.
   272  2.71  0.  0.
   273  2.72  0.  0.
   274  2.73  0.  0.
   275  2.74  0.  0.
   276  2.75  0.  0.
   277  2.76  0.  0.
   278  2.77  0.  0.
   279  2.78  0.  0.
   280  2.79  0.  0.
   281  2.80  0.  0.
   282  2.81  0.  0.
   283  2.82  0.  0.
   284  2.83  0.  0.
   285  2.84  0.  0.
   286  2.85  0.  0.
   287  2.86  0.  0.
   288  2.87  0.  0.
   289  2.88  0.  0.
   290  2.89  0.  0.
   291  2.90  0.  0.
   292  2.91  0.  0.
   293  2.92  0.  0.
   294  2.93  0.  0.
   295  2.94  0.  0.
   296  2.95  0.  0.
   297  2.96  0.  0.
   298  2.97  0.  0.
   299  2.98  0.  0.
   300  2.99  0.  0.
   301  3.00  0.  0.
   302  3.01  0.  0.
   303  3.02  0.  0.
   304  3.03  0.  0.
   305  3.04  0.  0.
   306  3.05  0.  0.
   307  3.06  0.  0.
   308  3.07  0.  0.
   309  3.08  0.  0.
   310  3.09  0.  0.
   311  3.10  0.  0.
   312  3.11  0.  0.
   313  3.12  0.  0.
   314  3.13  0.  0.
   315  3.14  0.  0.
   316  3.15  0.  0.
   317  3.16  0.  0.
   318  3.17  0.  0.
   319  3.18  0.  0.
   320  3.19  0.  0.
   321  3.20  0.  0.
   322  3.21  0.  0.
   323  3.22  0.  0.
   324  3.23  0.  0.
   325  3.24  0.  0.
   326  3.25  0.  0.
   327  3.26  0.  0.
   328  3.27  0.  0.
   329  3.28  0.  0.
   330  3.29  0.  0.
   331  3.30  0.  0.
   332  3.31  0.  0.
   333  3.32  0.  0.
   334  3.33  0.  0.
   335  3.34  0.  0.
   336  3.35  0.  0.
   337  3.36  0.  0.
   338  3.37  0.  0.
   339  3.38  0.  0.
   340  3.39  0.  0.
   341  3.40  0.  0.
   342  3.41  0.  0.
   343  3.42  0.  0.
   344  3.43  0.  0.
   345  3.44  0.  0.
   346  3.45  0.  0.
   347  3.46  0.  0.
   348  3.47  0.  0.
   349  3.48  0.  0.
   350  3.49  0.  0.
   351  3.50  0.  0.
   352  3.51  0.  0.
   353  3.52  0.  0.
   354  3.53  0.  0.
   355  3.54  0.  0.
   356  3.55  0.  0.
   357  3.56  0.  0.
   358  3.57  0.  0.
   359  3.58  0.  0.
   360  3.59  0.  0.
   361  3.60  0.  0.
   362  3.61  0.  0.
   363  3.62  0.  0.
   364  3.63  0.  0.
   365  3.64  0.  0.
   366  3.65  0.  0.
   367  3.66  0.  0.
   368  3.67  0.  0.
   369  3.68  0.  0.
   370  3.69  0.  0.
   371  3.70  0.  0.
   372  3.71  0.  0.
   373  3.72  0.  0.
   374  3.73  0.  0.
   375  3.74  0.  0.
   376  3.75  0.  0.
   377  3.76  0.  0.
   378  3.77  0.  0.
   379  3.78  0.  0.
   380  3.79  0.  0.
   381  3.80  0.  0.
   382  3.81  0.  0.
   383  3.82  0.  0.
   384  3.83  0.  0.
   385  3.84  0.  0.
   386  3.85  0.  0.
   387  3.86  0.  0.
   388  3.87  0.  0.
   389  3.88  0.  0.
   390  3.89  0.  0.
   391  3.90  0.  0.
   392  3.91  0.  0.
   393  3.92  0.  0.
   394  3.93  0.  0.
   395  3.94  0.  0.
   396  3.95  0.  0.
   397  3.96  0.  0.
   398  3.97  0.  0.
   399  3.98  0.  0.
   400  3.99  0.  0.
   1                         2.3433965762748E+00  2.2993243471572E-01
     1  0.0000000000000E+00  3.7782832418287E-10 -1.5053703353307E-09
     2  1.0000000000000E-02  1.3947735515013E-03 -8.4939839155260E-04
     3  2.0000000000000E-02  5.5737652882010E-03 -3.3905851958509E-03
     4  3.0000000000000E-02  1.2521014560129E-02 -7.6026017105839E-03
     5  4.0000000000000E-02  2.2210007086192E-02 -1.3450737276647E-02
     6  5.0000000000000E-02  3.4603804427921E-02 -2.0886857079168E-02
     7  6.0000000000000E-02  4.9655223802843E-02 -2.9849855181663E-02
     8  7.0000000000000E-02  6.7307066809043E-02 -4.0266227009808E-02
     9  8.0000000000000E-02  8.7492395254699E-02 -5.2050753995919E-02
    10  9.0000000000000E-02  1.1013485193057E-01 -6.5107291696219E-02
    11  1.0000000000000E-01  1.3514902383402E-01 -7.9329651421548E-02
    12  1.1000000000000E-01  1.6244084505399E-01 -9.4602564297198E-02
    13  1.2000000000000E-01  1.9190803626070E-01 -1.1080271570321E-01
    14  1.3000000000000E-01  2.2344057751452E-01 -1.2779983725981E-01
    15  1.4000000000000E-01  2.5692121091855E-01 -1.4545784292138E-01
    16  1.5000000000000E-01  2.9222596948950E-01 -1.6363599533776E-01
    17  1.6000000000000E-01  3.2922472851408E-01 -1.8219008843647E-01
    18  1.7000000000000E-01  3.6778177559260E-01 -2.0097363217828E-01
    19  1.8000000000000E-01  4.0775639554926E-01 -2.1983902563817E-01
    20  1.9000000000000E-01  4.4900346640727E-01 -2.3863870496293E-01
    21  2.0000000000000E-01  4.9137406268743E-01 -2.5722625334615E-01
    22  2.1000000000000E-01  5.3471606238704E-01 -2.7545746093244E-01
    23  2.2000000000000E-01  5.7887475413159E-01 -2.9319132350350E-01
    24  2.3000000000000E-01  6.2369344116088E-01 -3.1029096989248E-01
    25  2.4000000000000E-01  6.6901403901032E-01 -3.2662450930382E-01
    26  2.5000000000000E-01  7.1467766397455E-01 -3.4206579106307E-01
    27  2.6000000000000E-01  7.6052520968952E-01 -3.5649507076499E-01
    28  2.7000000000000E-01  8.0639790943598E-01 -3.6979957830368E-01
    29  2.8000000000000E-01  8.5213788204893E-01 -3.8187398483473E-01
    30  2.9000000000000E-01  8.9758865960717E-01 -3.9262076730895E-01
    31  3.0000000000000E-01  9.4259569537230E-01 -4.0195047080788E-01
    32  3.1000000000000E-01  9.8700685074032E-01 -4.0978187047600E-01
    33  3.2000000000000E-01  1.0306728602590E+00 -4.1604203636057E-01
    34  3.3000000000000E-01  1.0734477740438E+00 -4.2066630591326E-01
    35  3.4000000000000E-01  1.1151893771911E+00 -4.2359817025486E-01
    36  3.5000000000000E-01  1.1557595860387E+00 -4.2478908153616E-01
    37  3.6000000000000E-01  1.1950248213474E+00 -4.2419818982410E-01
    38  3.7000000000000E-01  1.2328563586851E+00 -4.2179201888590E-01
    39  3.8000000000000E-01  1.2691306564682E+00 -4.1754409102107E-01
    40  3.9000000000000E-01  1.3037296622659E+00 -4.1143451168944E-01
    41  4.0000000000000E-01  1.3365410980847E+00 -4.0344952509327E-01
    42  4.1000000000000E-01  1.3674587254408E+00 -3.9358105208862E-01
    43  4.2000000000000E-01  1.3963825910776E+00 -3.8182622181958E-01
    44  4.3000000000000E-01  1.4232192542043E+00 -3.6818690829169E-01
    45  4.4000000000000E-01  1.4478819961245E+00 -3.5266928272887E-01
    46  4.5000000000000E-01  1.4702910130781E+00 -3.3528339199882E-01
    47  4.6000000000000E-01  1.4903735930522E+00 -3.1604277265421E-01
    48  4.7000000000000E-01  1.5080642772187E+00 -2.9496410923225E-01
    49  4.8000000000000E-01  1.5233050065377E+00 -2.7206694440016E-01
    50  4.9000000000000E-01  1.5360452539258E+00 -2.4737344734347E-01
    51  5.0000000000000E-01  1.5462421422315E+00 -2.2090824548916E-01
    52  5.1000000000000E-01  1.5538605480900E+00 -1.9269832325731E-01
    53  5.2000000000000E-01  1.5588731915556E+00 -1.6277299006533E-01
    54  5.3000000000000E-01  1.5612607112228E+00 -1.3116391829335E-01
    55  5.4000000000000E-01  1.5610117243716E+00 -9.7905250382126E-02
    56  5.5000000000000E-01  1.5581228714909E+00 -6.3033772701070E-02
    57  5.6000000000000E-01  1.5525988443708E+00 -2.6589152320862E-02
    58  5.7000000000000E-01  1.5444523967975E+00  1.1385768624471E-02
    59  5.8000000000000E-01  1.5337043367512E+00  5.0844627670589E-02
    60  5.9000000000000E-01  1.5203834988905E+00  9.1737153802813E-02
    61  6.0000000000000E-01  1.5045266960196E+00  1.3400874537710E-01
    62  6.1000000000000E-01  1.4861786481714E+00  1.7760002427377E-01
    63  6.2000000000000E-01  1.4653918879096E+00  2.2244637721042E-01
    64  6.3000000000000E-01  1.4422266404566E+00  2.6847749579709E-01
    65  6.4000000000000E-01  1.4167506772887E+00  3.1561692738135E-01
    66  6.5000000000000E-01  1.3890391419137E+00  3.6378164899524E-01
    67  6.6000000000000E-01  1.3591743466552E+00  4.1288167677185E-01
    68  6.7000000000000E-01  1.3272455394107E+00  4.6281972304217E-01
    69  6.8000000000000E-01  1.2933486395299E+00  5.1349091295593E-01
    70  6.9000000000000E-01  1.2575859421728E+00  5.6478257189111E-01
    71  7.0000000000000E-01  1.2200657907494E+00  6.1657409413642E-01
    72  7.1000000000000E-01  1.1809022173176E+00  6.6873690235689E-01
    73  7.2000000000000E-01  1.1402145511107E+00  7.2113450619625E-01
    74  7.3000000000000E-01  1.0981269956882E+00  7.7362266704936E-01
    75  7.4000000000000E-01  1.0547681755376E+00  8.2604967456861E-01
    76  7.5000000000000E-01  1.0102706533095E+00  8.7825673887343E-01
    77  7.6000000000000E-01  9.6477041921981E-01  9.3007850073294E-01
    78  7.7000000000000E-01  9.1840635451988E-01  9.8134366021319E-01
    79  7.8000000000000E-01  8.7131967128970E-01  1.0318757224504E+00
    80  7.9000000000000E-01  8.2365333116063E-01  1.0814938573551E+00
    81  8.0000000000000E-01  7.7555144591121E-01  1.1300138681979E+00
    82  8.1000000000000E-01  7.2715866319659E-01  1.1772492622069E+00
    83  8.2000000000000E-01  6.7861954096629E-01  1.2230124145407E+00
    84  8.3000000000000E-01  6.3007791438851E-01  1.2671158153284E+00
    85  8.4000000000000E-01  5.8167625932977E-01  1.3093733879018E+00
    86  8.5000000000000E-01  5.3355505663008E-01  1.3496018649241E+00
    87  8.6000000000000E-01  4.8585216156335E-01  1.3876222078574E+00
    88  8.7000000000000E-01  4.3870218297598E-01  1.4232610541340E+00
    89  8.8000000000000E-01  3.9223587665193E-01  1.4563521755226E+00
    90  8.9000000000000E-01  3.4657955745664E-01  1.4867379305265E+00
    91  9.0000000000000E-01  3.0185453476411E-01  1.5142706932256E+00
    92  9.1000000000000E-01  2.5817657557062E-01  1.5388142407962E+00
    93  9.2000000000000E-01  2.1565539954421E-01  1.5602450820072E+00
    94  9.3000000000000E-01  1.7439421005266E-01  1.5784537093121E+00
    95  9.4000000000000E-01  1.3448926495464E-01  1.5933457577246E+00
    96  9.5000000000000E-01  9.6029490632858E-02  1.6048430544803E+00
    97  9.6000000000000E-01  5.9096142394590E-02  1.6128845445408E+00
    98  9.7000000000000E-01  2.3762513970756E-02  1.6174270782750E+00
    99  9.8000000000000E-01 -9.9063015893243E-03  1.6184460491421E+00
   100  9.9000000000000E-01 -4.1853597796625E-02  1.6159358708846E+00
   101  1.0000000000000E+00 -7.2031186039303E-02  1.6099102855927E+00
   102  1.0100000000000E+00 -1.0039947151966E-01  1.6004024960048E+00
   103  1.0200000000000E+00 -1.2692747352667E-01  1.5874651175282E+00
   104  1.0300000000000E+00 -1.5159279030336E-01  1.5711699476834E+00
   105  1.0400000000000E+00 -1.7438150931442E-01  1.5516075529510E+00
   106  1.0500000000000E+00 -1.9528806426215E-01  1.5288866753074E+00
   107  1.0600000000000E+00 -2.1431504073070E-01  1.5031334630473E+00
   108  1.0700000000000E+00 -2.3147293285287E-01  1.4744905327631E+00
   109  1.0800000000000E+00 -2.4677985388343E-01  1.4431158715611E+00
   110  1.0900000000000E+00 -2.6026120402242E-01  1.4091815907063E+00
   111  1.1000000000000E+00 -2.7194929925375E-01  1.3728725438720E+00
   112  1.1100000000000E+00 -2.8188296534428E-01  1.3343848249963E+00
   113  1.1200000000000E+00 -2.9010710147980E-01  1.2939241623925E+00
   114  1.1300000000000E+00 -2.9667221829398E-01  1.2517042271887E+00
   115  1.1400000000000E+00 -3.0163395526801E-01  1.2079448753813E+00
   116  1.1500000000000E+00 -3.0505258264192E-01  1.1628703437294E+00
   117  1.1600000000000E+00 -3.0699249307800E-01  1.1167074204082E+00
   118  1.1700000000000E+00 -3.0752168835267E-01  1.0696836117417E+00
   119  1.1800000000000E+00 -3.0671126632351E-01  1.0220253264516E+00
   120  1.1900000000000E+00 -3.0463491332280E-01  9.7395609868717E-01
   121  1.2000000000000E+00 -3.0136840696997E-01  9.2569487063158E-01
   122  1.2100000000000E+00 -2.9698913417141E-01  8.7745435472128E-01
   123  1.2200000000000E+00 -2.9157562879352E-01  8.2943949447878E-01
   124  1.2300000000000E+00 -2.8520713315358E-01  7.8184604164646E-01
   125  1.2400000000000E+00 -2.7796318707743E-01  7.3485926574038E-01
   126  1.2500000000000E+00 -2.6992324783183E-01  6.8865281034804E-01
   127  1.2600000000000E+00 -2.6116634374979E-01  6.4338770846628E-01
   128  1.2700000000000E+00 -2.5177076384449E-01  5.9921156697409E-01
   129  1.2800000000000E+00 -2.4181378515265E-01  5.5625792797077E-01
   130  1.2900000000000E+00 -2.3137143896685E-01  5.1464581220146E-01
   131  1.3000000000000E+00 -2.2051831652153E-01  4.7447944720236E-01
   132  1.3100000000000E+00 -2.0932741409327E-01  4.3584818014092E-01
   133  1.3200000000000E+00 -1.9787001686656E-01  3.9882657262770E-01
   134  1.3300000000000E+00 -1.8621562031770E-01  3.6347467210115E-01
   135  1.3400000000000E+00 -1.7443188728362E-01  3.2983845175221E-01
   136  1.3500000000000E+00 -1.6258463831640E-01  2.9795040838982E-01
   137  1.3600000000000E+00 -1.5073787238964E-01  2.6783030520810E-01
   138  1.3700000000000E+00 -1.3895381452299E-01  2.3948604411729E-01
   139  1.3800000000000E+00 -1.2729298643563E-01  2.1291465018927E-01
   140  1.3900000000000E+00 -1.1581429593016E-01  1.8810334885258E-01
   141  1.4000000000000E+00 -1.0457514035574E-01  1.6503071480611E-01
   142  1.4100000000000E+00 -9.3631519205001E-02  1.4366787020781E-01
   143  1.4200000000000E+00 -8.3038150668063E-02  1.2397970856480E-01
   144  1.4300000000000E+00 -7.2848586802586E-02  1.0592611991932E-01
   145  1.4400000000000E+00 -6.3115321883168E-02  8.9463192402217E-02
   146  1.4500000000000E+00 -5.3889888468770E-02  7.4544365025791E-02
   147  1.4600000000000E+00 -4.5222936067784E-02  6.1121507520990E-02
   148  1.4700000000000E+00 -3.7164291062806E-02  4.9145914688382E-02
   149  1.4800000000000E+00 -2.9762949265580E-02  3.8569060515760E-02
   150  1.4900000000000E+00 -2.3068976917789E-02  2.9348784922951E-02
   151  1.5000000000000E+00 -1.7132591552526E-02  2.1447518112086E-02
   152  1.5100000000000E+00 -1.1999833094616E-02  1.4820334245128E-02
   153  1.5200000000000E+00 -7.7156847262541E-03  9.4268428063807E-03
   154  1.5300000000000E+00 -4.3258793117315E-03  5.2421083273337E-03
   155  1.5400000000000E+00 -1.8779530393130E-03  2.2616351841467E-03
   156  1.5500000000000E+00 -4.2304342872519E-04  5.0441409236593E-04
   157  1.5600000000000E+00  1.3713233393885E-05 -2.1007903376886E-05
   158  1.5700000000000E+00 -4.6918306489460E-06  6.0164744983827E-06
   159  1.58  0.  0.
   160  1.59  0.  0.
   161  1.60  0.  0.
   162  1.61  0.  0.
   163  1.62  0.  0.
   164  1.63  0.  0.
   165  1.64  0.  0.
   166  1.65  0.  0.
   167  1.66  0.  0.
   168  1.67  0.  0.
   169  1.68  0.  0.
   170  1.69  0.  0.
   171  1.70  0.  0.
   172  1.71  0.  0.
   173  1.72  0.  0.
   174  1.73  0.  0.
   175  1.74  0.  0.
   176  1.75  0.  0.
   177  1.76  0.  0.
   178  1.77  0.  0.
   179  1.78  0.  0.
   180  1.79  0.  0.
   181  1.80  0.  0.
   182  1.81  0.  0.
   183  1.82  0.  0.
   184  1.83  0.  0.
   185  1.84  0.  0.
   186  1.85  0.  0.
   187  1.86  0.  0.
   188  1.87  0.  0.
   189  1.88  0.  0.
   190  1.89  0.  0.
   191  1.90  0.  0.
   192  1.91  0.  0.
   193  1.92  0.  0.
   194  1.93  0.  0.
   195  1.94  0.  0.
   196  1.95  0.  0.
   197  1.96  0.  0.
   198  1.97  0.  0.
   199  1.98  0.  0.
   200  1.99  0.  0.
   201  2.00  0.  0.
   202  2.01  0.  0.
   203  2.02  0.  0.
   204  2.03  0.  0.
   205  2.04  0.  0.
   206  2.05  0.  0.
   207  2.06  0.  0.
   208  2.07  0.  0.
   209  2.08  0.  0.
   210  2.09  0.  0.
   211  2.10  0.  0.
   212  2.11  0.  0.
   213  2.12  0.  0.
   214  2.13  0.  0.
   215  2.14  0.  0.
   216  2.15  0.  0.
   217  2.16  0.  0.
   218  2.17  0.  0.
   219  2.18  0.  0.
   220  2.19  0.  0.
   221  2.20  0.  0.
   222  2.21  0.  0.
   223  2.22  0.  0.
   224  2.23  0.  0.
   225  2.24  0.  0.
   226  2.25  0.  0.
   227  2.26  0.  0.
   228  2.27  0.  0.
   229  2.28  0.  0.
   230  2.29  0.  0.
   231  2.30  0.  0.
   232  2.31  0.  0.
   233  2.32  0.  0.
   234  2.33  0.  0.
   235  2.34  0.  0.
   236  2.35  0.  0.
   237  2.36  0.  0.
   238  2.37  0.  0.
   239  2.38  0.  0.
   240  2.39  0.  0.
   241  2.40  0.  0.
   242  2.41  0.  0.
   243  2.42  0.  0.
   244  2.43  0.  0.
   245  2.44  0.  0.
   246  2.45  0.  0.
   247  2.46  0.  0.
   248  2.47  0.  0.
   249  2.48  0.  0.
   250  2.49  0.  0.
   251  2.50  0.  0.
   252  2.51  0.  0.
   253  2.52  0.  0.
   254  2.53  0.  0.
   255  2.54  0.  0.
   256  2.55  0.  0.
   257  2.56  0.  0.
   258  2.57  0.  0.
   259  2.58  0.  0.
   260  2.59  0.  0.
   261  2.60  0.  0.
   262  2.61  0.  0.
   263  2.62  0.  0.
   264  2.63  0.  0.
   265  2.64  0.  0.
   266  2.65  0.  0.
   267  2.66  0.  0.