Nb    ONCVPSP-4.0.1  r_core=   1.50740   1.40298   1.40298
     41.0000     13.0000      250217    zatom,zion,pspd
     8       2   2     4   600     0    pspcod,pspxc,lmax,lloc,mmax,r2well
  5.99000000  5.00000000  0.00000000    rchrg fchrg qchrg
     2     2     2     0    nproj
     3     1           extension_switch
     3     3     0    nprojso
   0                         1.2683994781681E+01  1.2633737475630E+00
     1  0.0000000000000E+00 -1.0798373306642E-10  5.4500445823003E-10
     2  1.0000000000000E-02  5.2509627544581E-02 -2.5309458735479E-02
     3  2.0000000000000E-02  1.0496293931635E-01 -5.0527330068146E-02
     4  3.0000000000000E-02  1.5730366015119E-01 -7.5562583489442E-02
     5  4.0000000000000E-02  2.0947559501465E-01 -1.0032529352649E-01
     6  5.0000000000000E-02  2.6142266637577E-01 -1.2472717051903E-01
     7  6.0000000000000E-02  3.1308894842987E-01 -1.4868206570031E-01
     8  7.0000000000000E-02  3.6441869724917E-01 -1.7210644266604E-01
     9  8.0000000000000E-02  4.1535637604785E-01 -1.9491980786031E-01
    10  9.0000000000000E-02  4.6584667488011E-01 -2.1704509337413E-01
    11  1.0000000000000E-01  5.1583452424239E-01 -2.3840898613148E-01
    12  1.1000000000000E-01  5.6526510222357E-01 -2.5894219841857E-01
    13  1.2000000000000E-01  6.1408383503454E-01 -2.7857967568147E-01
    14  1.3000000000000E-01  6.6223639095006E-01 -2.9726073856262E-01
    15  1.4000000000000E-01  7.0966866790610E-01 -3.1492915725157E-01
    16  1.5000000000000E-01  7.5632677521223E-01 -3.3153315737521E-01
    17  1.6000000000000E-01  8.0215701005733E-01 -3.4702535782961E-01
    18  1.7000000000000E-01  8.4710582970289E-01 -3.6136264214313E-01
    19  1.8000000000000E-01  8.9111982046916E-01 -3.7450596614058E-01
    20  1.9000000000000E-01  9.3414566481998E-01 -3.8642010583252E-01
    21  2.0000000000000E-01  9.7613010803876E-01 -3.9707335056655E-01
    22  2.1000000000000E-01  1.0170199261576E+00 -4.0643714752820E-01
    23  2.2000000000000E-01  1.0567618969492E+00 -4.1448570465441E-01
    24  2.3000000000000E-01  1.0953027759135E+00 -4.2119555990391E-01
    25  2.4000000000000E-01  1.1325892792879E+00 -4.2654512560250E-01
    26  2.5000000000000E-01  1.1685680761712E+00 -4.3051421723350E-01
    27  2.6000000000000E-01  1.2031857918855E+00 -4.3308357656149E-01
    28  2.7000000000000E-01  1.2363890246925E+00 -4.3423439935114E-01
    29  2.8000000000000E-01  1.2681243779414E+00 -4.3394787816348E-01
    30  2.9000000000000E-01  1.2983385096456E+00 -4.3220477077122E-01
    31  3.0000000000000E-01  1.3269782013658E+00 -4.2898500463077E-01
    32  3.1000000000000E-01  1.3539904481220E+00 -4.2426732757575E-01
    33  3.2000000000000E-01  1.3793225708602E+00 -4.1802901445656E-01
    34  3.3000000000000E-01  1.4029223527689E+00 -4.1024563884580E-01
    35  3.4000000000000E-01  1.4247382004722E+00 -4.0089091816161E-01
    36  3.5000000000000E-01  1.4447193308262E+00 -3.8993663964093E-01
    37  3.6000000000000E-01  1.4628159837152E+00 -3.7735267352819E-01
    38  3.7000000000000E-01  1.4789796608867E+00 -3.6310707864554E-01
    39  3.8000000000000E-01  1.4931633904838E+00 -3.4716630419112E-01
    40  3.9000000000000E-01  1.5053220165366E+00 -3.2949549018815E-01
    41  4.0000000000000E-01  1.5154125122590E+00 -3.1005886749658E-01
    42  4.1000000000000E-01  1.5233943155807E+00 -2.8882025672109E-01
    43  4.2000000000000E-01  1.5292296849171E+00 -2.6574366372409E-01
    44  4.3000000000000E-01  1.5328840727621E+00 -2.4079396780162E-01
    45  4.4000000000000E-01  1.5343265142755E+00 -2.1393769692884E-01
    46  4.5000000000000E-01  1.5335300276392E+00 -1.8514388284942E-01
    47  4.6000000000000E-01  1.5304720225855E+00 -1.5438498719906E-01
    48  4.7000000000000E-01  1.5251347131441E+00 -1.2163788833540E-01
    49  4.8000000000000E-01  1.5175055303487E+00 -8.6884917124581E-02
    50  4.9000000000000E-01  1.5075775303593E+00 -5.0114928625433E-02
    51  5.0000000000000E-01  1.4953497932292E+00 -1.1324395444199E-02
    52  5.1000000000000E-01  1.4808278073597E+00  2.9481492479185E-02
    53  5.2000000000000E-01  1.4640238345590E+00  7.2287737724465E-02
    54  5.3000000000000E-01  1.4449572505454E+00  1.1706847159282E-01
    55  5.4000000000000E-01  1.4236548557314E+00  1.6378593379240E-01
    56  5.5000000000000E-01  1.4001511511701E+00  2.1238951294711E-01
    57  5.6000000000000E-01  1.3744885746726E+00  2.6281486523855E-01
    58  5.7000000000000E-01  1.3467176922840E+00  3.1498312822160E-01
    59  5.8000000000000E-01  1.3168973405623E+00  3.6880024634076E-01
    60  5.9000000000000E-01  1.2850947154228E+00  4.2415642391639E-01
    61  6.0000000000000E-01  1.2513854036935E+00  4.8092572036962E-01
    62  6.1000000000000E-01  1.2158533539758E+00  5.3896580121877E-01
    63  6.2000000000000E-01  1.1785907839081E+00  5.9811785691721E-01
    64  6.3000000000000E-01  1.1396980214932E+00  6.5820669992676E-01
    65  6.4000000000000E-01  1.0992832787597E+00  7.1904104854562E-01
    66  6.5000000000000E-01  1.0574623566828E+00  7.8041400395859E-01
    67  6.6000000000000E-01  1.0143582809826E+00  8.4210372476711E-01
    68  6.7000000000000E-01  9.7010086913945E-01  9.0387430091746E-01
    69  6.8000000000000E-01  9.2482622971281E-01  9.6547682650012E-01
    70  6.9000000000000E-01  8.7867619580505E-01  1.0266506683750E+00
    71  7.0000000000000E-01  8.3179769527791E-01  1.0871249250141E+00
    72  7.1000000000000E-01  7.8434206108618E-01  1.1466200673805E+00
    73  7.2000000000000E-01  7.3646428583876E-01  1.2048497511118E+00
    74  7.3000000000000E-01  6.8832222541868E-01  1.2615227867832E+00
    75  7.4000000000000E-01  6.4007575718221E-01  1.3163452526235E+00
    76  7.5000000000000E-01  5.9188589890382E-01  1.3690227317798E+00
    77  7.6000000000000E-01  5.4391389522917E-01  1.4192626541086E+00
    78  7.7000000000000E-01  4.9632027893351E-01  1.4667767205435E+00
    79  7.8000000000000E-01  4.4926391475118E-01  1.5112833863771E+00
    80  7.9000000000000E-01  4.0290103393389E-01  1.5525103783368E+00
    81  8.0000000000000E-01  3.5738426800670E-01  1.5901972191422E+00
    82  8.1000000000000E-01  3.1286169041351E-01  1.6240977323369E+00
    83  8.2000000000000E-01  2.6947587487542E-01  1.6539824996043E+00
    84  8.3000000000000E-01  2.2736297932004E-01  1.6796412425198E+00
    85  8.4000000000000E-01  1.8665186417756E-01  1.7008851007734E+00
    86  8.5000000000000E-01  1.4746325367593E-01  1.7175487793216E+00
    87  8.6000000000000E-01  1.0990894850616E-01  1.7294925376949E+00
    88  8.7000000000000E-01  7.4091097867454E-02  1.7366039958018E+00
    89  8.8000000000000E-01  4.0101538446142E-02  1.7387997320144E+00
    90  8.9000000000000E-01  8.0212073334873E-03  1.7360266510910E+00
    91  9.0000000000000E-01 -2.2080364747484E-02  1.7282631015663E+00
    92  9.1000000000000E-01 -5.0145474252178E-02  1.7155197245978E+00
    93  9.2000000000000E-01 -7.6128574796794E-02  1.6978400188779E+00
    94  9.3000000000000E-01 -9.9996512301986E-02  1.6753006090682E+00
    95  9.4000000000000E-01 -1.2172866219619E-01  1.6480112082608E+00
    96  9.5000000000000E-01 -1.4131696653104E-01  1.6161142681761E+00
    97  9.6000000000000E-01 -1.5876586984960E-01  1.5797843141398E+00
    98  9.7000000000000E-01 -1.7409215365799E-01  1.5392269652897E+00
    99  9.8000000000000E-01 -1.8732467037171E-01  1.4946776439138E+00
   100  9.9000000000000E-01 -1.9850397862554E-01  1.4463999812662E+00
   101  1.0000000000000E+00 -2.0768188283947E-01  1.3946839306007E+00
   102  1.0100000000000E+00 -2.1492088090798E-01  1.3398436014611E+00
   103  1.0200000000000E+00 -2.2029352481631E-01  1.2822148324287E+00
   104  1.0300000000000E+00 -2.2388169987156E-01  1.2221525225110E+00
   105  1.0400000000000E+00 -2.2577582905643E-01  1.1600277441071E+00
   106  1.0500000000000E+00 -2.2607400976144E-01  1.0962246629917E+00
   107  1.0600000000000E+00 -2.2488109081375E-01  1.0311372929562E+00
   108  1.0700000000000E+00 -2.2230769829148E-01  9.6516611462647E-01
   109  1.0800000000000E+00 -2.1846921908236E-01  8.9871458949249E-01
   110  1.0900000000000E+00 -2.1348475150834E-01  8.3218560133358E-01
   111  1.1000000000000E+00 -2.0747603258865E-01  7.6597785796490E-01
   112  1.1100000000000E+00 -2.0056635164872E-01  7.0048228656948E-01
   113  1.1200000000000E+00 -1.9287945999896E-01  6.3607845579859E-01
   114  1.1300000000000E+00 -1.8453848630488E-01  5.7313105732075E-01
   115  1.1400000000000E+00 -1.7566486705059E-01  5.1198647858308E-01
   116  1.1500000000000E+00 -1.6637730116036E-01  4.5296949721986E-01
   117  1.1600000000000E+00 -1.5679073739671E-01  3.9638012582643E-01
   118  1.1700000000000E+00 -1.4701540259817E-01  3.4249063372010E-01
   119  1.1800000000000E+00 -1.3715587816713E-01  2.9154276986944E-01
   120  1.1900000000000E+00 -1.2731023147373E-01  2.4374520841433E-01
   121  1.2000000000000E+00 -1.1756920801354E-01  1.9927123514783E-01
   122  1.2100000000000E+00 -1.0801548926265E-01  1.5825669005382E-01
   123  1.2200000000000E+00 -9.8723020211707E-02  1.2079817748281E-01
   124  1.2300000000000E+00 -8.9756409559726E-02  8.6951551909620E-02
   125  1.2400000000000E+00 -8.1170403984509E-02  5.6730680516964E-02
   126  1.2500000000000E+00 -7.3009443210803E-02  3.0106516009127E-02
   127  1.2600000000000E+00 -6.5307314465481E-02  7.0065860073445E-03
   128  1.2700000000000E+00 -5.8087934814594E-02 -1.2679291949261E-02
   129  1.2800000000000E+00 -5.1367067019273E-02 -2.9088738659602E-02
   130  1.2900000000000E+00 -4.5152986764210E-02 -4.2383277016461E-02
   131  1.3000000000000E+00 -3.9446951918212E-02 -5.2746162789519E-02
   132  1.3100000000000E+00 -3.4243742675957E-02 -6.0379971829421E-02
   133  1.3200000000000E+00 -2.9532262136208E-02 -6.5503989182727E-02
   134  1.3300000000000E+00 -2.5296190082618E-02 -6.8351425433819E-02
   135  1.3400000000000E+00 -2.1514681483801E-02 -6.9166491561466E-02
   136  1.3500000000000E+00 -1.8163100825969E-02 -6.8201364808837E-02
   137  1.3600000000000E+00 -1.5213783001860E-02 -6.5713079436453E-02
   138  1.3700000000000E+00 -1.2636811197508E-02 -6.1960377212125E-02
   139  1.3800000000000E+00 -1.0400802049203E-02 -5.7200553070486E-02
   140  1.3900000000000E+00 -8.4736882869554E-03 -5.1686331545371E-02
   141  1.4000000000000E+00 -6.8234891385376E-03 -4.5662809338735E-02
   142  1.4100000000000E+00 -5.4190572635427E-03 -3.9364503076814E-02
   143  1.4200000000000E+00 -4.2308052572156E-03 -3.3012503893489E-02
   144  1.4300000000000E+00 -3.2313525098249E-03 -2.6811906610665E-02
   145  1.4400000000000E+00 -2.3994288783251E-03 -2.0940807638047E-02
   146  1.4500000000000E+00 -1.7187566662010E-03 -1.5551996921600E-02
   147  1.4600000000000E+00 -1.1685637186973E-03 -1.0797373310046E-02
   148  1.4700000000000E+00 -7.3297987174661E-04 -6.8035973644290E-03
   149  1.4800000000000E+00 -4.0136242768706E-04 -3.6705988742264E-03
   150  1.4900000000000E+00 -1.6857443007951E-04 -1.4692750318142E-03
   151  1.5000000000000E+00 -3.6908132872031E-05 -2.5043841199420E-04
   152  1.5100000000000E+00 -1.9553602962579E-06  3.8257662486635E-05
   153  1.5200000000000E+00 -9.1106772274848E-08 -8.6168459843867E-06
   154  1.53  0.  0.
   155  1.54  0.  0.
   156  1.55  0.  0.
   157  1.56  0.  0.
   158  1.57  0.  0.
   159  1.58  0.  0.
   160  1.59  0.  0.
   161  1.60  0.  0.
   162  1.61  0.  0.
   163  1.62  0.  0.
   164  1.63  0.  0.
   165  1.64  0.  0.
   166  1.65  0.  0.
   167  1.66  0.  0.
   168  1.67  0.  0.
   169  1.68  0.  0.
   170  1.69  0.  0.
   171  1.70  0.  0.
   172  1.71  0.  0.
   173  1.72  0.  0.
   174  1.73  0.  0.
   175  1.74  0.  0.
   176  1.75  0.  0.
   177  1.76  0.  0.
   178  1.77  0.  0.
   179  1.78  0.  0.
   180  1.79  0.  0.
   181  1.80  0.  0.
   182  1.81  0.  0.
   183  1.82  0.  0.
   184  1.83  0.  0.
   185  1.84  0.  0.
   186  1.85  0.  0.
   187  1.86  0.  0.
   188  1.87  0.  0.
   189  1.88  0.  0.
   190  1.89  0.  0.
   191  1.90  0.  0.
   192  1.91  0.  0.
   193  1.92  0.  0.
   194  1.93  0.  0.
   195  1.94  0.  0.
   196  1.95  0.  0.
   197  1.96  0.  0.
   198  1.97  0.  0.
   199  1.98  0.  0.
   200  1.99  0.  0.
   201  2.00  0.  0.
   202  2.01  0.  0.
   203  2.02  0.  0.
   204  2.03  0.  0.
   205  2.04  0.  0.
   206  2.05  0.  0.
   207  2.06  0.  0.
   208  2.07  0.  0.
   209  2.08  0.  0.
   210  2.09  0.  0.
   211  2.10  0.  0.
   212  2.11  0.  0.
   213  2.12  0.  0.
   214  2.13  0.  0.
   215  2.14  0.  0.
   216  2.15  0.  0.
   217  2.16  0.  0.
   218  2.17  0.  0.
   219  2.18  0.  0.
   220  2.19  0.  0.
   221  2.20  0.  0.
   222  2.21  0.  0.
   223  2.22  0.  0.
   224  2.23  0.  0.
   225  2.24  0.  0.
   226  2.25  0.  0.
   227  2.26  0.  0.
   228  2.27  0.  0.
   229  2.28  0.  0.
   230  2.29  0.  0.
   231  2.30  0.  0.
   232  2.31  0.  0.
   233  2.32  0.  0.
   234  2.33  0.  0.
   235  2.34  0.  0.
   236  2.35  0.  0.
   237  2.36  0.  0.
   238  2.37  0.  0.
   239  2.38  0.  0.
   240  2.39  0.  0.
   241  2.40  0.  0.
   242  2.41  0.  0.
   243  2.42  0.  0.
   244  2.43  0.  0.
   245  2.44  0.  0.
   246  2.45  0.  0.
   247  2.46  0.  0.
   248  2.47  0.  0.
   249  2.48  0.  0.
   250  2.49  0.  0.
   251  2.50  0.  0.
   252  2.51  0.  0.
   253  2.52  0.  0.
   254  2.53  0.  0.
   255  2.54  0.  0.
   256  2.55  0.  0.
   257  2.56  0.  0.
   258  2.57  0.  0.
   259  2.58  0.  0.
   260  2.59  0.  0.
   261  2.60  0.  0.
   262  2.61  0.  0.
   263  2.62  0.  0.
   264  2.63  0.  0.
   265  2.64  0.  0.
   266  2.65  0.  0.
   267  2.66  0.  0.
   268  2.67  0.  0.
   269  2.68  0.  0.
   270  2.69  0.  0.
   271  2.70  0.  0.
   272  2.71  0.  0.
   273  2.72  0.  0.
   274  2.73  0.  0.
   275  2.74  0.  0.
   276  2.75  0.  0.
   277  2.76  0.  0.
   278  2.77  0.  0.
   279  2.78  0.  0.
   280  2.79  0.  0.
   281  2.80  0.  0.
   282  2.81  0.  0.
   283  2.82  0.  0.
   284  2.83  0.  0.
   285  2.84  0.  0.
   286  2.85  0.  0.
   287  2.86  0.  0.
   288  2.87  0.  0.
   289  2.88  0.  0.
   290  2.89  0.  0.
   291  2.90  0.  0.
   292  2.91  0.  0.
   293  2.92  0.  0.
   294  2.93  0.  0.
   295  2.94  0.  0.
   296  2.95  0.  0.
   297  2.96  0.  0.
   298  2.97  0.  0.
   299  2.98  0.  0.
   300  2.99  0.  0.
   301  3.00  0.  0.
   302  3.01  0.  0.
   303  3.02  0.  0.
   304  3.03  0.  0.
   305  3.04  0.  0.
   306  3.05  0.  0.
   307  3.06  0.  0.
   308  3.07  0.  0.
   309  3.08  0.  0.
   310  3.09  0.  0.
   311  3.10  0.  0.
   312  3.11  0.  0.
   313  3.12  0.  0.
   314  3.13  0.  0.
   315  3.14  0.  0.
   316  3.15  0.  0.
   317  3.16  0.  0.
   318  3.17  0.  0.
   319  3.18  0.  0.
   320  3.19  0.  0.
   321  3.20  0.  0.
   322  3.21  0.  0.
   323  3.22  0.  0.
   324  3.23  0.  0.
   325  3.24  0.  0.
   326  3.25  0.  0.
   327  3.26  0.  0.
   328  3.27  0.  0.
   329  3.28  0.  0.
   330  3.29  0.  0.
   331  3.30  0.  0.
   332  3.31  0.  0.
   333  3.32  0.  0.
   334  3.33  0.  0.
   335  3.34  0.  0.
   336  3.35  0.  0.
   337  3.36  0.  0.
   338  3.37  0.  0.
   339  3.38  0.  0.
   340  3.39  0.  0.
   341  3.40  0.  0.
   342  3.41  0.  0.
   343  3.42  0.  0.
   344  3.43  0.  0.
   345  3.44  0.  0.
   346  3.45  0.  0.
   347  3.46  0.  0.
   348  3.47  0.  0.
   349  3.48  0.  0.
   350  3.49  0.  0.
   351  3.50  0.  0.
   352  3.51  0.  0.
   353  3.52  0.  0.
   354  3.53  0.  0.
   355  3.54  0.  0.
   356  3.55  0.  0.
   357  3.56  0.  0.
   358  3.57  0.  0.
   359  3.58  0.  0.
   360  3.59  0.  0.
   361  3.60  0.  0.
   362  3.61  0.  0.
   363  3.62  0.  0.
   364  3.63  0.  0.
   365  3.64  0.  0.
   366  3.65  0.  0.
   367  3.66  0.  0.
   368  3.67  0.  0.
   369  3.68  0.  0.
   370  3.69  0.  0.
   371  3.70  0.  0.
   372  3.71  0.  0.
   373  3.72  0.  0.
   374  3.73  0.  0.
   375  3.74  0.  0.
   376  3.75  0.  0.
   377  3.76  0.  0.
   378  3.77  0.  0.
   379  3.78  0.  0.
   380  3.79  0.  0.
   381  3.80  0.  0.
   382  3.81  0.  0.
   383  3.82  0.  0.
   384  3.83  0.  0.
   385  3.84  0.  0.
   386  3.85  0.  0.
   387  3.86  0.  0.
   388  3.87  0.  0.
   389  3.88  0.  0.
   390  3.89  0.  0.
   391  3.90  0.  0.
   392  3.91  0.  0.
   393  3.92  0.  0.
   394  3.93  0.  0.
   395  3.94  0.  0.
   396  3.95  0.  0.
   397  3.96  0.  0.
   398  3.97  0.  0.
   399  3.98  0.  0.
   400  3.99  0.  0.
   401  4.00  0.  0.
   402  4.01  0.  0.
   403  4.02  0.  0.
   404  4.03  0.  0.
   405  4.04  0.  0.
   406  4.05  0.  0.
   407  4.06  0.  0.
   408  4.07  0.  0.
   409  4.08  0.  0.
   410  4.09  0.  0.
   411  4.10  0.  0.
   412  4.11  0.  0.
   413  4.12  0.  0.
   414  4.13  0.  0.
   415  4.14  0.  0.
   416  4.15  0.  0.
   417  4.16  0.  0.
   418  4.17  0.  0.
   419  4.18  0.  0.
   420  4.19  0.  0.
   421  4.20  0.  0.
   422  4.21  0.  0.
   423  4.22  0.  0.
   424  4.23  0.  0.
   425  4.24  0.  0.
   426  4.25  0.  0.
   427  4.26  0.  0.
   428  4.27  0.  0.
   429  4.28  0.  0.
   430  4.29  0.  0.
   431  4.30  0.  0.
   432  4.31  0.  0.
   433  4.32  0.  0.
   434  4.33  0.  0.
   435  4.34  0.  0.
   436  4.35  0.  0.
   437  4.36  0.  0.
   438  4.37  0.  0.
   439  4.38  0.  0.
   440  4.39  0.  0.
   441  4.40  0.  0.
   442  4.41  0.  0.
   443  4.42  0.  0.
   444  4.43  0.  0.
   445  4.44  0.  0.
   446  4.45  0.  0.
   447  4.46  0.  0.
   448  4.47  0.  0.
   449  4.48  0.  0.
   450  4.49  0.  0.
   451  4.50  0.  0.
   452  4.51  0.  0.
   453  4.52  0.  0.
   454  4.53  0.  0.
   455  4.54  0.  0.
   456  4.55  0.  0.
   457  4.56  0.  0.
   458  4.57  0.  0.
   459  4.58  0.  0.
   460  4.59  0.  0.
   461  4.60  0.  0.
   462  4.61  0.  0.
   463  4.62  0.  0.
   464  4.63  0.  0.
   465  4.64  0.  0.
   466  4.65  0.  0.
   467  4.66  0.  0.
   468  4.67  0.  0.
   469  4.68  0.  0.
   470  4.69  0.  0.
   471  4.70  0.  0.
   472  4.71  0.  0.
   473  4.72  0.  0.
   474  4.73  0.  0.
   475  4.74  0.  0.
   476  4.75  0.  0.
   477  4.76  0.  0.
   478  4.77  0.  0.
   479  4.78  0.  0.
   480  4.79  0.  0.
   481  4.80  0.  0.
   482  4.81  0.  0.
   483  4.82  0.  0.
   484  4.83  0.  0.
   485  4.84  0.  0.
   486  4.85  0.  0.
   487  4.86  0.  0.
   488  4.87  0.  0.
   489  4.88  0.  0.
   490  4.89  0.  0.
   491  4.90  0.  0.
   492  4.91  0.  0.
   493  4.92  0.  0.
   494  4.93  0.  0.
   495  4.94  0.  0.
   496  4.95  0.  0.
   497  4.96  0.  0.
   498  4.97  0.  0.
   499  4.98  0.  0.
   500  4.99  0.  0.
   501  5.00  0.  0.
   502  5.01  0.  0.
   503  5.02  0.  0.
   504  5.03  0.  0.
   505  5.04  0.  0.
   506  5.05  0.  0.
   507  5.06  0.  0.
   508  5.07  0.  0.
   509  5.08  0.  0.
   510  5.09  0.  0.
   511  5.10  0.  0.
   512  5.11  0.  0.
   513  5.12  0.  0.
   514  5.13  0.  0.
   515  5.14  0.  0.
   516  5.15  0.  0.
   517  5.16  0.  0.
   518  5.17  0.  0.
   519  5.18  0.  0.
   520  5.19  0.  0.
   521  5.20  0.  0.
   522  5.21  0.  0.
   523  5.22  0.  0.
   524  5.23  0.  0.
   525  5.24  0.  0.
   526  5.25  0.  0.
   527  5.26  0.  0.
   528  5.27  0.  0.
   529  5.28  0.  0.
   530  5.29  0.  0.
   531  5.30  0.  0.
   532  5.31  0.  0.
   533  5.32  0.  0.
   534  5.33  0.  0.
   535  5.34  0.  0.
   536  5.35  0.  0.
   537  5.36  0.  0.
   538  5.37  0.  0.
   539  5.38  0.  0.
   540  5.39  0.  0.
   541  5.40  0.  0.
   542  5.41  0.  0.
   543  5.42  0.  0.
   544  5.43  0.  0.
   545  5.44  0.  0.
   546  5.45  0.  0.
   547  5.46  0.  0.
   548  5.47  0.  0.
   549  5.48  0.  0.
   550  5.49  0.  0.
   551  5.50  0.  0.
   552  5.51  0.  0.
   553  5.52  0.  0.
   554  5.53  0.  0.
   555  5.54  0.  0.
   556  5.55  0.  0.
   557  5.56  0.  0.
   558  5.57  0.  0.
   559  5.58  0.  0.
   560  5.59  0.  0.
   561  5.60  0.  0.
   562  5.61  0.  0.
   563  5.62  0.  0.
   564  5.63  0.  0.
   565  5.64  0.  0.
   566  5.65  0.  0.
   567  5.66  0.  0.
   568  5.67  0.  0.
   569  5.68  0.  0.
   570  5.69  0.  0.
   571  5.70  0.  0.
   572  5.71  0.  0.
   573  5.72  0.  0.
   574  5.73  0.  0.
   575  5.74  0.  0.
   576  5.75  0.  0.
   577  5.76  0.  0.
   578  5.77  0.  0.
   579  5.78  0.  0.
   580  5.79  0.  0.
   581  5.80  0.  0.
   582  5.81  0.  0.
   583  5.82  0.  0.
   584  5.83  0.  0.
   585  5.84  0.  0.
   586  5.85  0.  0.
   587  5.86  0.  0.
   588  5.87  0.  0.
   589  5.88  0.  0.
   590  5.89  0.  0.
   591  5.90  0.  0.
   592  5.91  0.  0.
   593  5.92  0.  0.
   594  5.93  0.  0.
   595  5.94  0.  0.
   596  5.95  0.  0.
   597  5.96  0.  0.
   598  5.97  0.  0.
   599  5.98  0.  0.
   600  5.99  0.  0.
   1                         7.8863022647956E+00  8.1466595096824E-01
     1  0.0000000000000E+00 -5.0732734679926E-10  2.0013524310025E-09
     2  1.0000000000000E-02  1.4079077686593E-03 -7.0239481255908E-04
     3  2.0000000000000E-02  5.6275973553949E-03 -2.8083767943334E-03
     4  3.0000000000000E-02  1.2646964169976E-02 -6.3142873720548E-03
     5  4.0000000000000E-02  2.2445822750515E-02 -1.1213859393680E-02
     6  5.0000000000000E-02  3.4995891079729E-02 -1.7497966857517E-02
     7  6.0000000000000E-02  5.0260770674979E-02 -2.5154282510314E-02
     8  7.0000000000000E-02  6.8195924453544E-02 -3.4166851127609E-02
     9  8.0000000000000E-02  8.8748654881896E-02 -4.4515588290931E-02
    10  9.0000000000000E-02  1.1185808537795E-01 -5.6175716309042E-02
    11  1.0000000000000E-01  1.3745514833967E-01 -6.9117150563211E-02
    12  1.1000000000000E-01  1.6546258351389E-01 -8.3303850960066E-02
    13  1.2000000000000E-01  1.9579495068897E-01 -9.8693154325629E-02
    14  1.3000000000000E-01  2.2835866088787E-01 -1.1523510444913E-01
    15  1.4000000000000E-01  2.6305203035030E-01 -1.3287179706920E-01
    16  1.5000000000000E-01  2.9976536162008E-01 -1.5153675737580E-01
    17  1.6000000000000E-01  3.3838105599500E-01 -1.7115436757183E-01
    18  1.7000000000000E-01  3.7877376145121E-01 -1.9163936169749E-01
    19  1.8000000000000E-01  4.2081055992293E-01 -2.1289640427015E-01
    20  1.9000000000000E-01  4.6435119750377E-01 -2.3481976834202E-01
    21  2.0000000000000E-01  5.0924836074194E-01 -2.5729312733986E-01
    22  2.1000000000000E-01  5.5534800173318E-01 -2.8018947354265E-01
    23  2.2000000000000E-01  6.0248971417873E-01 -3.0337117429828E-01
    24  2.3000000000000E-01  6.5050716197858E-01 -3.2669017510337E-01
    25  2.4000000000000E-01  6.9922856128131E-01 -3.4998835650353E-01
    26  2.5000000000000E-01  7.4847721622038E-01 -3.7309804944571E-01
    27  2.6000000000000E-01  7.9807210784301E-01 -3.9584271126866E-01
    28  2.7000000000000E-01  8.4782853499320E-01 -4.1803776198743E-01
    29  2.8000000000000E-01  8.9755880515539E-01 -4.3949157795545E-01
    30  2.9000000000000E-01  9.4707297251202E-01 -4.6000663741225E-01
    31  3.0000000000000E-01  9.9617961972878E-01 -4.7938080988866E-01
    32  3.1000000000000E-01  1.0446866792662E+00 -4.9740877898414E-01
    33  3.2000000000000E-01  1.0924022893373E+00 -5.1388358569301E-01
    34  3.3000000000000E-01  1.1391356790010E+00 -5.2859827727626E-01
    35  3.4000000000000E-01  1.1846980763036E+00 -5.4134764468824E-01
    36  3.5000000000000E-01  1.2289036328777E+00 -5.5193002980647E-01
    37  3.6000000000000E-01  1.2715703579713E+00 -5.6014918220824E-01
    38  3.7000000000000E-01  1.3125210545329E+00 -5.6581614401355E-01
    39  3.8000000000000E-01  1.3515842497163E+00 -5.6875114039434E-01
    40  3.9000000000000E-01  1.3885951120026E+00 -5.6878545274870E-01
    41  4.0000000000000E-01  1.4233963470651E+00 -5.6576325127035E-01
    42  4.1000000000000E-01  1.4558390645318E+00 -5.5954336371281E-01
    43  4.2000000000000E-01  1.4857836079319E+00 -5.5000095755654E-01
    44  4.3000000000000E-01  1.5131003403333E+00 -5.3702911353203E-01
    45  4.4000000000000E-01  1.5376703785090E+00 -5.2054026952243E-01
    46  4.5000000000000E-01  1.5593862688779E+00 -5.0046751525196E-01
    47  4.6000000000000E-01  1.5781525989746E+00 -4.7676571984114E-01
    48  4.7000000000000E-01  1.5938865387803E+00 -4.4941247625302E-01
    49  4.8000000000000E-01  1.6065183069035E+00 -4.1840884883767E-01
    50  4.9000000000000E-01  1.6159915573178E+00 -3.8377991257256E-01
    51  5.0000000000000E-01  1.6222636831348E+00 -3.4557507515956E-01
    52  5.1000000000000E-01  1.6253060347041E+00 -3.0386817583534E-01
    53  5.2000000000000E-01  1.6251040501800E+00 -2.5875735754217E-01
    54  5.3000000000000E-01  1.6216572975574E+00 -2.1036471194721E-01
    55  5.4000000000000E-01  1.6149794280553E+00 -1.5883569964836E-01
    56  5.5000000000000E-01  1.6050980415926E+00 -1.0433835072062E-01
    57  5.6000000000000E-01  1.5920544659562E+00 -4.7062253495856E-02
    58  5.7000000000000E-01  1.5759034520835E+00  1.2782657908635E-02
    59  5.8000000000000E-01  1.5567127886683E+00  7.4967504332623E-02
    60  5.9000000000000E-01  1.5345628400353E+00  1.3924603533338E-01
    61  6.0000000000000E-01  1.5095460119062E+00  2.0535635866502E-01
    62  6.1000000000000E-01  1.4817661502884E+00  2.7302280638683E-01
    63  6.2000000000000E-01  1.4513378792542E+00  3.4195791700146E-01
    64  6.3000000000000E-01  1.4183858838312E+00  4.1186451181561E-01
    65  6.4000000000000E-01  1.3830441445929E+00  4.8243784282606E-01
    66  6.5000000000000E-01  1.3454551308166E+00  5.5336778887063E-01
    67  6.6000000000000E-01  1.3057689592652E+00  6.2434107655500E-01
    68  6.7000000000000E-01  1.2641425257413E+00  6.9504350256920E-01
    69  6.8000000000000E-01  1.2207386165729E+00  7.6516213443831E-01
    70  6.9000000000000E-01  1.1757250071018E+00  8.3438746749795E-01
    71  7.0000000000000E-01  1.1292735540817E+00  9.0241551693196E-01
    72  7.1000000000000E-01  1.0815592886463E+00  9.6894982503452E-01
    73  7.2000000000000E-01  1.0327595161868E+00  1.0337033654384E+00
    74  7.3000000000000E-01  9.8305292909527E-01  1.0964003278542E+00
    75  7.4000000000000E-01  9.3261873788814E-01  1.1567777688614E+00
    76  7.5000000000000E-01  8.8163582573458E-01  1.2145871164417E+00
    77  7.6000000000000E-01  8.3028193088618E-01  1.2695955182188E+00
    78  7.7000000000000E-01  7.7873286094952E-01  1.3215870257125E+00
    79  7.8000000000000E-01  7.2716174236917E-01  1.3703636093098E+00
    80  7.9000000000000E-01  6.7573830790832E-01  1.4157460010369E+00
    81  8.0000000000000E-01  6.2462822433696E-01  1.4575743645661E+00
    82  8.1000000000000E-01  5.7399246197274E-01  1.4957087941573E+00
    83  8.2000000000000E-01  5.2398670717838E-01  1.5300296463853E+00
    84  8.3000000000000E-01  4.7476081840841E-01  1.5604377105047E+00
    85  8.4000000000000E-01  4.2645832592724E-01  1.5868542251260E+00
    86  8.5000000000000E-01  3.7921597489507E-01  1.6092207504908E+00
    87  8.6000000000000E-01  3.3316331114553E-01  1.6274989070133E+00
    88  8.7000000000000E-01  2.8842230866250E-01  1.6416699918926E+00
    89  8.8000000000000E-01  2.4510703750788E-01  1.6517344864670E+00
    90  8.9000000000000E-01  2.0332337075822E-01  1.6577114675834E+00
    91  9.0000000000000E-01  1.6316872887812E-01  1.6596379365742E+00
    92  9.1000000000000E-01  1.2473185989022E-01  1.6575680794876E+00
    93  9.2000000000000E-01  8.8092653695076E-02  1.6515724719923E+00
    94  9.3000000000000E-01  5.3321988944961E-02  1.6417372419089E+00
    95  9.4000000000000E-01  2.0481610980251E-02  1.6281632015983E+00
    96  9.5000000000000E-01 -1.0375960510107E-02  1.6109649615036E+00
    97  9.6000000000000E-01 -3.9207495247585E-02  1.5902700350073E+00
    98  9.7000000000000E-01 -6.5979088456249E-02  1.5662179434604E+00
    99  9.8000000000000E-01 -9.0666169944193E-02  1.5389593287970E+00
   100  9.9000000000000E-01 -1.1325348655404E-01  1.5086550795950E+00
   101  1.0000000000000E+00 -1.3373505807457E-01  1.4754754748148E+00
   102  1.0100000000000E+00 -1.5211410641650E-01  1.4395993477806E+00
   103  1.0200000000000E+00 -1.6840295757162E-01  1.4012132712944E+00
   104  1.0300000000000E+00 -1.8262291560655E-01  1.3605107631245E+00
   105  1.0400000000000E+00 -1.9480410769591E-01  1.3176915095242E+00
   106  1.0500000000000E+00 -2.0498529898381E-01  1.2729606029403E+00
   107  1.0600000000000E+00 -2.1321367588267E-01  1.2265277886944E+00
   108  1.0700000000000E+00 -2.1954459628079E-01  1.1786067141903E+00
   109  1.0800000000000E+00 -2.2404130503941E-01  1.1294141731360E+00
   110  1.0900000000000E+00 -2.2677461311970E-01  1.0791693363937E+00
   111  1.1000000000000E+00 -2.2782253869273E-01  1.0280929603916E+00
   112  1.1100000000000E+00 -2.2726990865292E-01  9.7640656356793E-01
   113  1.1200000000000E+00 -2.2520791907618E-01  9.2433156106758E-01
   114  1.1300000000000E+00 -2.2173365333891E-01  8.7208834787646E-01
   115  1.1400000000000E+00 -2.1694955683874E-01  8.1989532076363E-01
   116  1.1500000000000E+00 -2.1096286753039E-01  7.6796782978718E-01
   117  1.1600000000000E+00 -2.0388500180433E-01  7.1651705070151E-01
   118  1.1700000000000E+00 -1.9583089558776E-01  6.6574877036600E-01
   119  1.1800000000000E+00 -1.8691830092873E-01  6.1586207817398E-01
   120  1.1900000000000E+00 -1.7726703872886E-01  5.6704795757894E-01
   121  1.2000000000000E+00 -1.6699820871075E-01  5.1948777296709E-01
   122  1.2100000000000E+00 -1.5623335813098E-01  4.7335164837777E-01
   123  1.2200000000000E+00 -1.4509361117722E-01  4.2879673589372E-01
   124  1.2300000000000E+00 -1.3369876139928E-01  3.8596537285507E-01
   125  1.2400000000000E+00 -1.2216632939908E-01  3.4498312469903E-01
   126  1.2500000000000E+00 -1.1061059470318E-01  3.0595675701094E-01
   127  1.2600000000000E+00 -9.9141623567305E-02  2.6897227813783E-01
   128  1.2700000000000E+00 -8.7865321270679E-02  2.3410040615167E-01
   129  1.2800000000000E+00 -7.6884380940908E-02  2.0140745034293E-01
   130  1.2900000000000E+00 -6.6298176862041E-02  1.7095738367324E-01
   131  1.3000000000000E+00 -5.6202402138684E-02  1.4281184754806E-01
   132  1.3100000000000E+00 -4.6688717773663E-02  1.1703014346360E-01
   133  1.3200000000000E+00 -3.7844424919611E-02  9.3669218572049E-02
   134  1.3300000000000E+00 -2.9752108802758E-02  7.2783532043869E-02