Nb    ONCVPSP-4.0.1  r_core=   1.50740   1.40298   1.40298
     41.0000     13.0000      250925    zatom,zion,pspd
     8   -1012   2     4   600     0    pspcod,pspxc,lmax,lloc,mmax,r2well
  5.99000000  5.00000000  0.00000000    rchrg fchrg qchrg
     2     2     2     0    nproj
     3     1           extension_switch
     3     3     0    nprojso
   0                         1.2683938363734E+01  1.2634799700142E+00
     1  0.0000000000000E+00 -1.0780309978031E-10  5.4421459005916E-10
     2  1.0000000000000E-02  5.2506883382580E-02 -2.5301565799519E-02
     3  2.0000000000000E-02  1.0495747714605E-01 -5.0511642142077E-02
     4  3.0000000000000E-02  1.5729553199681E-01 -7.5539295287758E-02
     5  4.0000000000000E-02  2.0946487820781E-01 -1.0029469419191E-01
     6  5.0000000000000E-02  2.6140946271893E-01 -1.2468964014678E-01
     7  6.0000000000000E-02  3.1307338309587E-01 -1.4863807076845E-01
     8  7.0000000000000E-02  3.6440091742959E-01 -1.7205653042638E-01
     9  8.0000000000000E-02  4.1533654936565E-01 -1.9486459975668E-01
    10  9.0000000000000E-02  4.6582498758480E-01 -2.1698527756655E-01
    11  1.0000000000000E-01  5.1581117920843E-01 -2.3834530921539E-01
    12  1.1000000000000E-01  5.6524031677494E-01 -2.5887545643803E-01
    13  1.2000000000000E-01  6.1405783862054E-01 -2.7851070454365E-01
    14  1.3000000000000E-01  6.6220942269878E-01 -2.9719040396814E-01
    15  1.4000000000000E-01  7.0964097408380E-01 -3.1485834426132E-01
    16  1.5000000000000E-01  7.5629860661760E-01 -3.3146275973844E-01
    17  1.6000000000000E-01  8.0212861938041E-01 -3.4695626720135E-01
    18  1.7000000000000E-01  8.4707746887893E-01 -3.6129573732035E-01
    19  1.8000000000000E-01  8.9109173805752E-01 -3.7444210244638E-01
    20  1.9000000000000E-01  9.3411810343790E-01 -3.8636010477623E-01
    21  2.0000000000000E-01  9.7610330187925E-01 -3.9701798990417E-01
    22  2.1000000000000E-01  1.0169940986196E+00 -4.0638715184341E-01
    23  2.2000000000000E-01  1.0567372584063E+00 -4.1444173657386E-01
    24  2.3000000000000E-01  1.0952795216475E+00 -4.2115821205339E-01
    25  2.4000000000000E-01  1.1325675876086E+00 -4.2651491340160E-01
    26  2.5000000000000E-01  1.1685481067447E+00 -4.3049157261660E-01
    27  2.6000000000000E-01  1.2031676842888E+00 -4.3306884270184E-01
    28  2.7000000000000E-01  1.2363728972096E+00 -4.3422782645275E-01
    29  2.8000000000000E-01  1.2681103266146E+00 -4.3394962037280E-01
    30  2.9000000000000E-01  1.2983266075906E+00 -4.3221488424711E-01
    31  3.0000000000000E-01  1.3269684983578E+00 -4.2900344679738E-01
    32  3.1000000000000E-01  1.3539829704556E+00 -4.2429395756840E-01
    33  3.2000000000000E-01  1.3793173214830E+00 -4.1806359475660E-01
    34  3.3000000000000E-01  1.4029193116857E+00 -4.1028783808542E-01
    35  3.4000000000000E-01  1.4247373254126E+00 -4.0094031506603E-01
    36  3.5000000000000E-01  1.4447205581664E+00 -3.8999272806053E-01
    37  3.6000000000000E-01  1.4628192296403E+00 -3.7741486850075E-01
    38  3.7000000000000E-01  1.4789848227786E+00 -3.6317472341506E-01
    39  3.8000000000000E-01  1.4931703485155E+00 -3.4723867809867E-01
    40  3.9000000000000E-01  1.5053306354517E+00 -3.2957181733875E-01
    41  4.0000000000000E-01  1.5154226433140E+00 -3.1013832609669E-01
    42  4.1000000000000E-01  1.5234057986243E+00 -2.8890198897274E-01
    43  4.2000000000000E-01  1.5292423505796E+00 -2.6582678615458E-01
    44  4.3000000000000E-01  1.5328977447273E+00 -2.4087758190227E-01
    45  4.4000000000000E-01  1.5343410116052E+00 -2.1402089997193E-01
    46  4.5000000000000E-01  1.5335451671223E+00 -1.8522577875033E-01
    47  4.6000000000000E-01  1.5304876210794E+00 -1.5446469728957E-01
    48  4.7000000000000E-01  1.5251505898818E+00 -1.2171456191536E-01
    49  4.8000000000000E-01  1.5175215091795E+00 -8.6957741660841E-02
    50  4.9000000000000E-01  1.5075934418970E+00 -5.0183139472501E-02
    51  5.0000000000000E-01  1.4953654768799E+00 -1.1387284965316E-02
    52  5.1000000000000E-01  1.4808431132048E+00  2.9424566503341E-02
    53  5.2000000000000E-01  1.4640386250687E+00  7.2237344504167E-02
    54  5.3000000000000E-01  1.4449714021038E+00  1.1702510064897E-01
    55  5.4000000000000E-01  1.4236682599517E+00  1.6374998927082E-01
    56  5.5000000000000E-01  1.4001637159874E+00  2.1236130899787E-01
    57  5.6000000000000E-01  1.3745002251991E+00  2.6279462251757E-01
    58  5.7000000000000E-01  1.3467283714181E+00  3.1497097155785E-01
    59  5.8000000000000E-01  1.3169070093452E+00  3.6879620359752E-01
    60  5.9000000000000E-01  1.2851033531393E+00  4.2416042605958E-01
    61  6.0000000000000E-01  1.2513930077175E+00  4.8093760274163E-01
    62  6.1000000000000E-01  1.2158599393649E+00  5.3898530600000E-01
    63  6.2000000000000E-01  1.1785963827534E+00  5.9814463674314E-01
    64  6.3000000000000E-01  1.1397026820362E+00  6.5824032261291E-01
    65  6.4000000000000E-01  1.0992870642885E+00  7.1908100285936E-01
    66  6.5000000000000E-01  1.0574653442248E+00  7.8045970636225E-01
    67  6.6000000000000E-01  1.0143605598130E+00  8.4215452704543E-01
    68  6.7000000000000E-01  9.7010253912765E-01  9.0392949859010E-01
    69  6.8000000000000E-01  9.2482739952934E-01  9.6553566791071E-01
    70  6.9000000000000E-01  8.7867698101625E-01  1.0267123643385E+00
    71  7.0000000000000E-01  8.3179821635480E-01  1.0871886588980E+00
    72  7.1000000000000E-01  7.8434244135627E-01  1.1466850054890E+00
    73  7.2000000000000E-01  7.3646464940989E-01  1.2049150532389E+00
    74  7.3000000000000E-01  6.8832269510441E-01  1.2615876167981E+00
    75  7.4000000000000E-01  6.4007645245832E-01  1.3164087889513E+00
    76  7.5000000000000E-01  5.9188693392489E-01  1.3690841776424E+00
    77  7.6000000000000E-01  5.4391537693338E-01  1.4193212473944E+00
    78  7.7000000000000E-01  4.9632230526268E-01  1.4668317431770E+00
    79  7.8000000000000E-01  4.4926657301117E-01  1.5113341730708E+00
    80  7.9000000000000E-01  4.0290439931884E-01  1.5525563246111E+00
    81  8.0000000000000E-01  3.5738840230794E-01  1.5902377885130E+00
    82  8.1000000000000E-01  3.1286664093164E-01  1.6241324625789E+00
    83  8.2000000000000E-01  2.6948167355098E-01  1.6540110080120E+00
    84  8.3000000000000E-01  2.2736964209525E-01  1.6796632301012E+00
    85  8.4000000000000E-01  1.8665939059818E-01  1.7009003553264E+00
    86  8.5000000000000E-01  1.4747162673905E-01  1.7175571773564E+00
    87  8.6000000000000E-01  1.0991813475604E-01  1.7294940451834E+00
    88  8.7000000000000E-01  7.4101047738241E-02  1.7365986677492E+00
    89  8.8000000000000E-01  4.0112186846410E-02  1.7387877108651E+00
    90  8.9000000000000E-01  8.0324744644907E-03  1.7360081639957E+00
    91  9.0000000000000E-01 -2.2068572351641E-02  1.7282384565530E+00
    92  9.1000000000000E-01 -5.0133262477275E-02  1.7154893057038E+00
    93  9.2000000000000E-01 -7.6116060512022E-02  1.6978042803145E+00
    94  9.3000000000000E-01 -9.9983821754836E-02  1.6752600685012E+00
    95  9.4000000000000E-01 -1.2171592926176E-01  1.6479664393035E+00
    96  9.5000000000000E-01 -1.4130433084101E-01  1.6160658922003E+00
    97  9.6000000000000E-01 -1.5875347482769E-01  1.5797329915205E+00
    98  9.7000000000000E-01 -1.7408014449042E-01  1.5391733862047E+00
    99  9.8000000000000E-01 -1.8731319194180E-01  1.4946225188275E+00
   100  9.9000000000000E-01 -1.9849317344249E-01  1.4463440312288E+00
   101  1.0000000000000E+00 -2.0767188899120E-01  1.3946278774962E+00
   102  1.0100000000000E+00 -2.1491183006777E-01  1.3397881583378E+00
   103  1.0200000000000E+00 -2.2028554033222E-01  1.2821606940461E+00
   104  1.0300000000000E+00 -2.2387489496638E-01  1.2221003562285E+00
   105  1.0400000000000E+00 -2.2577030516435E-01  1.1599781812402E+00
   106  1.0500000000000E+00 -2.2606985502577E-01  1.0961782907504E+00
   107  1.0600000000000E+00 -2.2487837876756E-01  1.0310946470738E+00
   108  1.0700000000000E+00 -2.2230648674045E-01  9.6512767277471E-01
   109  1.0800000000000E+00 -2.1846954920625E-01  8.9868076557038E-01
   110  1.0900000000000E+00 -2.1348664719411E-01  8.3215674070159E-01
   111  1.1000000000000E+00 -2.0747950000520E-01  7.6595423368496E-01
   112  1.1100000000000E+00 -2.0057137906934E-01  7.0046409669575E-01
   113  1.1200000000000E+00 -1.9288601787408E-01  6.3606582174934E-01
   114  1.1300000000000E+00 -1.8454652758425E-01  5.7312402334663E-01
   115  1.1400000000000E+00 -1.7567432774980E-01  5.1198501233151E-01
   116  1.1500000000000E+00 -1.6638810116365E-01  4.5297349138052E-01
   117  1.1600000000000E+00 -1.5680278148397E-01  3.9638940082762E-01
   118  1.1700000000000E+00 -1.4702858168107E-01  3.4250494143183E-01
   119  1.1800000000000E+00 -1.3717007071603E-01  2.9156179825574E-01
   120  1.1900000000000E+00 -1.2732530511424E-01  2.4376858706470E-01
   121  1.2000000000000E+00 -1.1758502126913E-01  1.9929854160687E-01
   122  1.2100000000000E+00 -1.0803189341753E-01  1.5828745685809E-01
   123  1.2200000000000E+00 -9.8739861266259E-02  1.2083189980591E-01
   124  1.2300000000000E+00 -8.9773530249865E-02  8.6987695709848E-02
   125  1.2400000000000E+00 -8.1187645834901E-02  5.6768691077348E-02
   126  1.2500000000000E+00 -7.3026648591902E-02  3.0145826754604E-02
   127  1.2600000000000E+00 -6.5324328624168E-02  7.0466274753386E-03
   128  1.2700000000000E+00 -5.8104607850287E-02 -1.2639083502072E-02
   129  1.2800000000000E+00 -5.1383255778351E-02 -2.9048913430236E-02
   130  1.2900000000000E+00 -4.5168556623142E-02 -4.2344364264193E-02
   131  1.3000000000000E+00 -3.9461778427082E-02 -5.2708663889873E-02
   132  1.3100000000000E+00 -3.4257713036156E-02 -6.0344353886139E-02
   133  1.3200000000000E+00 -2.9545276488080E-02 -6.5470679301198E-02
   134  1.3300000000000E+00 -2.5308162581482E-02 -6.8320805749546E-02
   135  1.3400000000000E+00 -2.1525541145522E-02 -6.9138895106232E-02
   136  1.3500000000000E+00 -1.8172792126331E-02 -6.8177072285071E-02
   137  1.3600000000000E+00 -1.5222266217423E-02 -6.5692316956764E-02
   138  1.3700000000000E+00 -1.2644062479068E-02 -6.1943315047139E-02
   139  1.3800000000000E+00 -1.0406813222736E-02 -5.7187305433151E-02
   140  1.3900000000000E+00 -8.4784663806376E-03 -5.1676957424827E-02
   141  1.4000000000000E+00 -6.8270556382878E-03 -4.5657314381453E-02
   142  1.4100000000000E+00 -5.4214471032411E-03 -3.9362842497230E-02
   143  1.4200000000000E+00 -4.2320655540652E-03 -3.3014586381820E-02
   144  1.4300000000000E+00 -3.2315410550921E-03 -2.6817599191944E-02
   145  1.4400000000000E+00 -2.3986125678681E-03 -2.0949941545624E-02
   146  1.4500000000000E+00 -1.7170097947771E-03 -1.5564373872784E-02
   147  1.4600000000000E+00 -1.1659654938684E-03 -1.0812772342057E-02
   148  1.4700000000000E+00 -7.2961199805895E-04 -6.8217831443000E-03
   149  1.4800000000000E+00 -3.9730661823203E-04 -3.6913304021384E-03
   150  1.4900000000000E+00 -1.6392957620851E-04 -1.4922214955840E-03
   151  1.5000000000000E+00 -3.1462784347417E-05 -2.7672473647899E-04
   152  1.5100000000000E+00  2.1706857817232E-06  1.8577644764233E-05
   153  1.5200000000000E+00 -6.7330097196880E-07 -5.8430924255262E-06
   154  1.53  0.  0.
   155  1.54  0.  0.
   156  1.55  0.  0.
   157  1.56  0.  0.
   158  1.57  0.  0.
   159  1.58  0.  0.
   160  1.59  0.  0.
   161  1.60  0.  0.
   162  1.61  0.  0.
   163  1.62  0.  0.
   164  1.63  0.  0.
   165  1.64  0.  0.
   166  1.65  0.  0.
   167  1.66  0.  0.
   168  1.67  0.  0.
   169  1.68  0.  0.
   170  1.69  0.  0.
   171  1.70  0.  0.
   172  1.71  0.  0.
   173  1.72  0.  0.
   174  1.73  0.  0.
   175  1.74  0.  0.
   176  1.75  0.  0.
   177  1.76  0.  0.
   178  1.77  0.  0.
   179  1.78  0.  0.
   180  1.79  0.  0.
   181  1.80  0.  0.
   182  1.81  0.  0.
   183  1.82  0.  0.
   184  1.83  0.  0.
   185  1.84  0.  0.
   186  1.85  0.  0.
   187  1.86  0.  0.
   188  1.87  0.  0.
   189  1.88  0.  0.
   190  1.89  0.  0.
   191  1.90  0.  0.
   192  1.91  0.  0.
   193  1.92  0.  0.
   194  1.93  0.  0.
   195  1.94  0.  0.
   196  1.95  0.  0.
   197  1.96  0.  0.
   198  1.97  0.  0.
   199  1.98  0.  0.
   200  1.99  0.  0.
   201  2.00  0.  0.
   202  2.01  0.  0.
   203  2.02  0.  0.
   204  2.03  0.  0.
   205  2.04  0.  0.
   206  2.05  0.  0.
   207  2.06  0.  0.
   208  2.07  0.  0.
   209  2.08  0.  0.
   210  2.09  0.  0.
   211  2.10  0.  0.
   212  2.11  0.  0.
   213  2.12  0.  0.
   214  2.13  0.  0.
   215  2.14  0.  0.
   216  2.15  0.  0.
   217  2.16  0.  0.
   218  2.17  0.  0.
   219  2.18  0.  0.
   220  2.19  0.  0.
   221  2.20  0.  0.
   222  2.21  0.  0.
   223  2.22  0.  0.
   224  2.23  0.  0.
   225  2.24  0.  0.
   226  2.25  0.  0.
   227  2.26  0.  0.
   228  2.27  0.  0.
   229  2.28  0.  0.
   230  2.29  0.  0.
   231  2.30  0.  0.
   232  2.31  0.  0.
   233  2.32  0.  0.
   234  2.33  0.  0.
   235  2.34  0.  0.
   236  2.35  0.  0.
   237  2.36  0.  0.
   238  2.37  0.  0.
   239  2.38  0.  0.
   240  2.39  0.  0.
   241  2.40  0.  0.
   242  2.41  0.  0.
   243  2.42  0.  0.
   244  2.43  0.  0.
   245  2.44  0.  0.
   246  2.45  0.  0.
   247  2.46  0.  0.
   248  2.47  0.  0.
   249  2.48  0.  0.
   250  2.49  0.  0.
   251  2.50  0.  0.
   252  2.51  0.  0.
   253  2.52  0.  0.
   254  2.53  0.  0.
   255  2.54  0.  0.
   256  2.55  0.  0.
   257  2.56  0.  0.
   258  2.57  0.  0.
   259  2.58  0.  0.
   260  2.59  0.  0.
   261  2.60  0.  0.
   262  2.61  0.  0.
   263  2.62  0.  0.
   264  2.63  0.  0.
   265  2.64  0.  0.
   266  2.65  0.  0.
   267  2.66  0.  0.
   268  2.67  0.  0.
   269  2.68  0.  0.
   270  2.69  0.  0.
   271  2.70  0.  0.
   272  2.71  0.  0.
   273  2.72  0.  0.
   274  2.73  0.  0.
   275  2.74  0.  0.
   276  2.75  0.  0.
   277  2.76  0.  0.
   278  2.77  0.  0.
   279  2.78  0.  0.
   280  2.79  0.  0.
   281  2.80  0.  0.
   282  2.81  0.  0.
   283  2.82  0.  0.
   284  2.83  0.  0.
   285  2.84  0.  0.
   286  2.85  0.  0.
   287  2.86  0.  0.
   288  2.87  0.  0.
   289  2.88  0.  0.
   290  2.89  0.  0.
   291  2.90  0.  0.
   292  2.91  0.  0.
   293  2.92  0.  0.
   294  2.93  0.  0.
   295  2.94  0.  0.
   296  2.95  0.  0.
   297  2.96  0.  0.
   298  2.97  0.  0.
   299  2.98  0.  0.
   300  2.99  0.  0.
   301  3.00  0.  0.
   302  3.01  0.  0.
   303  3.02  0.  0.
   304  3.03  0.  0.
   305  3.04  0.  0.
   306  3.05  0.  0.
   307  3.06  0.  0.
   308  3.07  0.  0.
   309  3.08  0.  0.
   310  3.09  0.  0.
   311  3.10  0.  0.
   312  3.11  0.  0.
   313  3.12  0.  0.
   314  3.13  0.  0.
   315  3.14  0.  0.
   316  3.15  0.  0.
   317  3.16  0.  0.
   318  3.17  0.  0.
   319  3.18  0.  0.
   320  3.19  0.  0.
   321  3.20  0.  0.
   322  3.21  0.  0.
   323  3.22  0.  0.
   324  3.23  0.  0.
   325  3.24  0.  0.
   326  3.25  0.  0.
   327  3.26  0.  0.
   328  3.27  0.  0.
   329  3.28  0.  0.
   330  3.29  0.  0.
   331  3.30  0.  0.
   332  3.31  0.  0.
   333  3.32  0.  0.
   334  3.33  0.  0.
   335  3.34  0.  0.
   336  3.35  0.  0.
   337  3.36  0.  0.
   338  3.37  0.  0.
   339  3.38  0.  0.
   340  3.39  0.  0.
   341  3.40  0.  0.
   342  3.41  0.  0.
   343  3.42  0.  0.
   344  3.43  0.  0.
   345  3.44  0.  0.
   346  3.45  0.  0.
   347  3.46  0.  0.
   348  3.47  0.  0.
   349  3.48  0.  0.
   350  3.49  0.  0.
   351  3.50  0.  0.
   352  3.51  0.  0.
   353  3.52  0.  0.
   354  3.53  0.  0.
   355  3.54  0.  0.
   356  3.55  0.  0.
   357  3.56  0.  0.
   358  3.57  0.  0.
   359  3.58  0.  0.
   360  3.59  0.  0.
   361  3.60  0.  0.
   362  3.61  0.  0.
   363  3.62  0.  0.
   364  3.63  0.  0.
   365  3.64  0.  0.
   366  3.65  0.  0.
   367  3.66  0.  0.
   368  3.67  0.  0.
   369  3.68  0.  0.
   370  3.69  0.  0.
   371  3.70  0.  0.
   372  3.71  0.  0.
   373  3.72  0.  0.
   374  3.73  0.  0.
   375  3.74  0.  0.
   376  3.75  0.  0.
   377  3.76  0.  0.
   378  3.77  0.  0.
   379  3.78  0.  0.
   380  3.79  0.  0.
   381  3.80  0.  0.
   382  3.81  0.  0.
   383  3.82  0.  0.
   384  3.83  0.  0.
   385  3.84  0.  0.
   386  3.85  0.  0.
   387  3.86  0.  0.
   388  3.87  0.  0.
   389  3.88  0.  0.
   390  3.89  0.  0.
   391  3.90  0.  0.
   392  3.91  0.  0.
   393  3.92  0.  0.
   394  3.93  0.  0.
   395  3.94  0.  0.
   396  3.95  0.  0.
   397  3.96  0.  0.
   398  3.97  0.  0.
   399  3.98  0.  0.
   400  3.99  0.  0.
   401  4.00  0.  0.
   402  4.01  0.  0.
   403  4.02  0.  0.
   404  4.03  0.  0.
   405  4.04  0.  0.
   406  4.05  0.  0.
   407  4.06  0.  0.
   408  4.07  0.  0.
   409  4.08  0.  0.
   410  4.09  0.  0.
   411  4.10  0.  0.
   412  4.11  0.  0.
   413  4.12  0.  0.
   414  4.13  0.  0.
   415  4.14  0.  0.
   416  4.15  0.  0.
   417  4.16  0.  0.
   418  4.17  0.  0.
   419  4.18  0.  0.
   420  4.19  0.  0.
   421  4.20  0.  0.
   422  4.21  0.  0.
   423  4.22  0.  0.
   424  4.23  0.  0.
   425  4.24  0.  0.
   426  4.25  0.  0.
   427  4.26  0.  0.
   428  4.27  0.  0.
   429  4.28  0.  0.
   430  4.29  0.  0.
   431  4.30  0.  0.
   432  4.31  0.  0.
   433  4.32  0.  0.
   434  4.33  0.  0.
   435  4.34  0.  0.
   436  4.35  0.  0.
   437  4.36  0.  0.
   438  4.37  0.  0.
   439  4.38  0.  0.
   440  4.39  0.  0.
   441  4.40  0.  0.
   442  4.41  0.  0.
   443  4.42  0.  0.
   444  4.43  0.  0.
   445  4.44  0.  0.
   446  4.45  0.  0.
   447  4.46  0.  0.
   448  4.47  0.  0.
   449  4.48  0.  0.
   450  4.49  0.  0.
   451  4.50  0.  0.
   452  4.51  0.  0.
   453  4.52  0.  0.
   454  4.53  0.  0.
   455  4.54  0.  0.
   456  4.55  0.  0.
   457  4.56  0.  0.
   458  4.57  0.  0.
   459  4.58  0.  0.
   460  4.59  0.  0.
   461  4.60  0.  0.
   462  4.61  0.  0.
   463  4.62  0.  0.
   464  4.63  0.  0.
   465  4.64  0.  0.
   466  4.65  0.  0.
   467  4.66  0.  0.
   468  4.67  0.  0.
   469  4.68  0.  0.
   470  4.69  0.  0.
   471  4.70  0.  0.
   472  4.71  0.  0.
   473  4.72  0.  0.
   474  4.73  0.  0.
   475  4.74  0.  0.
   476  4.75  0.  0.
   477  4.76  0.  0.
   478  4.77  0.  0.
   479  4.78  0.  0.
   480  4.79  0.  0.
   481  4.80  0.  0.
   482  4.81  0.  0.
   483  4.82  0.  0.
   484  4.83  0.  0.
   485  4.84  0.  0.
   486  4.85  0.  0.
   487  4.86  0.  0.
   488  4.87  0.  0.
   489  4.88  0.  0.
   490  4.89  0.  0.
   491  4.90  0.  0.
   492  4.91  0.  0.
   493  4.92  0.  0.
   494  4.93  0.  0.
   495  4.94  0.  0.
   496  4.95  0.  0.
   497  4.96  0.  0.
   498  4.97  0.  0.
   499  4.98  0.  0.
   500  4.99  0.  0.
   501  5.00  0.  0.
   502  5.01  0.  0.
   503  5.02  0.  0.
   504  5.03  0.  0.
   505  5.04  0.  0.
   506  5.05  0.  0.
   507  5.06  0.  0.
   508  5.07  0.  0.
   509  5.08  0.  0.
   510  5.09  0.  0.
   511  5.10  0.  0.
   512  5.11  0.  0.
   513  5.12  0.  0.
   514  5.13  0.  0.
   515  5.14  0.  0.
   516  5.15  0.  0.
   517  5.16  0.  0.
   518  5.17  0.  0.
   519  5.18  0.  0.
   520  5.19  0.  0.
   521  5.20  0.  0.
   522  5.21  0.  0.
   523  5.22  0.  0.
   524  5.23  0.  0.
   525  5.24  0.  0.
   526  5.25  0.  0.
   527  5.26  0.  0.
   528  5.27  0.  0.
   529  5.28  0.  0.
   530  5.29  0.  0.
   531  5.30  0.  0.
   532  5.31  0.  0.
   533  5.32  0.  0.
   534  5.33  0.  0.
   535  5.34  0.  0.
   536  5.35  0.  0.
   537  5.36  0.  0.
   538  5.37  0.  0.
   539  5.38  0.  0.
   540  5.39  0.  0.
   541  5.40  0.  0.
   542  5.41  0.  0.
   543  5.42  0.  0.
   544  5.43  0.  0.
   545  5.44  0.  0.
   546  5.45  0.  0.
   547  5.46  0.  0.
   548  5.47  0.  0.
   549  5.48  0.  0.
   550  5.49  0.  0.
   551  5.50  0.  0.
   552  5.51  0.  0.
   553  5.52  0.  0.
   554  5.53  0.  0.
   555  5.54  0.  0.
   556  5.55  0.  0.
   557  5.56  0.  0.
   558  5.57  0.  0.
   559  5.58  0.  0.
   560  5.59  0.  0.
   561  5.60  0.  0.
   562  5.61  0.  0.
   563  5.62  0.  0.
   564  5.63  0.  0.
   565  5.64  0.  0.
   566  5.65  0.  0.
   567  5.66  0.  0.
   568  5.67  0.  0.
   569  5.68  0.  0.
   570  5.69  0.  0.
   571  5.70  0.  0.
   572  5.71  0.  0.
   573  5.72  0.  0.
   574  5.73  0.  0.
   575  5.74  0.  0.
   576  5.75  0.  0.
   577  5.76  0.  0.
   578  5.77  0.  0.
   579  5.78  0.  0.
   580  5.79  0.  0.
   581  5.80  0.  0.
   582  5.81  0.  0.
   583  5.82  0.  0.
   584  5.83  0.  0.
   585  5.84  0.  0.
   586  5.85  0.  0.
   587  5.86  0.  0.
   588  5.87  0.  0.
   589  5.88  0.  0.
   590  5.89  0.  0.
   591  5.90  0.  0.
   592  5.91  0.  0.
   593  5.92  0.  0.
   594  5.93  0.  0.
   595  5.94  0.  0.
   596  5.95  0.  0.
   597  5.96  0.  0.
   598  5.97  0.  0.
   599  5.98  0.  0.
   600  5.99  0.  0.
   1                         7.8860466451134E+00  8.1461315064563E-01
     1  0.0000000000000E+00 -5.0816729990633E-10  2.0050032398244E-09
     2  1.0000000000000E-02  1.4077107108458E-03 -7.0178629502955E-04
     3  2.0000000000000E-02  5.6268116139127E-03 -2.8059523793763E-03
     4  3.0000000000000E-02  1.2645205553669E-02 -6.3088684979592E-03
     5  4.0000000000000E-02  2.2442719344548E-02 -1.1204315040435E-02
     6  5.0000000000000E-02  3.4991087916827E-02 -1.7483231545516E-02
     7  6.0000000000000E-02  5.0253934171859E-02 -2.5133373300401E-02
     8  7.0000000000000E-02  6.8186746551813E-02 -3.4138883364564E-02
     9  8.0000000000000E-02  8.8736856837261E-02 -4.4479789852171E-02
    10  9.0000000000000E-02  1.1184342114707E-01 -5.6131440144050E-02
    11  1.0000000000000E-01  1.3743740752026E-01 -6.9063885336224E-02
    12  1.1000000000000E-01  1.6544159380055E-01 -8.3241229638349E-02
    13  1.2000000000000E-01  1.9577057981477E-01 -9.8620960588156E-02
    14  1.3000000000000E-01  2.2833081802960E-01 -1.1515327682464E-01
    15  1.4000000000000E-01  2.6302066698353E-01 -1.3278043074840E-01
    16  1.5000000000000E-01  2.9973047181850E-01 -1.5143610367864E-01
    17  1.6000000000000E-01  3.3834267617711E-01 -1.7104483108774E-01
    18  1.7000000000000E-01  3.7873196958559E-01 -1.9152149515236E-01
    19  1.8000000000000E-01  4.2076547421146E-01 -2.1277090120927E-01
    20  1.9000000000000E-01  4.6430297456985E-01 -2.3468745375182E-01
    21  2.0000000000000E-01  5.0919719335806E-01 -2.5715494636279E-01
    22  2.1000000000000E-01  5.5529411612863E-01 -2.8004647846865E-01
    23  2.2000000000000E-01  6.0243336697424E-01 -3.0322451004206E-01
    24  2.3000000000000E-01  6.5044863679968E-01 -3.2654106339935E-01
    25  2.4000000000000E-01  6.9916816510634E-01 -3.4983807906851E-01
    26  2.5000000000000E-01  7.4841527552227E-01 -3.7294793037421E-01
    27  2.6000000000000E-01  7.9800896458625E-01 -3.9569409893567E-01
    28  2.7000000000000E-01  8.4776454254841E-01 -4.1789201073909E-01
    29  2.8000000000000E-01  8.9749432419401E-01 -4.3935002986897E-01
    30  2.9000000000000E-01  9.4700836694298E-01 -4.5987060440315E-01
    31  3.0000000000000E-01  9.9611525273654E-01 -4.7925155643504E-01
    32  3.1000000000000E-01  1.0446229095070E+00 -4.9728750572534E-01
    33  3.2000000000000E-01  1.0923394673467E+00 -5.1377141414368E-01
    34  3.3000000000000E-01  1.1390741438600E+00 -5.2849623587626E-01
    35  3.4000000000000E-01  1.1846381526073E+00 -5.4125665638497E-01
    36  3.5000000000000E-01  1.2288456280416E+00 -5.5185090133957E-01
    37  3.6000000000000E-01  1.2715145599058E+00 -5.6008259523670E-01
    38  3.7000000000000E-01  1.3124677297085E+00 -5.6576264819417E-01
    39  3.8000000000000E-01  1.3515336416350E+00 -5.6871114848694E-01
    40  3.9000000000000E-01  1.3885474400826E+00 -5.6875923778967E-01
    41  4.0000000000000E-01  1.4233518059388E+00 -5.6575094582168E-01
    42  4.1000000000000E-01  1.4557978237511E+00 -5.5954496115918E-01
    43  4.2000000000000E-01  1.4857458120636E+00 -5.5001631539000E-01
    44  4.3000000000000E-01  1.5130661094261E+00 -5.3705795853137E-01
    45  4.4000000000000E-01  1.5376398089015E+00 -5.2058220470434E-01
    46  4.5000000000000E-01  1.5593594343159E+00 -5.0052202844312E-01
    47  4.6000000000000E-01  1.5781295519976E+00 -4.7683219369555E-01
    48  4.7000000000000E-01  1.5938673123357E+00 -4.4949019951747E-01
    49  4.8000000000000E-01  1.6065029161412E+00 -4.1849702864977E-01
    50  4.9000000000000E-01  1.6159800015173E+00 -3.8387768756248E-01
    51  5.0000000000000E-01  1.6222559477145E+00 -3.4568152911610E-01
    52  5.1000000000000E-01  1.6253020932626E+00 -3.0398235169189E-01
    53  5.2000000000000E-01  1.6251038665192E+00 -2.5887827143686E-01
    54  5.3000000000000E-01  1.6216608276396E+00 -2.1049136711479E-01
    55  5.4000000000000E-01  1.6149866218484E+00 -1.5896709990895E-01
    56  5.5000000000000E-01  1.6051088447620E+00 -1.0447351334211E-01
    57  5.6000000000000E-01  1.5920688213639E+00 -4.7200221222501E-02
    58  5.7000000000000E-01  1.5759213010633E+00  1.2642805849958E-02
    59  5.8000000000000E-01  1.5567340720488E+00  7.4826642414285E-02
    60  5.9000000000000E-01  1.5345874988909E+00  1.3910498323792E-01
    61  6.0000000000000E-01  1.5095739880206E+00  2.0521587423806E-01
    62  6.1000000000000E-01  1.4817973863245E+00  2.7288358011615E-01
    63  6.2000000000000E-01  1.4513723186298E+00  3.4182056807521E-01
    64  6.3000000000000E-01  1.4184234703079E+00  4.1172958578198E-01
    65  6.4000000000000E-01  1.3830848215913E+00  4.8230581084474E-01
    66  6.5000000000000E-01  1.3454988404800E+00  5.5323904851615E-01
    67  6.6000000000000E-01  1.3058156412966E+00  6.2421595410186E-01
    68  6.7000000000000E-01  1.2641921160490E+00  6.9492225666074E-01
    69  6.8000000000000E-01  1.2207910457608E+00  7.6504496101513E-01
    70  6.9000000000000E-01  1.1757801988468E+00  8.3427450583858E-01
    71  7.0000000000000E-01  1.1293314234450E+00  9.0230685663794E-01
    72  7.1000000000000E-01  1.0816197403652E+00  9.6884551377538E-01
    73  7.2000000000000E-01  1.0328224429980E+00  1.0336034172590E+00
    74  7.3000000000000E-01  9.8311821013940E-01  1.0963047318380E+00
    75  7.4000000000000E-01  9.3268623724542E-01  1.1566864979371E+00
    76  7.5000000000000E-01  8.8170539113950E-01  1.2145001361233E+00
    77  7.6000000000000E-01  8.3035339266693E-01  1.2695127950678E+00
    78  7.7000000000000E-01  7.7880603123372E-01  1.3215085353242E+00
    79  7.8000000000000E-01  7.2723641459325E-01  1.3702893436331E+00
    80  7.9000000000000E-01  6.7581425666235E-01  1.4156759748553E+00
    81  8.0000000000000E-01  6.2470520557030E-01  1.4575086209862E+00
    82  8.1000000000000E-01  5.7407021357934E-01  1.4956474089724E+00
    83  8.2000000000000E-01  5.2406494997292E-01  1.5299727312077E+00
    84  8.3000000000000E-01  4.7483925749684E-01  1.5603854145872E+00
    85  8.4000000000000E-01  4.2653665246714E-01  1.5868067358222E+00
    86  8.5000000000000E-01  3.7929386823321E-01  1.6091782923326E+00
    87  8.6000000000000E-01  3.3324044131198E-01  1.6274617394153E+00
    88  8.7000000000000E-01  2.8849833919279E-01  1.6416384055237E+00
    89  8.8000000000000E-01  2.4518162855728E-01  1.6517087983585E+00
    90  8.9000000000000E-01  2.0339618246539E-01  1.6576920150708E+00
    91  9.0000000000000E-01  1.6323942492907E-01  1.6596250701979E+00
    92  9.1000000000000E-01  1.2480011122817E-01  1.6575621549997E+00
    93  9.2000000000000E-01  8.8158142317326E-02  1.6515738416404E+00
    94  9.3000000000000E-01  5.3384411724409E-02  1.6417462451828E+00
    95  9.4000000000000E-01  2.0540683446816E-02  1.6281801556419E+00
    96  9.5000000000000E-01 -1.0320500493992E-02  1.6109901514040E+00
    97  9.6000000000000E-01 -3.9155883983344E-02  1.5903037041780E+00
    98  9.7000000000000E-01 -6.5931533141862E-02  1.5662602843383E+00
    99  9.8000000000000E-01 -9.0622845705415E-02  1.5390104740700E+00
   100  9.9000000000000E-01 -1.1321453383245E-01  1.5087150941679E+00
   101  1.0000000000000E+00 -1.3370058042605E-01  1.4755443487123E+00
   102  1.0100000000000E+00 -1.5208416876761E-01  1.4396769901682E+00
   103  1.0200000000000E+00 -1.6837758497471E-01  1.4012995057806E+00
   104  1.0300000000000E+00 -1.8260209252635E-01  1.3606053244813E+00
   105  1.0400000000000E+00 -1.9478777785201E-01  1.3177940419407E+00
   106  1.0500000000000E+00 -2.0497336576422E-01  1.2730706598925E+00
   107  1.0600000000000E+00 -2.1320600333401E-01  1.2266448344848E+00
   108  1.0700000000000E+00 -2.1954101067105E-01  1.1787301271784E+00
   109  1.0800000000000E+00 -2.2404159697895E-01  1.1295432506471E+00
   110  1.0900000000000E+00 -2.2677854021649E-01  1.0793033012607E+00
   111  1.1000000000000E+00 -2.2782982870840E-01  1.0282309690506E+00
   112  1.1100000000000E+00 -2.2728026311658E-01  9.7654771559856E-01
   113  1.1200000000000E+00 -2.2522101730494E-01  9.2447491003438E-01
   114  1.1300000000000E+00 -2.2174915680590E-01  8.7223291330486E-01
   115  1.1400000000000E+00 -2.1696711382281E-01  8.2004010105478E-01
   116  1.1500000000000E+00 -2.1098211797580E-01  7.6811181585563E-01
   117  1.1600000000000E+00 -2.0390558231413E-01  7.1665924010164E-01
   118  1.1700000000000E+00 -1.9585244447123E-01  6.6588818165844E-01
   119  1.1800000000000E+00 -1.8694046322133E-01  6.1599776527423E-01
   120  1.1900000000000E+00 -1.7728947110245E-01  5.6717902382532E-01
   121  1.2000000000000E+00 -1.6702058419265E-01  5.1961338464508E-01
   122  1.2100000000000E+00 -1.5625537055283E-01  4.7347104744266E-01
   123  1.2200000000000E+00 -1.4511497927795E-01  4.2890925164315E-01
   124  1.2300000000000E+00 -1.3371923251187E-01  3.8607043231705E-01
   125  1.2400000000000E+00 -1.2218568265667E-01  3.4508026152032E-01
   126  1.2500000000000E+00 -1.1062864370736E-01  3.0604561865393E-01
   127  1.2600000000000E+00 -9.9158218468595E-02  2.6905263122460E-01
   128  1.2700000000000E+00 -8.7880350154659E-02  2.3417214001221E-01
   129  1.2800000000000E+00 -7.6897770454117E-02  2.0147057883677E-01
   130  1.2900000000000E+00 -6.6309892152171E-02  1.7101204502601E-01
   131  1.3000000000000E+00 -5.6212446122971E-02  1.4285830211968E-01
   132  1.3100000000000E+00 -4.6697129741036E-02  1.1706876944989E-01
   133  1.3200000000000E+00 -3.7851278474910E-02  9.3700505660712E-02
   134  1.3300000000000E+00 -2.9757509208093E-02  7.2808073149661E-02