Nb    ONCVPSP-4.0.1  r_core=   1.50740   1.40298   1.40298
     41.0000     13.0000      231019    zatom,zion,pspd
     8       2   2     4   600     0    pspcod,pspxc,lmax,lloc,mmax,r2well
  5.99000000  5.00000000  0.00000000    rchrg fchrg qchrg
     2     2     2     0     0    nproj
     1     1           extension_switch
   0                         1.2684925343991E+01  1.2646611288763E+00
     1  0.0000000000000E+00 -1.0839873443302E-10  5.4606891231046E-10
     2  1.0000000000000E-02  5.2546395723977E-02 -2.5329914429520E-02
     3  2.0000000000000E-02  1.0503629410151E-01 -5.0567950199572E-02
     4  3.0000000000000E-02  1.5741323951695E-01 -7.5622788228776E-02
     5  4.0000000000000E-02  2.0962085871826E-01 -1.0040421981149E-01
     6  5.0000000000000E-02  2.6160289928212E-01 -1.2482367999598E-01
     7  6.0000000000000E-02  3.1330326489774E-01 -1.4879475518499E-01
     8  7.0000000000000E-02  3.6466604653829E-01 -1.7223365701685E-01
     9  8.0000000000000E-02  4.1563554869786E-01 -1.9505965513170E-01
    10  9.0000000000000E-02  4.6615631000343E-01 -2.1719546209524E-01
    11  1.0000000000000E-01  5.1617311766561E-01 -2.3856756453367E-01
    12  1.1000000000000E-01  5.6563101540432E-01 -2.5910649541625E-01
    13  1.2000000000000E-01  6.1447530467481E-01 -2.7874704339339E-01
    14  1.3000000000000E-01  6.6265153922124E-01 -2.9742839614625E-01
    15  1.4000000000000E-01  7.1010551319667E-01 -3.1509421581093E-01
    16  1.5000000000000E-01  7.5678324330555E-01 -3.3169264569314E-01
    17  1.6000000000000E-01  8.0263094564428E-01 -3.4717624866882E-01
    18  1.7000000000000E-01  8.4759500813318E-01 -3.6150187885667E-01
    19  1.8000000000000E-01  8.9162195964437E-01 -3.7463048933124E-01
    20  1.9000000000000E-01  9.3465843713242E-01 -3.8652687980316E-01
    21  2.0000000000000E-01  9.7665115226206E-01 -3.9715938930785E-01
    22  2.1000000000000E-01  1.0175468591977E+00 -4.0649953999840E-01
    23  2.2000000000000E-01  1.0572923253682E+00 -4.1452163911576E-01
    24  2.3000000000000E-01  1.0958343071440E+00 -4.2120234709373E-01
    25  2.4000000000000E-01  1.1331195324604E+00 -4.2652022053224E-01
    26  2.5000000000000E-01  1.1690946924848E+00 -4.3045523942651E-01
    27  2.6000000000000E-01  1.2037064444573E+00 -4.3298832856033E-01
    28  2.7000000000000E-01  1.2369014278309E+00 -4.3410088334626E-01
    29  2.8000000000000E-01  1.2686262957964E+00 -4.3377431061816E-01
    30  2.9000000000000E-01  1.2988277641962E+00 -4.3198959494175E-01
    31  3.0000000000000E-01  1.3274526797157E+00 -4.2872690090577E-01
    32  3.1000000000000E-01  1.3544481090828E+00 -4.2396522158426E-01
    33  3.2000000000000E-01  1.3797614508111E+00 -4.1768208292046E-01
    34  3.3000000000000E-01  1.4033405707897E+00 -4.0985331317745E-01
    35  3.4000000000000E-01  1.4251339627573E+00 -4.0045288583386E-01
    36  3.5000000000000E-01  1.4450909343942E+00 -3.8945284338087E-01
    37  3.6000000000000E-01  1.4631618194380E+00 -3.7682330840988E-01
    38  3.7000000000000E-01  1.4792982158686E+00 -3.6253258717971E-01
    39  3.8000000000000E-01  1.4934532498292E+00 -3.4654736953061E-01
    40  3.9000000000000E-01  1.5055818645502E+00 -3.2883302758686E-01
    41  4.0000000000000E-01  1.5156411331282E+00 -3.0935401417707E-01
    42  4.1000000000000E-01  1.5235905935949E+00 -2.8807436032048E-01
    43  4.2000000000000E-01  1.5293926042814E+00 -2.6495826950028E-01
    44  4.3000000000000E-01  1.5330127170658E+00 -2.3997080479173E-01
    45  4.4000000000000E-01  1.5344200656771E+00 -2.1307866325859E-01
    46  4.5000000000000E-01  1.5335877658319E+00 -1.8425103039650E-01
    47  4.6000000000000E-01  1.5304933236023E+00 -1.5346050581473E-01
    48  4.7000000000000E-01  1.5251190480658E+00 -1.2068408982755E-01
    49  4.8000000000000E-01  1.5174524639702E+00 -8.5904219200464E-02
    50  4.9000000000000E-01  1.5074867198691E+00 -4.9109838986147E-02
    51  5.0000000000000E-01  1.4952209869516E+00 -1.0297496212712E-02
    52  5.1000000000000E-01  1.4806608436035E+00  3.0527559826378E-02
    53  5.2000000000000E-01  1.4638186406100E+00  7.3350286766400E-02
    54  5.3000000000000E-01  1.4447138418348E+00  1.1814478457462E-01
    55  5.4000000000000E-01  1.4233733352018E+00  1.6487327431630E-01
    56  5.5000000000000E-01  1.3998317088567E+00  2.1348513764270E-01
    57  5.6000000000000E-01  1.3741314875048E+00  2.6391603433192E-01
    58  5.7000000000000E-01  1.3463233241075E+00  3.1608711494518E-01
    59  5.8000000000000E-01  1.3164661423714E+00  3.6990434514796E-01
    60  5.9000000000000E-01  1.2846272257848E+00  4.2525795748811E-01
    61  6.0000000000000E-01  1.2508822493387E+00  4.8202204542212E-01
    62  6.1000000000000E-01  1.2153152505186E+00  5.4005431314515E-01
    63  6.2000000000000E-01  1.1780185366573E+00  5.9919599331543E-01
    64  6.3000000000000E-01  1.1390925263032E+00  6.5927194308829E-01
    65  6.4000000000000E-01  1.0986455228679E+00  7.2009092699708E-01
    66  6.5000000000000E-01  1.0567934194723E+00  7.8144609316611E-01
    67  6.6000000000000E-01  1.0136593346075E+00  8.4311564712835E-01
    68  6.7000000000000E-01  9.6937317894456E-01  9.0486372517876E-01
    69  6.8000000000000E-01  9.2407115437820E-01  9.6644146674707E-01
    70  6.9000000000000E-01  8.7789518714578E-01  1.0275882827517E+00
    71  7.0000000000000E-01  8.3099229762843E-01  1.0880333143319E+00
    72  7.1000000000000E-01  7.8351391020149E-01  1.1474970737786E+00
    73  7.2000000000000E-01  7.3561510724679E-01  1.2056932569304E+00
    74  7.3000000000000E-01  6.8745383216272E-01  1.2623307138077E+00
    75  7.4000000000000E-01  6.3919004689771E-01  1.3171155618482E+00
    76  7.5000000000000E-01  5.9098485018038E-01  1.3697534238327E+00
    77  7.6000000000000E-01  5.4299956321627E-01  1.4199517704640E+00
    78  7.7000000000000E-01  4.9539479015744E-01  1.4674223456345E+00
    79  7.8000000000000E-01  4.4832946112027E-01  1.5118836507027E+00
    80  7.9000000000000E-01  4.0195986591963E-01  1.5530634626377E+00
    81  8.0000000000000E-01  3.5643868699971E-01  1.5907013596982E+00
    82  8.1000000000000E-01  3.1191404026494E-01  1.6245512274158E+00
    83  8.2000000000000E-01  2.6852853264658E-01  1.6543837170657E+00
    84  8.3000000000000E-01  2.2641834527553E-01  1.6799886285556E+00
    85  8.4000000000000E-01  1.8571235106927E-01  1.7011771897377E+00
    86  8.5000000000000E-01  1.4653127537790E-01  1.7177842045778E+00
    87  8.6000000000000E-01  1.0898690807195E-01  1.7296700433850E+00
    88  8.7000000000000E-01  7.3181375093326E-02  1.7367224494137E+00
    89  8.8000000000000E-01  3.9206477033893E-02  1.7388581376044E+00
    90  8.9000000000000E-01  7.1431017568827E-03  1.7360241629945E+00
    91  9.0000000000000E-01 -2.2939282560020E-02  1.7281990384104E+00
    92  9.1000000000000E-01 -5.0983048298119E-02  1.7153935834131E+00
    93  9.2000000000000E-01 -7.6942738316550E-02  1.6976514890913E+00
    94  9.3000000000000E-01 -1.0078530090057E-01  1.6750495861483E+00
    95  9.4000000000000E-01 -1.2249022663439E-01  1.6476978067777E+00
    96  9.5000000000000E-01 -1.4204958504916E-01  1.6157388340348E+00
    97  9.6000000000000E-01 -1.5946795988668E-01  1.5793474357437E+00
    98  9.7000000000000E-01 -1.7476228283130E-01  1.5387294833937E+00
    99  9.8000000000000E-01 -1.8796156658453E-01  1.4941206599347E+00
   100  9.9000000000000E-01 -1.9910653917680E-01  1.4457848638274E+00
   101  1.0000000000000E+00 -2.0824918241543E-01  1.3940123201020E+00
   102  1.0100000000000E+00 -2.1545217834505E-01  1.3391174124849E+00
   103  1.0200000000000E+00 -2.2078826853443E-01  1.2814362538137E+00
   104  1.0300000000000E+00 -2.2433953188916E-01  1.2213240149497E+00
   105  1.0400000000000E+00 -2.2619658751149E-01  1.1591520351530E+00
   106  1.0500000000000E+00 -2.2645772987731E-01  1.0953047393924E+00
   107  1.0600000000000E+00 -2.2522800426442E-01  1.0301763902618E+00
   108  1.0700000000000E+00 -2.2261823093698E-01  9.6416770405851E-01
   109  1.0800000000000E+00 -2.1874398706260E-01  8.9768236209649E-01
   110  1.0900000000000E+00 -2.1372455570116E-01  8.3112344947570E-01
   111  1.1000000000000E+00 -2.0768185145613E-01  7.6488985427265E-01
   112  1.1100000000000E+00 -2.0073933251365E-01  6.9937266045577E-01
   113  1.1200000000000E+00 -1.9302090881153E-01  6.3495156774686E-01
   114  1.1300000000000E+00 -1.8464985597718E-01  5.7199137114711E-01
   115  1.1400000000000E+00 -1.7574774445340E-01  5.1083853192790E-01
   116  1.1500000000000E+00 -1.6643339289292E-01  4.5181787055580E-01
   117  1.1600000000000E+00 -1.5682185445526E-01  3.9522941030242E-01
   118  1.1700000000000E+00 -1.4702344408277E-01  3.4134539818986E-01
   119  1.1800000000000E+00 -1.3714281417880E-01  2.9040752747972E-01
   120  1.1900000000000E+00 -1.2727808536466E-01  2.4262438315013E-01
   121  1.2000000000000E+00 -1.1752003816224E-01  1.9816912875092E-01
   122  1.2100000000000E+00 -1.0795137055281E-01  1.5717744974448E-01
   123  1.2200000000000E+00 -9.8646025399015E-02  1.1974576492518E-01
   124  1.2300000000000E+00 -8.9668590713679E-02  8.5929713865409E-02
   125  1.2400000000000E+00 -8.1073774192922E-02  5.5742921634165E-02
   126  1.2500000000000E+00 -7.2905958737752E-02  2.9156074172793E-02
   127  1.2600000000000E+00 -6.5198857564973E-02  6.0964106229623E-03
   128  1.2700000000000E+00 -5.7976298143075E-02 -1.3546561032711E-02
   129  1.2800000000000E+00 -5.1253940256622E-02 -2.9910793509415E-02
   130  1.2900000000000E+00 -4.5039944566419E-02 -4.3158162163506E-02
   131  1.3000000000000E+00 -3.9335443109473E-02 -5.3472293000287E-02
   132  1.3100000000000E+00 -3.4135080800088E-02 -6.1056146861756E-02
   133  1.3200000000000E+00 -2.9427617470400E-02 -6.6129405307584E-02
   134  1.3300000000000E+00 -2.5196583201402E-02 -6.8925683541031E-02
   135  1.3400000000000E+00 -2.1420978444353E-02 -6.9689601704043E-02
   136  1.3500000000000E+00 -1.8076010028149E-02 -6.8673747079627E-02
   137  1.3600000000000E+00 -1.5133853758198E-02 -6.6135561110850E-02
   138  1.3700000000000E+00 -1.2564434029372E-02 -6.2334186132663E-02
   139  1.3800000000000E+00 -1.0336210706362E-02 -5.7527307290866E-02
   140  1.3900000000000E+00 -8.4169634686152E-03 -5.1968025293686E-02
   141  1.4000000000000E+00 -6.7745638748832E-03 -4.5901795401656E-02
   142  1.4100000000000E+00 -5.3777238969367E-03 -3.9563471749085E-02
   143  1.4200000000000E+00 -4.1967239545319E-03 -3.3174458661097E-02
   144  1.4300000000000E+00 -3.2040611842812E-03 -2.6940136816721E-02
   145  1.4400000000000E+00 -2.3783571424965E-03 -2.1038854351116E-02
   146  1.4500000000000E+00 -1.7032388896645E-03 -1.5623620672597E-02
   147  1.4600000000000E+00 -1.1578452881674E-03 -1.0846530533117E-02
   148  1.4700000000000E+00 -7.2623284704358E-04 -6.8344004086129E-03
   149  1.4800000000000E+00 -3.9770164212459E-04 -3.6872754099967E-03
   150  1.4900000000000E+00 -1.6707485576897E-04 -1.4761231699568E-03
   151  1.5000000000000E+00 -3.6611709369233E-05 -2.5183194776742E-04
   152  1.5100000000000E+00 -1.9677138208171E-06  3.8283714174550E-05
   153  1.5200000000000E+00 -8.6035692783189E-08 -8.6356961908956E-06
   154  1.53 -0.  0.
   155  1.54  0. -0.
   156  1.55  0.  0.
   157  1.56  0.  0.
   158  1.57  0.  0.
   159  1.58  0.  0.
   160  1.59  0.  0.
   161  1.60  0.  0.
   162  1.61  0.  0.
   163  1.62  0.  0.
   164  1.63  0.  0.
   165  1.64  0.  0.
   166  1.65  0.  0.
   167  1.66  0.  0.
   168  1.67  0.  0.
   169  1.68  0.  0.
   170  1.69  0.  0.
   171  1.70  0.  0.
   172  1.71  0.  0.
   173  1.72  0.  0.
   174  1.73  0.  0.
   175  1.74  0.  0.
   176  1.75  0.  0.
   177  1.76  0.  0.
   178  1.77  0.  0.
   179  1.78  0.  0.
   180  1.79  0.  0.
   181  1.80  0.  0.
   182  1.81  0.  0.
   183  1.82  0.  0.
   184  1.83  0.  0.
   185  1.84  0.  0.
   186  1.85  0.  0.
   187  1.86  0.  0.
   188  1.87  0.  0.
   189  1.88  0.  0.
   190  1.89  0.  0.
   191  1.90  0.  0.
   192  1.91  0.  0.
   193  1.92  0.  0.
   194  1.93  0.  0.
   195  1.94  0.  0.
   196  1.95  0.  0.
   197  1.96  0.  0.
   198  1.97  0.  0.
   199  1.98  0.  0.
   200  1.99  0.  0.
   201  2.00  0.  0.
   202  2.01  0.  0.
   203  2.02  0.  0.
   204  2.03  0.  0.
   205  2.04  0.  0.
   206  2.05  0.  0.
   207  2.06  0.  0.
   208  2.07  0.  0.
   209  2.08  0.  0.
   210  2.09  0.  0.
   211  2.10  0.  0.
   212  2.11  0.  0.
   213  2.12  0.  0.
   214  2.13  0.  0.
   215  2.14  0.  0.
   216  2.15  0.  0.
   217  2.16  0.  0.
   218  2.17  0.  0.
   219  2.18  0.  0.
   220  2.19  0.  0.
   221  2.20  0.  0.
   222  2.21  0.  0.
   223  2.22  0.  0.
   224  2.23  0.  0.
   225  2.24  0.  0.
   226  2.25  0.  0.
   227  2.26  0.  0.
   228  2.27  0.  0.
   229  2.28  0.  0.
   230  2.29  0.  0.
   231  2.30  0.  0.
   232  2.31  0.  0.
   233  2.32  0.  0.
   234  2.33  0.  0.
   235  2.34  0.  0.
   236  2.35  0.  0.
   237  2.36  0.  0.
   238  2.37  0.  0.
   239  2.38  0.  0.
   240  2.39  0.  0.
   241  2.40  0.  0.
   242  2.41  0.  0.
   243  2.42  0.  0.
   244  2.43  0.  0.
   245  2.44  0.  0.
   246  2.45  0.  0.
   247  2.46  0.  0.
   248  2.47  0.  0.
   249  2.48  0.  0.
   250  2.49  0.  0.
   251  2.50  0.  0.
   252  2.51  0.  0.
   253  2.52  0.  0.
   254  2.53  0.  0.
   255  2.54  0.  0.
   256  2.55  0.  0.
   257  2.56  0.  0.
   258  2.57  0.  0.
   259  2.58  0.  0.
   260  2.59  0.  0.
   261  2.60  0.  0.
   262  2.61  0.  0.
   263  2.62  0.  0.
   264  2.63  0.  0.
   265  2.64  0.  0.
   266  2.65  0.  0.
   267  2.66  0.  0.
   268  2.67  0.  0.
   269  2.68  0.  0.
   270  2.69  0.  0.
   271  2.70  0.  0.
   272  2.71  0.  0.
   273  2.72  0.  0.
   274  2.73  0.  0.
   275  2.74  0.  0.
   276  2.75  0.  0.
   277  2.76  0.  0.
   278  2.77  0.  0.
   279  2.78  0.  0.
   280  2.79  0.  0.
   281  2.80  0.  0.
   282  2.81  0.  0.
   283  2.82  0.  0.
   284  2.83  0.  0.
   285  2.84  0.  0.
   286  2.85  0.  0.
   287  2.86  0.  0.
   288  2.87  0.  0.
   289  2.88  0.  0.
   290  2.89  0.  0.
   291  2.90  0.  0.
   292  2.91  0.  0.
   293  2.92  0.  0.
   294  2.93  0.  0.
   295  2.94  0.  0.
   296  2.95  0.  0.
   297  2.96  0.  0.
   298  2.97  0.  0.
   299  2.98  0.  0.
   300  2.99  0.  0.
   301  3.00  0.  0.
   302  3.01  0.  0.
   303  3.02  0.  0.
   304  3.03  0.  0.
   305  3.04  0.  0.
   306  3.05  0.  0.
   307  3.06  0.  0.
   308  3.07  0.  0.
   309  3.08  0.  0.
   310  3.09  0.  0.
   311  3.10  0.  0.
   312  3.11  0.  0.
   313  3.12  0.  0.
   314  3.13  0.  0.
   315  3.14  0.  0.
   316  3.15  0.  0.
   317  3.16  0.  0.
   318  3.17  0.  0.
   319  3.18  0.  0.
   320  3.19  0.  0.
   321  3.20  0.  0.
   322  3.21  0.  0.
   323  3.22  0.  0.
   324  3.23  0.  0.
   325  3.24  0.  0.
   326  3.25  0.  0.
   327  3.26  0.  0.
   328  3.27  0.  0.
   329  3.28  0.  0.
   330  3.29  0.  0.
   331  3.30  0.  0.
   332  3.31  0.  0.
   333  3.32  0.  0.
   334  3.33  0.  0.
   335  3.34  0.  0.
   336  3.35  0.  0.
   337  3.36  0.  0.
   338  3.37  0.  0.
   339  3.38  0.  0.
   340  3.39  0.  0.
   341  3.40  0.  0.
   342  3.41  0.  0.
   343  3.42  0.  0.
   344  3.43  0.  0.
   345  3.44  0.  0.
   346  3.45  0.  0.
   347  3.46  0.  0.
   348  3.47  0.  0.
   349  3.48  0.  0.
   350  3.49  0.  0.
   351  3.50  0.  0.
   352  3.51  0.  0.
   353  3.52  0.  0.
   354  3.53  0.  0.
   355  3.54  0.  0.
   356  3.55  0.  0.
   357  3.56  0.  0.
   358  3.57  0.  0.
   359  3.58  0.  0.
   360  3.59  0.  0.
   361  3.60  0.  0.
   362  3.61  0.  0.
   363  3.62  0.  0.
   364  3.63  0.  0.
   365  3.64  0.  0.
   366  3.65  0.  0.
   367  3.66  0.  0.
   368  3.67  0.  0.
   369  3.68  0.  0.
   370  3.69  0.  0.
   371  3.70  0.  0.
   372  3.71  0.  0.
   373  3.72  0.  0.
   374  3.73  0.  0.
   375  3.74  0.  0.
   376  3.75  0.  0.
   377  3.76  0.  0.
   378  3.77  0.  0.
   379  3.78  0.  0.
   380  3.79  0.  0.
   381  3.80  0.  0.
   382  3.81  0.  0.
   383  3.82  0.  0.
   384  3.83  0.  0.
   385  3.84  0.  0.
   386  3.85  0.  0.
   387  3.86  0.  0.
   388  3.87  0.  0.
   389  3.88  0.  0.
   390  3.89  0.  0.
   391  3.90  0.  0.
   392  3.91  0.  0.
   393  3.92  0.  0.
   394  3.93  0.  0.
   395  3.94  0.  0.
   396  3.95  0.  0.
   397  3.96  0.  0.
   398  3.97  0.  0.
   399  3.98  0.  0.
   400  3.99  0.  0.
   401  4.00  0.  0.
   402  4.01  0.  0.
   403  4.02  0.  0.
   404  4.03  0.  0.
   405  4.04  0.  0.
   406  4.05  0.  0.
   407  4.06  0.  0.
   408  4.07  0.  0.
   409  4.08  0.  0.
   410  4.09  0.  0.
   411  4.10  0.  0.
   412  4.11  0.  0.
   413  4.12  0.  0.
   414  4.13  0.  0.
   415  4.14  0.  0.
   416  4.15  0.  0.
   417  4.16  0.  0.
   418  4.17  0.  0.
   419  4.18  0.  0.
   420  4.19  0.  0.
   421  4.20  0.  0.
   422  4.21  0.  0.
   423  4.22  0.  0.
   424  4.23  0.  0.
   425  4.24  0.  0.
   426  4.25  0.  0.
   427  4.26  0.  0.
   428  4.27  0.  0.
   429  4.28  0.  0.
   430  4.29  0.  0.
   431  4.30  0.  0.
   432  4.31  0.  0.
   433  4.32  0.  0.
   434  4.33  0.  0.
   435  4.34  0.  0.
   436  4.35  0.  0.
   437  4.36  0.  0.
   438  4.37  0.  0.
   439  4.38  0.  0.
   440  4.39  0.  0.
   441  4.40  0.  0.
   442  4.41  0.  0.
   443  4.42  0.  0.
   444  4.43  0.  0.
   445  4.44  0.  0.
   446  4.45  0.  0.
   447  4.46  0.  0.
   448  4.47  0.  0.
   449  4.48  0.  0.
   450  4.49  0.  0.
   451  4.50  0.  0.
   452  4.51  0.  0.
   453  4.52  0.  0.
   454  4.53  0.  0.
   455  4.54  0.  0.
   456  4.55  0.  0.
   457  4.56  0.  0.
   458  4.57  0.  0.
   459  4.58  0.  0.
   460  4.59  0.  0.
   461  4.60  0.  0.
   462  4.61  0.  0.
   463  4.62  0.  0.
   464  4.63  0.  0.
   465  4.64  0.  0.
   466  4.65  0.  0.
   467  4.66  0.  0.
   468  4.67  0.  0.
   469  4.68  0.  0.
   470  4.69  0.  0.
   471  4.70  0.  0.
   472  4.71  0.  0.
   473  4.72  0.  0.
   474  4.73  0.  0.
   475  4.74  0.  0.
   476  4.75  0.  0.
   477  4.76  0.  0.
   478  4.77  0.  0.
   479  4.78  0.  0.
   480  4.79  0.  0.
   481  4.80  0.  0.
   482  4.81  0.  0.
   483  4.82  0.  0.
   484  4.83  0.  0.
   485  4.84  0.  0.
   486  4.85  0.  0.
   487  4.86  0.  0.
   488  4.87  0.  0.
   489  4.88  0.  0.
   490  4.89  0.  0.
   491  4.90  0.  0.
   492  4.91  0.  0.
   493  4.92  0.  0.
   494  4.93  0.  0.
   495  4.94  0.  0.
   496  4.95  0.  0.
   497  4.96  0.  0.
   498  4.97  0.  0.
   499  4.98  0.  0.
   500  4.99  0.  0.
   501  5.00  0.  0.
   502  5.01  0.  0.
   503  5.02  0.  0.
   504  5.03  0.  0.
   505  5.04  0.  0.
   506  5.05  0.  0.
   507  5.06  0.  0.
   508  5.07  0.  0.
   509  5.08  0.  0.
   510  5.09  0.  0.
   511  5.10  0.  0.
   512  5.11  0.  0.
   513  5.12  0.  0.
   514  5.13  0.  0.
   515  5.14  0.  0.
   516  5.15  0.  0.
   517  5.16  0.  0.
   518  5.17  0.  0.
   519  5.18  0.  0.
   520  5.19  0.  0.
   521  5.20  0.  0.
   522  5.21  0.  0.
   523  5.22  0.  0.
   524  5.23  0.  0.
   525  5.24  0.  0.
   526  5.25  0.  0.
   527  5.26  0.  0.
   528  5.27  0.  0.
   529  5.28  0.  0.
   530  5.29  0.  0.
   531  5.30  0.  0.
   532  5.31  0.  0.
   533  5.32  0.  0.
   534  5.33  0.  0.
   535  5.34  0.  0.
   536  5.35  0.  0.
   537  5.36  0.  0.
   538  5.37  0.  0.
   539  5.38  0.  0.
   540  5.39  0.  0.
   541  5.40  0.  0.
   542  5.41  0.  0.
   543  5.42  0.  0.
   544  5.43  0.  0.
   545  5.44  0.  0.
   546  5.45  0.  0.
   547  5.46  0.  0.
   548  5.47  0.  0.
   549  5.48  0.  0.
   550  5.49  0.  0.
   551  5.50  0.  0.
   552  5.51  0.  0.
   553  5.52  0.  0.
   554  5.53  0.  0.
   555  5.54  0.  0.
   556  5.55  0.  0.
   557  5.56  0.  0.
   558  5.57  0.  0.
   559  5.58  0.  0.
   560  5.59  0.  0.
   561  5.60  0.  0.
   562  5.61  0.  0.
   563  5.62  0.  0.
   564  5.63  0.  0.
   565  5.64  0.  0.
   566  5.65  0.  0.
   567  5.66  0.  0.
   568  5.67  0.  0.
   569  5.68  0.  0.
   570  5.69  0.  0.
   571  5.70  0.  0.
   572  5.71  0.  0.
   573  5.72  0.  0.
   574  5.73  0.  0.
   575  5.74  0.  0.
   576  5.75  0.  0.
   577  5.76  0.  0.
   578  5.77  0.  0.
   579  5.78  0.  0.
   580  5.79  0.  0.
   581  5.80  0.  0.
   582  5.81  0.  0.
   583  5.82  0.  0.
   584  5.83  0.  0.
   585  5.84  0.  0.
   586  5.85  0.  0.
   587  5.86  0.  0.
   588  5.87  0.  0.
   589  5.88  0.  0.
   590  5.89  0.  0.
   591  5.90  0.  0.
   592  5.91  0.  0.
   593  5.92  0.  0.
   594  5.93  0.  0.
   595  5.94  0.  0.
   596  5.95  0.  0.
   597  5.96  0.  0.
   598  5.97  0.  0.
   599  5.98  0.  0.
   600  5.99  0.  0.
   1                         7.8904416364123E+00  8.1087777934392E-01
     1  0.0000000000000E+00 -5.1345251661505E-10  2.1266769525963E-09
     2  1.0000000000000E-02  1.4072661210859E-03 -6.8820162866589E-04
     3  2.0000000000000E-02  5.6250432384904E-03 -2.7518407261103E-03
     4  3.0000000000000E-02  1.2641263968960E-02 -6.1879646274108E-03
     5  4.0000000000000E-02  2.2435804155201E-02 -1.0991469121770E-02
     6  5.0000000000000E-02  3.4980466133967E-02 -1.7154828076360E-02
     7  6.0000000000000E-02  5.0238957383228E-02 -2.4667723389911E-02
     8  7.0000000000000E-02  6.8166866573951E-02 -3.3516583581479E-02
     9  8.0000000000000E-02  8.8711639565508E-02 -4.3684041446543E-02
    10  9.0000000000000E-02  1.1181255834963E-01 -5.5148323159831E-02
    11  1.0000000000000E-01  1.3740072635734E-01 -6.7882582938520E-02
    12  1.1000000000000E-01  1.6539906388808E-01 -8.1854198869424E-02
    13  1.2000000000000E-01  1.9572231769377E-01 -9.7024046724535E-02
    14  1.3000000000000E-01  2.2827708894627E-01 -1.1334576951649E-01
    15  1.4000000000000E-01  2.6296188393070E-01 -1.3076506116361E-01
    16  1.5000000000000E-01  2.9966719183565E-01 -1.4921898292948E-01
    17  1.6000000000000E-01  3.3827559395274E-01 -1.6863533126815E-01
    18  1.7000000000000E-01  3.7866190845163E-01 -1.8893207534012E-01
    19  1.8000000000000E-01  4.2069337466404E-01 -2.1001688177096E-01
    20  1.9000000000000E-01  4.6422988049303E-01 -2.3178674321196E-01
    21  2.0000000000000E-01  5.0912423616640E-01 -2.5412772594459E-01
    22  2.1000000000000E-01  5.5522249708069E-01 -2.7691485016757E-01
    23  2.2000000000000E-01  6.0236433794051E-01 -3.0001211474064E-01
    24  2.3000000000000E-01  6.5038347979559E-01 -3.2327267606059E-01
    25  2.4000000000000E-01  6.9910817092300E-01 -3.4653918844598E-01
    26  2.5000000000000E-01  7.4836172180375E-01 -3.6964431094193E-01
    27  2.6000000000000E-01  7.9796309371302E-01 -3.9241138286483E-01
    28  2.7000000000000E-01  8.4772753969105E-01 -4.1465526772917E-01
    29  2.8000000000000E-01  8.9746729589988E-01 -4.3618336247782E-01
    30  2.9000000000000E-01  9.4699232061116E-01 -4.5679676621633E-01
    31  3.0000000000000E-01  9.9611107732296E-01 -4.7629159997464E-01
    32  3.1000000000000E-01  1.0446313577827E+00 -4.9446046643039E-01
    33  3.2000000000000E-01  1.0923611400075E+00 -5.1109403606762E-01
    34  3.3000000000000E-01  1.1391094757575E+00 -5.2598274395412E-01
    35  3.4000000000000E-01  1.1846874013352E+00 -5.3891857923887E-01
    36  3.5000000000000E-01  1.2289088650770E+00 -5.4969694763034E-01
    37  3.6000000000000E-01  1.2715916644605E+00 -5.5811858555083E-01
    38  3.7000000000000E-01  1.3125583854047E+00 -5.6399150339667E-01
    39  3.8000000000000E-01  1.3516373360727E+00 -5.6713293439160E-01
    40  3.9000000000000E-01  1.3886634673209E+00 -5.6737126491868E-01
    41  4.0000000000000E-01  1.4234792718655E+00 -5.6454792196698E-01
    42  4.1000000000000E-01  1.4559356542693E+00 -5.5851919343763E-01
    43  4.2000000000000E-01  1.4858927639791E+00 -5.4915795752299E-01
    44  4.3000000000000E-01  1.5132207838760E+00 -5.3635529819536E-01
    45  4.4000000000000E-01  1.5378006671251E+00 -5.2002198500888E-01
    46  4.5000000000000E-01  1.5595248155306E+00 -5.0008979691232E-01
    47  4.6000000000000E-01  1.5782976931123E+00 -4.7651267157210E-01
    48  4.7000000000000E-01  1.5940363692020E+00 -4.4926766378530E-01
    49  4.8000000000000E-01  1.6066709860242E+00 -4.1835569889253E-01
    50  4.9000000000000E-01  1.6161451464452E+00 -3.8380210964538E-01
    51  5.0000000000000E-01  1.6224162183580E+00 -3.4565694770284E-01
    52  5.1000000000000E-01  1.6254555529858E+00 -3.0399506378679E-01
    53  5.2000000000000E-01  1.6252486152448E+00 -2.5891595347243E-01
    54  5.3000000000000E-01  1.6217950251763E+00 -2.1054336858317E-01
    55  5.4000000000000E-01  1.6151085103390E+00 -1.5902469715250E-01
    56  5.5000000000000E-01  1.6052167699280E+00 -1.0453011786502E-01
    57  5.6000000000000E-01  1.5921612522452E+00 -4.7251537747877E-02
    58  5.7000000000000E-01  1.5759968479754E+00  1.2598675389653E-02
    59  5.8000000000000E-01  1.5567915025154E+00  7.4789151718172E-02
    60  5.9000000000000E-01  1.5346257513403E+00  1.3907115296182E-01
    61  6.0000000000000E-01  1.5095921830753E+00  2.0518036230062E-01
    62  6.1000000000000E-01  1.4817948355523E+00  2.7283881030353E-01
    63  6.2000000000000E-01  1.4513485306676E+00  3.4175691508284E-01
    64  6.3000000000000E-01  1.4183781543108E+00  4.1163561367389E-01
    65  6.4000000000000E-01  1.3830178880066E+00  4.8216856079770E-01
    66  6.5000000000000E-01  1.3454103991836E+00  5.5304437066805E-01
    67  6.6000000000000E-01  1.3057059971749E+00  6.2394887736244E-01
    68  6.7000000000000E-01  1.2640617621460E+00  6.9456738948780E-01
    69  6.8000000000000E-01  1.2206406541487E+00  7.6458691542710E-01
    70  6.9000000000000E-01  1.1756106094115E+00  8.3369833634156E-01
    71  7.0000000000000E-01  1.1291436308058E+00  9.0159850530440E-01
    72  7.1000000000000E-01  1.0814148791760E+00  9.6799225243305E-01
    73  7.2000000000000E-01  1.0326017718954E+00  1.0325942776396E+00
    74  7.3000000000000E-01  9.8288309462024E-01  1.0951309146007E+00
    75  7.4000000000000E-01  9.3243813176499E-01  1.1553417517233E+00
    76  7.5000000000000E-01  8.8144582072779E-01  1.2129810982110E+00
    77  7.6000000000000E-01  8.3008393435864E-01  1.2678192857777E+00
    78  7.7000000000000E-01  7.7852829560245E-01  1.3196437990699E+00
    79  7.8000000000000E-01  7.2695202766892E-01  1.3682602303945E+00
    80  7.9000000000000E-01  6.7552484249514E-01  1.4134930568782E+00
    81  8.0000000000000E-01  6.2441236968411E-01  1.4551862406446E+00
    82  8.1000000000000E-01  5.7377552753324E-01  1.4932036549656E+00
    83  8.2000000000000E-01  5.2376993722139E-01  1.5274293415682E+00
    84  8.3000000000000E-01  4.7454538070864E-01  1.5577676063353E+00
    85  8.4000000000000E-01  4.2624530242989E-01  1.5841429624840E+00
    86  8.5000000000000E-01  3.7900635443589E-01  1.6064999319241E+00
    87  8.6000000000000E-01  3.3295798426225E-01  1.6248027168539E+00
    88  8.7000000000000E-01  2.8822206449036E-01  1.6390347547342E+00
    89  8.8000000000000E-01  2.4491256270934E-01  1.6491981705756E+00
    90  8.9000000000000E-01  2.0313525039632E-01  1.6553131409689E+00
    91  9.0000000000000E-01  1.6298744910469E-01  1.6574171844908E+00
    92  9.1000000000000E-01  1.2455781228523E-01  1.6555643930168E+00
    93  9.2000000000000E-01  8.7926141062740E-02  1.6498246180927E+00
    94  9.3000000000000E-01  5.3163232345753E-02  1.6402826258611E+00
    95  9.4000000000000E-01  2.0330757757181E-02  1.6270372331274E+00
    96  9.5000000000000E-01 -1.0518827968380E-02  1.6102004360156E+00
    97  9.6000000000000E-01 -3.9342350273795E-02  1.5898965413186E+00
    98  9.7000000000000E-01 -6.6105950672345E-02  1.5662613091364E+00
    99  9.8000000000000E-01 -9.0785095898271E-02  1.5394411137425E+00
   100  9.9000000000000E-01 -1.1336456068611E-01  1.5095921278646E+00
   101  1.0000000000000E+00 -1.3383838425666E-01  1.4768795337447E+00
   102  1.0100000000000E+00 -1.5220980029256E-01  1.4414767624981E+00
   103  1.0200000000000E+00 -1.6849113989792E-01  1.4035647614488E+00
   104  1.0300000000000E+00 -1.8270370676304E-01  1.3633312873326E+00
   105  1.0400000000000E+00 -1.9487762350570E-01  1.3209702215483E+00
   106  1.0500000000000E+00 -2.0505164794029E-01  1.2766809020460E+00
   107  1.0600000000000E+00 -2.1327295784400E-01  1.2306674649959E+00
   108  1.0700000000000E+00 -2.1959690264962E-01  1.1831381881092E+00
   109  1.0800000000000E+00 -2.2408672040271E-01  1.1343048264070E+00
   110  1.0900000000000E+00 -2.2681321828027E-01  1.0843819303745E+00
   111  1.1000000000000E+00 -2.2785441498144E-01  1.0335861358078E+00
   112  1.1100000000000E+00 -2.2729514336924E-01  9.8213541427277E-01
   113  1.1200000000000E+00 -2.2522661186532E-01  9.3024827294757E-01
   114  1.1300000000000E+00 -2.2174592327774E-01  8.7814289272196E-01
   115  1.1400000000000E+00 -2.1695554996965E-01  8.2603619375966E-01
   116  1.1500000000000E+00 -2.1096276455346E-01  7.7414281829623E-01
   117  1.1600000000000E+00 -2.0387902561419E-01  7.2267402122002E-01
   118  1.1700000000000E+00 -1.9581931832199E-01  6.7183645995488E-01
   119  1.1800000000000E+00 -1.8690145018090E-01  6.2183087630440E-01
   120  1.1900000000000E+00 -1.7724530257057E-01  5.7285066420176E-01
   121  1.2000000000000E+00 -1.6697203916372E-01  5.2508031871455E-01
   122  1.2100000000000E+00 -1.5620327273260E-01  4.7869376313478E-01
   123  1.2200000000000E+00 -1.4506019228992E-01  4.3385255253169E-01
   124  1.2300000000000E+00 -1.3366265292660E-01  3.9070395369169E-01
   125  1.2400000000000E+00 -1.2212823058691E-01  3.4937889920650E-01
   126  1.2500000000000E+00 -1.1057125072924E-01  3.0998986061914E-01
   127  1.2600000000000E+00 -9.9101812654461E-02  2.7262878382740E-01
   128  1.2700000000000E+00 -8.7825838763694E-02  2.3737247092784E-01
   129  1.2800000000000E+00 -7.6846021261607E-02  2.0429339597398E-01
   130  1.2900000000000E+00 -6.6261713186984E-02  1.7346167790124E-01
   131  1.3000000000000E+00 -5.6168563782436E-02  1.4494497720236E-01
   132  1.3100000000000E+00 -4.6658165451536E-02  1.1880838053893E-01
   133  1.3200000000000E+00 -3.7817723746282E-02  9.5114279953320E-02
   134  1.3300000000000E+00 -2.9729700479809E-02  7.3922144339464E-02