He    ONCVPSP-4.0.1  r_core=   1.25160   1.13057
      2.0000      2.0000      250217    zatom,zion,pspd
     8       2   1     4   600     0    pspcod,pspxc,lmax,lloc,mmax,r2well
  5.99000000  0.00000000  0.00000000    rchrg fchrg qchrg
     2     1     0     0    nproj
     3     1           extension_switch
     2     0     0    nprojso
   0                        -3.4627721109892E+00 -7.5904109598055E-01
     1  0.0000000000000E+00  4.4235275442617E-09 -1.2548775352172E-08
     2  1.0000000000000E-02  1.0521709968812E-01 -4.0860713008473E-02
     3  2.0000000000000E-02  2.1009106495867E-01 -8.1434708352291E-02
     4  3.0000000000000E-02  3.1427923220694E-01 -1.2143432093136E-01
     5  4.0000000000000E-02  4.1743991124580E-01 -1.6057008714365E-01
     6  5.0000000000000E-02  5.1923295029955E-01 -1.9855008316542E-01
     7  6.0000000000000E-02  6.1932039163056E-01 -2.3507953887701E-01
     8  7.0000000000000E-02  7.1736724260208E-01 -2.6986080397015E-01
     9  8.0000000000000E-02  8.1304238255674E-01 -3.0259373022420E-01
    10  9.0000000000000E-02  9.0601962061885E-01 -3.3297651898849E-01
    11  1.0000000000000E-01  9.9597891356872E-01 -3.6070706601548E-01
    12  1.1000000000000E-01  1.0826077464729E+00 -3.8548481747395E-01
    13  1.2000000000000E-01  1.1656026719829E+00 -4.0701313180124E-01
    14  1.3000000000000E-01  1.2446709973474E+00 -4.2500212262314E-01
    15  1.4000000000000E-01  1.3195326014308E+00 -4.3917193888893E-01
    16  1.5000000000000E-01  1.3899218576113E+00 -4.4925642024159E-01
    17  1.6000000000000E-01  1.4555896325427E+00 -4.5500704904664E-01
    18  1.7000000000000E-01  1.5163053256043E+00 -4.5619710597938E-01
    19  1.8000000000000E-01  1.5718589095948E+00 -4.5262592410073E-01
    20  1.9000000000000E-01  1.6220629300084E+00 -4.4412312734857E-01
    21  2.0000000000000E-01  1.6667544181701E+00 -4.3055273366261E-01
    22  2.1000000000000E-01  1.7057966726928E+00 -4.1181700077887E-01
    23  2.2000000000000E-01  1.7390808642105E+00 -3.8785989420888E-01
    24  2.3000000000000E-01  1.7665274201316E+00 -3.5867006208169E-01
    25  2.4000000000000E-01  1.7880871492461E+00 -3.2428321029340E-01
    26  2.5000000000000E-01  1.8037420703222E+00 -2.8478378358730E-01
    27  2.6000000000000E-01  1.8135059142682E+00 -2.4030587348616E-01
    28  2.7000000000000E-01  1.8174242758603E+00 -1.9103329202973E-01
    29  2.8000000000000E-01  1.8155743983011E+00 -1.3719877055996E-01
    30  2.9000000000000E-01  1.8080645817846E+00 -7.9082264801332E-02
    31  3.0000000000000E-01  1.7950332155858E+00 -1.7008370597303E-02
    32  3.1000000000000E-01  1.7766474417553E+00  4.8657121753998E-02
    33  3.2000000000000E-01  1.7531014670398E+00  1.1751148324370E-01
    34  3.3000000000000E-01  1.7246145479355E+00  1.8912003814711E-01
    35  3.4000000000000E-01  1.6914286815840E+00  2.6302179746605E-01
    36  3.5000000000000E-01  1.6538060423143E+00  3.3873562019366E-01
    37  3.6000000000000E-01  1.6120262098213E+00  4.1576677268197E-01
    38  3.7000000000000E-01  1.5663832400632E+00  4.9361374352796E-01
    39  3.8000000000000E-01  1.5171826338115E+00  5.7177516217947E-01
    40  3.9000000000000E-01  1.4647382602692E+00  6.4975666422135E-01
    41  4.0000000000000E-01  1.4093692942082E+00  7.2707754525084E-01
    42  4.1000000000000E-01  1.3513972246144E+00  8.0327704849168E-01
    43  4.2000000000000E-01  1.2911429908701E+00  8.7792013881134E-01
    44  4.3000000000000E-01  1.2289242990756E+00  9.5060262745723E-01
    45  4.4000000000000E-01  1.1650531663049E+00  1.0209555273626E+00
    46  4.5000000000000E-01  1.0998337345080E+00  1.0886485379212E+00
    47  4.6000000000000E-01  1.0335603885774E+00  1.1533925802201E+00
    48  4.7000000000000E-01  9.6651620496658E-01  1.2149413282964E+00
    49  4.8000000000000E-01  8.9897174840210E-01  1.2730917083876E+00
    50  4.9000000000000E-01  8.3118422490032E-01  1.3276833657009E+00
    51  5.0000000000000E-01  7.6339698973486E-01  1.3785971261614E+00
    52  5.1000000000000E-01  6.9583939946586E-01  1.4257525081702E+00
    53  5.2000000000000E-01  6.2872698789526E-01  1.4691043658248E+00
    54  5.3000000000000E-01  5.6226193711258E-01  1.5086387695899E+00
    55  5.4000000000000E-01  4.9663380688864E-01  1.5443682523402E+00
    56  5.5000000000000E-01  4.3202047878530E-01  1.5763265673868E+00
    57  5.6000000000000E-01  3.6858926567889E-01  1.6045631199693E+00
    58  5.7000000000000E-01  3.0649813311293E-01  1.6291372442887E+00
    59  5.8000000000000E-01  2.4589697613435E-01  1.6501125040901E+00
    60  5.9000000000000E-01  1.8692889412056E-01  1.6675511958598E+00
    61  6.0000000000000E-01  1.2973140662053E-01  1.6815092297541E+00
    62  6.1000000000000E-01  7.4437555416457E-02  1.6920315544616E+00
    63  6.2000000000000E-01  2.1176841821354E-02  1.6991482784712E+00
    64  6.3000000000000E-01 -2.9924046425011E-02  1.7028716219829E+00
    65  6.4000000000000E-01 -7.8740757544893E-02  1.7031938113670E+00
    66  6.5000000000000E-01 -1.2515107828784E-01  1.7000860022032E+00
    67  6.6000000000000E-01 -1.6903503854471E-01  1.6934982881598E+00
    68  6.7000000000000E-01 -2.1027533007253E-01  1.6833608220404E+00
    69  6.8000000000000E-01 -2.4875804105599E-01  1.6695860430393E+00
    70  6.9000000000000E-01 -2.8437369765137E-01  1.6520719714743E+00
    71  7.0000000000000E-01 -3.1701859312607E-01  1.6307064998788E+00
    72  7.1000000000000E-01 -3.4659637502085E-01  1.6053725782417E+00
    73  7.2000000000000E-01 -3.7301985120935E-01  1.5759541622430E+00
    74  7.3000000000000E-01 -3.9621296709249E-01  1.5423427673787E+00
    75  7.4000000000000E-01 -4.1611289869922E-01  1.5044444496673E+00
    76  7.5000000000000E-01 -4.3267220040012E-01  1.4621870158495E+00
    77  7.6000000000000E-01 -4.4586094147369E-01  1.4155272532081E+00
    78  7.7000000000000E-01 -4.5566876304989E-01  1.3644579617917E+00
    79  7.8000000000000E-01 -4.6210678610552E-01  1.3090145702308E+00
    80  7.9000000000000E-01 -4.6520930226108E-01  1.2492811206507E+00
    81  8.0000000000000E-01 -4.6503518214328E-01  1.1853954184226E+00
    82  8.1000000000000E-01 -4.6166894098977E-01  1.1175531585030E+00
    83  8.2000000000000E-01 -4.5522140789321E-01  1.0460108615867E+00
    84  8.3000000000000E-01 -4.4582995346891E-01  9.7108747979785E-01
    85  8.4000000000000E-01 -4.3365824059735E-01  8.9316456256630E-01
    86  8.5000000000000E-01 -4.1889547400999E-01  8.1268490797148E-01
    87  8.6000000000000E-01 -4.0175513658752E-01  7.3014966236125E-01
    88  8.7000000000000E-01 -3.8247321302770E-01  6.4611387054828E-01
    89  8.8000000000000E-01 -3.6130591469530E-01  5.6118051937641E-01
    90  8.9000000000000E-01 -3.3852693265483E-01  4.7599315791015E-01
    91  9.0000000000000E-01 -3.1442425876696E-01  3.9122721689426E-01
    92  9.1000000000000E-01 -2.8929662696388E-01  3.0758018743135E-01
    93  9.2000000000000E-01 -2.6344963807788E-01  2.2576085303756E-01
    94  9.3000000000000E-01 -2.3719164157849E-01  1.4647779944571E-01
    95  9.4000000000000E-01 -2.1082945599158E-01  7.0427451876106E-02
    96  9.5000000000000E-01 -1.8466401639049E-01 -1.7180907267621E-03
    97  9.6000000000000E-01 -1.5898604195991E-01 -6.9323141395005E-02
    98  9.7000000000000E-01 -1.3407181908665E-01 -1.3180014070767E-01
    99  9.8000000000000E-01 -1.1017919562676E-01 -1.8862071210702E-01
   100  9.9000000000000E-01 -8.7543879910467E-02 -2.3932577373302E-01
   101  1.0000000000000E+00 -6.6376132587433E-02 -2.8353444209958E-01
   102  1.0100000000000E+00 -4.6857915712734E-02 -3.2095155731995E-01
   103  1.0200000000000E+00 -2.9139815050017E-02 -3.5137683702371E-01
   104  1.0300000000000E+00 -1.3337674814484E-02 -3.7471576065731E-01
   105  1.0400000000000E+00  4.6909918819226E-04 -3.9098383590905E-01
   106  1.0500000000000E+00  1.2238247639637E-02 -4.0030745517388E-01
   107  1.0600000000000E+00  2.1964651838029E-02 -4.0292259041851E-01
   108  1.0700000000000E+00  2.9679607305861E-02 -3.9917131202929E-01
   109  1.0800000000000E+00  3.5449385922740E-02 -3.8949616451182E-01
   110  1.0900000000000E+00  3.9373111437460E-02 -3.7443248011670E-01
   111  1.1000000000000E+00  4.1579988758365E-02 -3.5459875890562E-01
   112  1.1100000000000E+00  4.2225942199873E-02 -3.3068528878827E-01
   113  1.1200000000000E+00  4.1489731508964E-02 -3.0344122056379E-01
   114  1.1300000000000E+00  3.9568626745538E-02 -2.7366035019239E-01
   115  1.1400000000000E+00  3.6673733538653E-02 -2.4216589217308E-01
   116  1.1500000000000E+00  3.3025068737044E-02 -2.0979455355635E-01
   117  1.1600000000000E+00  2.8846492693508E-02 -1.7738023680213E-01
   118  1.1700000000000E+00  2.4360607603317E-02 -1.4573770992328E-01
   119  1.1800000000000E+00  1.9783739626337E-02 -1.1564659935448E-01
   120  1.1900000000000E+00  1.5321151261464E-02 -8.7836100037372E-02
   121  1.2000000000000E+00  1.1164643132398E-02 -6.2974610795678E-02
   122  1.2100000000000E+00  7.4844580483062E-03 -4.1649692259779E-02
   123  1.2200000000000E+00  4.4252728413574E-03 -2.4355308289514E-02
   124  1.2300000000000E+00  2.1055730880361E-03 -1.1486916820678E-02
   125  1.2400000000000E+00  6.1113091833506E-04 -3.3118469389038E-03
   126  1.2500000000000E+00  2.2111277768854E-05 -1.1918437311446E-04
   127  1.2600000000000E+00  1.7313547523570E-06 -9.3362324330630E-06
   128  1.2700000000000E+00 -6.7038230646965E-07  3.6247470326024E-06
   129  1.28  0.  0.
   130  1.29  0.  0.
   131  1.30  0.  0.
   132  1.31  0.  0.
   133  1.32  0.  0.
   134  1.33  0.  0.
   135  1.34  0.  0.
   136  1.35  0.  0.
   137  1.36  0.  0.
   138  1.37  0.  0.
   139  1.38  0.  0.
   140  1.39  0.  0.
   141  1.40  0.  0.
   142  1.41  0.  0.
   143  1.42  0.  0.
   144  1.43  0.  0.
   145  1.44  0.  0.
   146  1.45  0.  0.
   147  1.46  0.  0.
   148  1.47  0.  0.
   149  1.48  0.  0.
   150  1.49  0.  0.
   151  1.50  0.  0.
   152  1.51  0.  0.
   153  1.52  0.  0.
   154  1.53  0.  0.
   155  1.54  0.  0.
   156  1.55  0.  0.
   157  1.56  0.  0.
   158  1.57  0.  0.
   159  1.58  0.  0.
   160  1.59  0.  0.
   161  1.60  0.  0.
   162  1.61  0.  0.
   163  1.62  0.  0.
   164  1.63  0.  0.
   165  1.64  0.  0.
   166  1.65  0.  0.
   167  1.66  0.  0.
   168  1.67  0.  0.
   169  1.68  0.  0.
   170  1.69  0.  0.
   171  1.70  0.  0.
   172  1.71  0.  0.
   173  1.72  0.  0.
   174  1.73  0.  0.
   175  1.74  0.  0.
   176  1.75  0.  0.
   177  1.76  0.  0.
   178  1.77  0.  0.
   179  1.78  0.  0.
   180  1.79  0.  0.
   181  1.80  0.  0.
   182  1.81  0.  0.
   183  1.82  0.  0.
   184  1.83  0.  0.
   185  1.84  0.  0.
   186  1.85  0.  0.
   187  1.86  0.  0.
   188  1.87  0.  0.
   189  1.88  0.  0.
   190  1.89  0.  0.
   191  1.90  0.  0.
   192  1.91  0.  0.
   193  1.92  0.  0.
   194  1.93  0.  0.
   195  1.94  0.  0.
   196  1.95  0.  0.
   197  1.96  0.  0.
   198  1.97  0.  0.
   199  1.98  0.  0.
   200  1.99  0.  0.
   201  2.00  0.  0.
   202  2.01  0.  0.
   203  2.02  0.  0.
   204  2.03  0.  0.
   205  2.04  0.  0.
   206  2.05  0.  0.
   207  2.06  0.  0.
   208  2.07  0.  0.
   209  2.08  0.  0.
   210  2.09  0.  0.
   211  2.10  0.  0.
   212  2.11  0.  0.
   213  2.12  0.  0.
   214  2.13  0.  0.
   215  2.14  0.  0.
   216  2.15  0.  0.
   217  2.16  0.  0.
   218  2.17  0.  0.
   219  2.18  0.  0.
   220  2.19  0.  0.
   221  2.20  0.  0.
   222  2.21  0.  0.
   223  2.22  0.  0.
   224  2.23  0.  0.
   225  2.24  0.  0.
   226  2.25  0.  0.
   227  2.26  0.  0.
   228  2.27  0.  0.
   229  2.28  0.  0.
   230  2.29  0.  0.
   231  2.30  0.  0.
   232  2.31  0.  0.
   233  2.32  0.  0.
   234  2.33  0.  0.
   235  2.34  0.  0.
   236  2.35  0.  0.
   237  2.36  0.  0.
   238  2.37  0.  0.
   239  2.38  0.  0.
   240  2.39  0.  0.
   241  2.40  0.  0.
   242  2.41  0.  0.
   243  2.42  0.  0.
   244  2.43  0.  0.
   245  2.44  0.  0.
   246  2.45  0.  0.
   247  2.46  0.  0.
   248  2.47  0.  0.
   249  2.48  0.  0.
   250  2.49  0.  0.
   251  2.50  0.  0.
   252  2.51  0.  0.
   253  2.52  0.  0.
   254  2.53  0.  0.
   255  2.54  0.  0.
   256  2.55  0.  0.
   257  2.56  0.  0.
   258  2.57  0.  0.
   259  2.58  0.  0.
   260  2.59  0.  0.
   261  2.60  0.  0.
   262  2.61  0.  0.
   263  2.62  0.  0.
   264  2.63  0.  0.
   265  2.64  0.  0.
   266  2.65  0.  0.
   267  2.66  0.  0.
   268  2.67  0.  0.
   269  2.68  0.  0.
   270  2.69  0.  0.
   271  2.70  0.  0.
   272  2.71  0.  0.
   273  2.72  0.  0.
   274  2.73  0.  0.
   275  2.74  0.  0.
   276  2.75  0.  0.
   277  2.76  0.  0.
   278  2.77  0.  0.
   279  2.78  0.  0.
   280  2.79  0.  0.
   281  2.80  0.  0.
   282  2.81  0.  0.
   283  2.82  0.  0.
   284  2.83  0.  0.
   285  2.84  0.  0.
   286  2.85  0.  0.
   287  2.86  0.  0.
   288  2.87  0.  0.
   289  2.88  0.  0.
   290  2.89  0.  0.
   291  2.90  0.  0.
   292  2.91  0.  0.
   293  2.92  0.  0.
   294  2.93  0.  0.
   295  2.94  0.  0.
   296  2.95  0.  0.
   297  2.96  0.  0.
   298  2.97  0.  0.
   299  2.98  0.  0.
   300  2.99  0.  0.
   301  3.00  0.  0.
   302  3.01  0.  0.
   303  3.02  0.  0.
   304  3.03  0.  0.
   305  3.04  0.  0.
   306  3.05  0.  0.
   307  3.06  0.  0.
   308  3.07  0.  0.
   309  3.08  0.  0.
   310  3.09  0.  0.
   311  3.10  0.  0.
   312  3.11  0.  0.
   313  3.12  0.  0.
   314  3.13  0.  0.
   315  3.14  0.  0.
   316  3.15  0.  0.
   317  3.16  0.  0.
   318  3.17  0.  0.
   319  3.18  0.  0.
   320  3.19  0.  0.
   321  3.20  0.  0.
   322  3.21  0.  0.
   323  3.22  0.  0.
   324  3.23  0.  0.
   325  3.24  0.  0.
   326  3.25  0.  0.
   327  3.26  0.  0.
   328  3.27  0.  0.
   329  3.28  0.  0.
   330  3.29  0.  0.
   331  3.30  0.  0.
   332  3.31  0.  0.
   333  3.32  0.  0.
   334  3.33  0.  0.
   335  3.34  0.  0.
   336  3.35  0.  0.
   337  3.36  0.  0.
   338  3.37  0.  0.
   339  3.38  0.  0.
   340  3.39  0.  0.
   341  3.40  0.  0.
   342  3.41  0.  0.
   343  3.42  0.  0.
   344  3.43  0.  0.
   345  3.44  0.  0.
   346  3.45  0.  0.
   347  3.46  0.  0.
   348  3.47  0.  0.
   349  3.48  0.  0.
   350  3.49  0.  0.
   351  3.50  0.  0.
   352  3.51  0.  0.
   353  3.52  0.  0.
   354  3.53  0.  0.
   355  3.54  0.  0.
   356  3.55  0.  0.
   357  3.56  0.  0.
   358  3.57  0.  0.
   359  3.58  0.  0.
   360  3.59  0.  0.
   361  3.60  0.  0.
   362  3.61  0.  0.
   363  3.62  0.  0.
   364  3.63  0.  0.
   365  3.64  0.  0.
   366  3.65  0.  0.
   367  3.66  0.  0.
   368  3.67  0.  0.
   369  3.68  0.  0.
   370  3.69  0.  0.
   371  3.70  0.  0.
   372  3.71  0.  0.
   373  3.72  0.  0.
   374  3.73  0.  0.
   375  3.74  0.  0.
   376  3.75  0.  0.
   377  3.76  0.  0.
   378  3.77  0.  0.
   379  3.78  0.  0.
   380  3.79  0.  0.
   381  3.80  0.  0.
   382  3.81  0.  0.
   383  3.82  0.  0.
   384  3.83  0.  0.
   385  3.84  0.  0.
   386  3.85  0.  0.
   387  3.86  0.  0.
   388  3.87  0.  0.
   389  3.88  0.  0.
   390  3.89  0.  0.
   391  3.90  0.  0.
   392  3.91  0.  0.
   393  3.92  0.  0.
   394  3.93  0.  0.
   395  3.94  0.  0.
   396  3.95  0.  0.
   397  3.96  0.  0.
   398  3.97  0.  0.
   399  3.98  0.  0.
   400  3.99  0.  0.
   401  4.00  0.  0.
   402  4.01  0.  0.
   403  4.02  0.  0.
   404  4.03  0.  0.
   405  4.04  0.  0.
   406  4.05  0.  0.
   407  4.06  0.  0.
   408  4.07  0.  0.
   409  4.08  0.  0.
   410  4.09  0.  0.
   411  4.10  0.  0.
   412  4.11  0.  0.
   413  4.12  0.  0.
   414  4.13  0.  0.
   415  4.14  0.  0.
   416  4.15  0.  0.
   417  4.16  0.  0.
   418  4.17  0.  0.
   419  4.18  0.  0.
   420  4.19  0.  0.
   421  4.20  0.  0.
   422  4.21  0.  0.
   423  4.22  0.  0.
   424  4.23  0.  0.
   425  4.24  0.  0.
   426  4.25  0.  0.
   427  4.26  0.  0.
   428  4.27  0.  0.
   429  4.28  0.  0.
   430  4.29  0.  0.
   431  4.30  0.  0.
   432  4.31  0.  0.
   433  4.32  0.  0.
   434  4.33  0.  0.
   435  4.34  0.  0.
   436  4.35  0.  0.
   437  4.36  0.  0.
   438  4.37  0.  0.
   439  4.38  0.  0.
   440  4.39  0.  0.
   441  4.40  0.  0.
   442  4.41  0.  0.
   443  4.42  0.  0.
   444  4.43  0.  0.
   445  4.44  0.  0.
   446  4.45  0.  0.
   447  4.46  0.  0.
   448  4.47  0.  0.
   449  4.48  0.  0.
   450  4.49  0.  0.
   451  4.50  0.  0.
   452  4.51  0.  0.
   453  4.52  0.  0.
   454  4.53  0.  0.
   455  4.54  0.  0.
   456  4.55  0.  0.
   457  4.56  0.  0.
   458  4.57  0.  0.
   459  4.58  0.  0.
   460  4.59  0.  0.
   461  4.60  0.  0.
   462  4.61  0.  0.
   463  4.62  0.  0.
   464  4.63  0.  0.
   465  4.64  0.  0.
   466  4.65  0.  0.
   467  4.66  0.  0.
   468  4.67  0.  0.
   469  4.68  0.  0.
   470  4.69  0.  0.
   471  4.70  0.  0.
   472  4.71  0.  0.
   473  4.72  0.  0.
   474  4.73  0.  0.
   475  4.74  0.  0.
   476  4.75  0.  0.
   477  4.76  0.  0.
   478  4.77  0.  0.
   479  4.78  0.  0.
   480  4.79  0.  0.
   481  4.80  0.  0.
   482  4.81  0.  0.
   483  4.82  0.  0.
   484  4.83  0.  0.
   485  4.84  0.  0.
   486  4.85  0.  0.
   487  4.86  0.  0.
   488  4.87  0.  0.
   489  4.88  0.  0.
   490  4.89  0.  0.
   491  4.90  0.  0.
   492  4.91  0.  0.
   493  4.92  0.  0.
   494  4.93  0.  0.
   495  4.94  0.  0.
   496  4.95  0.  0.
   497  4.96  0.  0.
   498  4.97  0.  0.
   499  4.98  0.  0.
   500  4.99  0.  0.
   501  5.00  0.  0.
   502  5.01  0.  0.
   503  5.02  0.  0.
   504  5.03  0.  0.
   505  5.04  0.  0.
   506  5.05  0.  0.
   507  5.06  0.  0.
   508  5.07  0.  0.
   509  5.08  0.  0.
   510  5.09  0.  0.
   511  5.10  0.  0.
   512  5.11  0.  0.
   513  5.12  0.  0.
   514  5.13  0.  0.
   515  5.14  0.  0.
   516  5.15  0.  0.
   517  5.16  0.  0.
   518  5.17  0.  0.
   519  5.18  0.  0.
   520  5.19  0.  0.
   521  5.20  0.  0.
   522  5.21  0.  0.
   523  5.22  0.  0.
   524  5.23  0.  0.
   525  5.24  0.  0.
   526  5.25  0.  0.
   527  5.26  0.  0.
   528  5.27  0.  0.
   529  5.28  0.  0.
   530  5.29  0.  0.
   531  5.30  0.  0.
   532  5.31  0.  0.
   533  5.32  0.  0.
   534  5.33  0.  0.
   535  5.34  0.  0.
   536  5.35  0.  0.
   537  5.36  0.  0.
   538  5.37  0.  0.
   539  5.38  0.  0.
   540  5.39  0.  0.
   541  5.40  0.  0.
   542  5.41  0.  0.
   543  5.42  0.  0.
   544  5.43  0.  0.
   545  5.44  0.  0.
   546  5.45  0.  0.
   547  5.46  0.  0.
   548  5.47  0.  0.
   549  5.48  0.  0.
   550  5.49  0.  0.
   551  5.50  0.  0.
   552  5.51  0.  0.
   553  5.52  0.  0.
   554  5.53  0.  0.
   555  5.54  0.  0.
   556  5.55  0.  0.
   557  5.56  0.  0.
   558  5.57  0.  0.
   559  5.58  0.  0.
   560  5.59  0.  0.
   561  5.60  0.  0.
   562  5.61  0.  0.
   563  5.62  0.  0.
   564  5.63  0.  0.
   565  5.64  0.  0.
   566  5.65  0.  0.
   567  5.66  0.  0.
   568  5.67  0.  0.
   569  5.68  0.  0.
   570  5.69  0.  0.
   571  5.70  0.  0.
   572  5.71  0.  0.
   573  5.72  0.  0.
   574  5.73  0.  0.
   575  5.74  0.  0.
   576  5.75  0.  0.
   577  5.76  0.  0.
   578  5.77  0.  0.
   579  5.78  0.  0.
   580  5.79  0.  0.
   581  5.80  0.  0.
   582  5.81  0.  0.
   583  5.82  0.  0.
   584  5.83  0.  0.
   585  5.84  0.  0.
   586  5.85  0.  0.
   587  5.86  0.  0.
   588  5.87  0.  0.
   589  5.88  0.  0.
   590  5.89  0.  0.
   591  5.90  0.  0.
   592  5.91  0.  0.
   593  5.92  0.  0.
   594  5.93  0.  0.
   595  5.94  0.  0.
   596  5.95  0.  0.
   597  5.96  0.  0.
   598  5.97  0.  0.
   599  5.98  0.  0.
   600  5.99  0.  0.
   1                        -6.9641016344254E-01
     1  0.0000000000000E+00  5.3968352287104E-09
     2  1.0000000000000E-02  2.4422491057644E-03
     3  2.0000000000000E-02  9.7514543698444E-03
     4  3.0000000000000E-02  2.1875185958156E-02
     5  4.0000000000000E-02  3.8726712075648E-02
     6  5.0000000000000E-02  6.0185964868840E-02
     7  6.0000000000000E-02  8.6100870919311E-02
     8  7.0000000000000E-02  1.1628902504447E-01
     9  8.0000000000000E-02  1.5053968072505E-01
    10  9.0000000000000E-02  1.8861602557704E-01
    11  1.0000000000000E-01  2.3025770596941E-01
    12  1.1000000000000E-01  2.7518356123684E-01
    13  1.2000000000000E-01  3.2309452501526E-01
    14  1.3000000000000E-01  3.7367664908979E-01
    15  1.4000000000000E-01  4.2660420382588E-01
    16  1.5000000000000E-01  4.8154280877795E-01
    17  1.6000000000000E-01  5.3815254743949E-01
    18  1.7000000000000E-01  5.9609102130445E-01
    19  1.8000000000000E-01  6.5501630042375E-01
    20  1.9000000000000E-01  7.1458973042135E-01
    21  2.0000000000000E-01  7.7447855942259E-01
    22  2.1000000000000E-01  8.3435835247416E-01
    23  2.2000000000000E-01  8.9391516571534E-01
    24  2.3000000000000E-01  9.5284745770061E-01
    25  2.4000000000000E-01  1.0108677207719E+00
    26  2.5000000000000E-01  1.0677038211248E+00
    27  2.6000000000000E-01  1.1231000420906E+00
    28  2.7000000000000E-01  1.1768178310553E+00
    29  2.8000000000000E-01  1.2286362562260E+00
    30  2.9000000000000E-01  1.2783521850410E+00
    31  3.0000000000000E-01  1.3257802012686E+00
    32  3.1000000000000E-01  1.3707522826641E+00
    33  3.2000000000000E-01  1.4131172653523E+00
    34  3.3000000000000E-01  1.4527401247873E+00
    35  3.4000000000000E-01  1.4895011061456E+00
    36  3.5000000000000E-01  1.5232947392651E+00
    37  3.6000000000000E-01  1.5540287747156E+00
    38  3.7000000000000E-01  1.5816230782421E+00
    39  3.8000000000000E-01  1.6060085206472E+00
    40  3.9000000000000E-01  1.6271258991847E+00
    41  4.0000000000000E-01  1.6449249247333E+00
    42  4.1000000000000E-01  1.6593633064590E+00
    43  4.2000000000000E-01  1.6704059623960E+00
    44  4.3000000000000E-01  1.6780243804554E+00
    45  4.4000000000000E-01  1.6821961498914E+00
    46  4.5000000000000E-01  1.6829046783020E+00
    47  4.6000000000000E-01  1.6801391039234E+00
    48  4.7000000000000E-01  1.6738944074114E+00
    49  4.8000000000000E-01  1.6641717215916E+00
    50  4.9000000000000E-01  1.6509788319435E+00
    51  5.0000000000000E-01  1.6343308549680E+00
    52  5.1000000000000E-01  1.6142510762045E+00
    53  5.2000000000000E-01  1.5907719246278E+00
    54  5.3000000000000E-01  1.5639360555762E+00
    55  5.4000000000000E-01  1.5337975103509E+00
    56  5.5000000000000E-01  1.5004229172662E+00
    57  5.6000000000000E-01  1.4638926963126E+00
    58  5.7000000000000E-01  1.4243022277816E+00
    59  5.8000000000000E-01  1.3817629442427E+00
    60  5.9000000000000E-01  1.3364033051989E+00
    61  6.0000000000000E-01  1.2883696145956E+00
    62  6.1000000000000E-01  1.2378266431087E+00
    63  6.2000000000000E-01  1.1849580197898E+00
    64  6.3000000000000E-01  1.1299663611454E+00
    65  6.4000000000000E-01  1.0730731100293E+00
    66  6.5000000000000E-01  1.0145180617617E+00
    67  6.6000000000000E-01  9.5455856056173E-01
    68  6.7000000000000E-01  8.9346835560224E-01
    69  6.8000000000000E-01  8.3153611264207E-01
    70  6.9000000000000E-01  7.6906358415135E-01
    71  7.0000000000000E-01  7.0636344797920E-01
    72  7.1000000000000E-01  6.4375683179007E-01
    73  7.2000000000000E-01  5.8157054757335E-01
    74  7.3000000000000E-01  5.2013406737258E-01
    75  7.4000000000000E-01  4.5977627784765E-01
    76  7.5000000000000E-01  4.0082205724494E-01
    77  7.6000000000000E-01  3.4358872368045E-01
    78  7.7000000000000E-01  2.8838240822739E-01
    79  7.8000000000000E-01  2.3549441003781E-01
    80  7.9000000000000E-01  1.8519759353282E-01
    81  8.0000000000000E-01  1.3774288949402E-01
    82  8.1000000000000E-01  9.3355962628142E-02
    83  8.2000000000000E-01  5.2234107821820E-02
    84  8.3000000000000E-01  1.4543435840035E-02
    85  8.4000000000000E-01 -1.9583593344810E-02
    86  8.5000000000000E-01 -5.0050235049738E-02
    87  8.6000000000000E-01 -7.6797072334606E-02
    88  8.7000000000000E-01 -9.9803132181296E-02
    89  8.8000000000000E-01 -1.1908646768712E-01
    90  8.9000000000000E-01 -1.3470417585851E-01
    91  9.0000000000000E-01 -1.4675182855030E-01
    92  9.1000000000000E-01 -1.5536230258707E-01
    93  9.2000000000000E-01 -1.6070400398233E-01
    94  9.3000000000000E-01 -1.6297849029161E-01
    95  9.4000000000000E-01 -1.6241750433807E-01
    96  9.5000000000000E-01 -1.5927944167527E-01
    97  9.6000000000000E-01 -1.5384528304274E-01
    98  9.7000000000000E-01 -1.4641403156753E-01
    99  9.8000000000000E-01 -1.3729770241762E-01
   100  9.9000000000000E-01 -1.2681591977053E-01
   101  1.0000000000000E+00 -1.1529018799180E-01
   102  1.0100000000000E+00 -1.0303799921506E-01
   103  1.0200000000000E+00 -9.0370770768403E-02
   104  1.0300000000000E+00 -7.7595957910295E-02
   105  1.0400000000000E+00 -6.5013428772722E-02
   106  1.0500000000000E+00 -5.2910295532490E-02
   107  1.0600000000000E+00 -4.1555898612260E-02
   108  1.0700000000000E+00 -3.1196930314061E-02
   109  1.0800000000000E+00 -2.2058985454958E-02
   110  1.0900000000000E+00 -1.4347438003085E-02
   111  1.1000000000000E+00 -8.2017652566012E-03
   112  1.1100000000000E+00 -3.7249263936025E-03
   113  1.1200000000000E+00 -9.7786707974483E-04
   114  1.1300000000000E+00 -1.1213206969338E-05
   115  1.1400000000000E+00 -5.8377806269997E-06
   116  1.1500000000000E+00  4.5464145572903E-07
   117  1.16  0.
   118  1.17  0.
   119  1.18  0.
   120  1.19  0.
   121  1.20  0.
   122  1.21  0.
   123  1.22  0.
   124  1.23  0.
   125  1.24  0.
   126  1.25  0.
   127  1.26  0.
   128  1.27  0.
   129  1.28  0.
   130  1.29  0.
   131  1.30  0.
   132  1.31  0.
   133  1.32  0.
   134  1.33  0.
   135  1.34  0.
   136  1.35  0.
   137  1.36  0.
   138  1.37  0.
   139  1.38  0.
   140  1.39  0.
   141  1.40  0.
   142  1.41  0.
   143  1.42  0.
   144  1.43  0.
   145  1.44  0.
   146  1.45  0.
   147  1.46  0.
   148  1.47  0.
   149  1.48  0.
   150  1.49  0.
   151  1.50  0.
   152  1.51  0.
   153  1.52  0.
   154  1.53  0.
   155  1.54  0.
   156  1.55  0.
   157  1.56  0.
   158  1.57  0.
   159  1.58  0.
   160  1.59  0.
   161  1.60  0.
   162  1.61  0.
   163  1.62  0.
   164  1.63  0.
   165  1.64  0.
   166  1.65  0.
   167  1.66  0.
   168  1.67  0.
   169  1.68  0.
   170  1.69  0.
   171  1.70  0.
   172  1.71  0.
   173  1.72  0.
   174  1.73  0.
   175  1.74  0.
   176  1.75  0.
   177  1.76  0.
   178  1.77  0.
   179  1.78  0.
   180  1.79  0.
   181  1.80  0.
   182  1.81  0.
   183  1.82  0.
   184  1.83  0.
   185  1.84  0.
   186  1.85  0.
   187  1.86  0.
   188  1.87  0.
   189  1.88  0.
   190  1.89  0.
   191  1.90  0.
   192  1.91  0.
   193  1.92  0.
   194  1.93  0.
   195  1.94  0.
   196  1.95  0.
   197  1.96  0.
   198  1.97  0.
   199  1.98  0.
   200  1.99  0.
   201  2.00  0.
   202  2.01  0.
   203  2.02  0.
   204  2.03  0.
   205  2.04  0.
   206  2.05  0.
   207  2.06  0.
   208  2.07  0.
   209  2.08  0.
   210  2.09  0.
   211  2.10  0.
   212  2.11  0.
   213  2.12  0.
   214  2.13  0.
   215  2.14  0.
   216  2.15  0.
   217  2.16  0.
   218  2.17  0.
   219  2.18  0.
   220  2.19  0.
   221  2.20  0.
   222  2.21  0.
   223  2.22  0.
   224  2.23  0.
   225  2.24  0.
   226  2.25  0.
   227  2.26  0.
   228  2.27  0.
   229  2.28  0.
   230  2.29  0.
   231  2.30  0.
   232  2.31  0.
   233  2.32  0.
   234  2.33  0.
   235  2.34  0.
   236  2.35  0.
   237  2.36  0.
   238  2.37  0.
   239  2.38  0.
   240  2.39  0.
   241  2.40  0.
   242  2.41  0.
   243  2.42  0.
   244  2.43  0.
   245  2.44  0.
   246  2.45  0.
   247  2.46  0.
   248  2.47  0.
   249  2.48  0.
   250  2.49  0.
   251  2.50  0.
   252  2.51  0.
   253  2.52  0.
   254  2.53  0.
   255  2.54  0.
   256  2.55  0.
   257  2.56  0.
   258  2.57  0.
   259  2.58  0.
   260  2.59  0.
   261  2.60  0.
   262  2.61  0.
   263  2.62  0.
   264  2.63  0.
   265  2.64  0.
   266  2.65  0.
   267  2.66  0.
   268  2.67  0.
   269  2.68  0.
   270  2.69  0.
   271  2.70  0.
   272  2.71  0.
   273  2.72  0.
   274  2.73  0.
   275  2.74  0.
   276  2.75  0.
   277  2.76  0.
   278  2.77  0.
   279  2.78  0.
   280  2.79  0.
   281  2.80  0.
   282  2.81  0.
   283  2.82  0.
   284  2.83  0.
   285  2.84  0.
   286  2.85  0.
   287  2.86  0.
   288  2.87  0.
   289  2.88  0.
   290  2.89  0.
   291  2.90  0.
   292  2.91  0.
   293  2.92  0.
   294  2.93  0.
   295  2.94  0.
   296  2.95  0.
   297  2.96  0.
   298  2.97  0.
   299  2.98  0.
   300  2.99  0.
   301  3.00  0.
   302  3.01  0.
   303  3.02  0.
   304  3.03  0.
   305  3.04  0.
   306  3.05  0.
   307  3.06  0.
   308  3.07  0.
   309  3.08  0.
   310  3.09  0.
   311  3.10  0.
   312  3.11  0.
   313  3.12  0.
   314  3.13  0.
   315  3.14  0.
   316  3.15  0.
   317  3.16  0.
   318  3.17  0.
   319  3.18  0.
   320  3.19  0.
   321  3.20  0.
   322  3.21  0.
   323  3.22  0.
   324  3.23  0.
   325  3.24  0.
   326  3.25  0.
   327  3.26  0.
   328  3.27  0.
   329  3.28  0.
   330  3.29  0.
   331  3.30  0.
   332  3.31  0.
   333  3.32  0.
   334  3.33  0.
   335  3.34  0.
   336  3.35  0.
   337  3.36  0.
   338  3.37  0.
   339  3.38  0.
   340  3.39  0.
   341  3.40  0.
   342  3.41  0.
   343  3.42  0.
   344  3.43  0.
   345  3.44  0.
   346  3.45  0.
   347  3.46  0.
   348  3.47  0.
   349  3.48  0.
   350  3.49  0.
   351  3.50  0.
   352  3.51  0.
   353  3.52  0.
   354  3.53  0.
   355  3.54  0.
   356  3.55  0.
   357  3.56  0.
   358  3.57  0.
   359  3.58  0.
   360  3.59  0.
   361  3.60  0.
   362  3.61  0.
   363  3.62  0.
   364  3.63  0.
   365  3.64  0.
   366  3.65  0.
   367  3.66  0.
   368  3.67  0.
   369  3.68  0.
   370  3.69  0.
   371  3.70  0.
   372  3.71  0.
   373  3.72  0.
   374  3.73  0.
   375  3.74  0.
   376  3.75  0.
   377  3.76  0.
   378  3.77  0.
   379  3.78  0.
   380  3.79  0.
   381  3.80  0.
   382  3.81  0.
   383  3.82  0.
   384  3.83  0.
   385  3.84  0.
   386  3.85  0.
   387  3.86  0.
   388  3.87  0.
   389  3.88  0.
   390  3.89  0.
   391  3.90  0.
   392  3.91  0.
   393  3.92  0.
   394  3.93  0.
   395  3.94  0.
   396  3.95  0.
   397  3.96  0.
   398  3.97  0.
   399  3.98  0.
   400  3.99  0.
   401  4.00  0.
   402  4.01  0.
   403  4.02  0.
   404  4.03  0.
   405  4.04  0.
   406  4.05  0.
   407  4.06  0.
   408  4.07  0.
   409  4.08  0.