He    ONCVPSP-4.0.1  r_core=   1.25127   1.13028
      2.0000      2.0000      231019    zatom,zion,pspd
     8       2   1     4   600     0    pspcod,pspxc,lmax,lloc,mmax,r2well
  5.99000000  0.00000000  0.00000000    rchrg fchrg qchrg
     2     1     0     0     0    nproj
     1     1           extension_switch
   0                        -3.4636083035696E+00 -7.5914306526653E-01
     1  0.0000000000000E+00  4.4313692715292E-09 -1.2570527785360E-08
     2  1.0000000000000E-02  1.0526018862163E-01 -4.0882908681846E-02
     3  2.0000000000000E-02  2.1017688376144E-01 -8.1478701636668E-02
     4  3.0000000000000E-02  3.1440706458625E-01 -1.2149931775806E-01
     5  4.0000000000000E-02  4.1760868738451E-01 -1.6065490165010E-01
     6  5.0000000000000E-02  5.1944125249079E-01 -1.9865314425831E-01
     7  6.0000000000000E-02  6.1956646193167E-01 -2.3519889942300E-01
     8  7.0000000000000E-02  7.1764899261577E-01 -2.6999415295561E-01
     9  8.0000000000000E-02  8.1335740545957E-01 -3.0273840826873E-01
    10  9.0000000000000E-02  9.0636520555947E-01 -3.3312953761397E-01
    11  1.0000000000000E-01  9.9635206255086E-01 -3.6086513106162E-01
    12  1.1000000000000E-01  1.0830051938197E+00 -3.8564435701045E-01
    13  1.2000000000000E-01  1.1660209064502E+00 -4.0717032881571E-01
    14  1.3000000000000E-01  1.2451062869134E+00 -4.2515295266435E-01
    15  1.4000000000000E-01  1.3199810207414E+00 -4.3931221271924E-01
    16  1.5000000000000E-01  1.3903793180017E+00 -4.4938183140336E-01
    17  1.6000000000000E-01  1.4560519144935E+00 -4.5511322608109E-01
    18  1.7000000000000E-01  1.5167681134184E+00 -4.5627966885760E-01
    19  1.8000000000000E-01  1.5723178280156E+00 -4.5268054424267E-01
    20  1.9000000000000E-01  1.6225135824249E+00 -4.4414559042322E-01
    21  2.0000000000000E-01  1.6671924259879E+00 -4.3053900418910E-01
    22  2.1000000000000E-01  1.7062177153916E+00 -4.1176328739196E-01
    23  2.2000000000000E-01  1.7394807195499E+00 -3.8776271431862E-01
    24  2.3000000000000E-01  1.7669020039292E+00 -3.5852630455516E-01
    25  2.4000000000000E-01  1.7884325541192E+00 -3.2409019472044E-01
    26  2.5000000000000E-01  1.8040546027714E+00 -2.8453931466705E-01
    27  2.6000000000000E-01  1.8137821294815E+00 -2.4000828909235E-01
    28  2.7000000000000E-01  1.8176610096354E+00 -1.9068150357950E-01
    29  2.8000000000000E-01  1.8157687955206E+00 -1.3679229442741E-01
    30  2.9000000000000E-01  1.8082141209306E+00 -7.8621243678558E-02
    31  3.0000000000000E-01  1.7951357288520E+00 -1.6493583913147E-02
    32  3.1000000000000E-01  1.7767011304001E+00  4.9224259001400E-02
    33  3.2000000000000E-01  1.7531049117211E+00  1.1812893360339E-01
    34  3.3000000000000E-01  1.7245667138791E+00  1.8978516683646E-01
    35  3.4000000000000E-01  1.6913289185535E+00  2.6373140922719E-01
    36  3.5000000000000E-01  1.6536540794737E+00  3.3948600728177E-01
    37  3.6000000000000E-01  1.6118221457032E+00  4.1655377304985E-01
    38  3.7000000000000E-01  1.5661275279774E+00  4.9443280795206E-01
    39  3.8000000000000E-01  1.5168760631421E+00  5.7262142877657E-01
    40  3.9000000000000E-01  1.4643819342119E+00  6.5062503854235E-01
    41  4.0000000000000E-01  1.4089646045910E+00  7.2796278391996E-01
    42  4.1000000000000E-01  1.3509458245173E+00  8.0417384419351E-01
    43  4.2000000000000E-01  1.2906467658129E+00  8.7882320432214E-01
    44  4.3000000000000E-01  1.2283853375754E+00  9.5150677637817E-01
    45  4.4000000000000E-01  1.1644737306119E+00  1.0218557492430E+00
    46  4.5000000000000E-01  1.0992162323124E+00  1.0895400655633E+00
    47  4.6000000000000E-01  1.0329073464373E+00  1.1542709471334E+00
    48  4.7000000000000E-01  9.6583024414257E-01  1.2158024145136E+00
    49  4.8000000000000E-01  8.9825556369341E-01  1.2739317731676E+00
    50  4.9000000000000E-01  8.3044056696822E-01  1.3284990660099E+00
    51  5.0000000000000E-01  7.6262865127079E-01  1.3793855202453E+00
    52  5.1000000000000E-01  6.9504920541881E-01  1.4265110439841E+00
    53  5.2000000000000E-01  6.2791778981939E-01  1.4698308545703E+00
    54  5.3000000000000E-01  5.6143661153662E-01  1.5093313451037E+00
    55  5.4000000000000E-01  4.9579525744804E-01  1.5450253175682E+00
    56  5.5000000000000E-01  4.3117164170100E-01  1.5769467296495E+00
    57  5.6000000000000E-01  3.6773311801928E-01  1.6051451171656E+00
    58  5.7000000000000E-01  3.0563770314155E-01  1.6296798645716E+00
    59  5.8000000000000E-01  2.4503535493158E-01  1.6506145018781E+00
    60  5.9000000000000E-01  1.8606924757595E-01  1.6680112072979E+00
    61  6.0000000000000E-01  1.2887698682812E-01  1.6819256909051E+00
    62  6.1000000000000E-01  7.3591710471644E-02  1.6924026255774E+00
    63  6.2000000000000E-01  2.0343023016118E-02  1.6994717776647E+00
    64  6.3000000000000E-01 -3.0742280979180E-02  1.7031449714851E+00
    65  6.4000000000000E-01 -7.9539743770139E-02  1.7034139993123E+00
    66  6.5000000000000E-01 -1.2592705227264E-01  1.7002495625450E+00
    67  6.6000000000000E-01 -1.6978414862691E-01  1.6936013008781E+00
    68  6.7000000000000E-01 -2.1099365538180E-01  1.6833989352754E+00
    69  6.8000000000000E-01 -2.4944161683739E-01  1.6695545181848E+00
    70  6.9000000000000E-01 -2.8501854748309E-01  1.6519657515994E+00
    71  7.0000000000000E-01 -3.1762076792082E-01  1.6305203011388E+00
    72  7.1000000000000E-01 -3.4715199846662E-01  1.6051010032090E+00
    73  7.2000000000000E-01 -3.7352517106926E-01  1.5755918333474E+00
    74  7.3000000000000E-01 -3.9666441155139E-01  1.5418844779314E+00
    75  7.4000000000000E-01 -4.1650713672374E-01  1.5038853292555E+00
    76  7.5000000000000E-01 -4.3300620487666E-01  1.4615227062695E+00
    77  7.6000000000000E-01 -4.4613205371129E-01  1.4147540905614E+00
    78  7.7000000000000E-01 -4.5587475708934E-01  1.3635731599272E+00
    79  7.8000000000000E-01 -4.6224593116716E-01  1.3080164003872E+00
    80  7.9000000000000E-01 -4.6528042159734E-01  1.2481690819606E+00
    81  8.0000000000000E-01 -4.6503770654108E-01  1.1841703938841E+00
    82  8.1000000000000E-01 -4.6160295519548E-01  1.1162175511185E+00
    83  8.2000000000000E-01 -4.5508768831056E-01  1.0445687056203E+00
    84  8.3000000000000E-01 -4.4562999560750E-01  9.6954452249976E-01
    85  8.4000000000000E-01 -4.3339427492555E-01  8.9152831226347E-01
    86  8.5000000000000E-01 -4.1857046908759E-01  8.1096464511028E-01
    87  8.6000000000000E-01 -4.0137278861702E-01  7.2835641090141E-01
    88  8.7000000000000E-01 -3.8203792126281E-01  6.4426032802934E-01
    89  8.8000000000000E-01 -3.6082274247420E-01  5.5928094498836E-01
    90  8.9000000000000E-01 -3.3800155417723E-01  4.7406321897492E-01
    91  9.0000000000000E-01 -3.1386289209830E-01  3.8928379527826E-01
    92  9.1000000000000E-01 -2.8870595411891E-01  3.0564114853264E-01
    93  9.2000000000000E-01 -2.6283671339966E-01  2.2384478109729E-01
    94  9.3000000000000E-01 -2.3656378997664E-01  1.4460370398782E-01
    95  9.4000000000000E-01 -2.1019416292781E-01  6.8614451059021E-02
    96  9.5000000000000E-01 -1.8402881178851E-01 -3.4511031921876E-03
    97  9.6000000000000E-01 -1.5835838046387E-01 -7.0957838367171E-02
    98  9.7000000000000E-01 -1.3345895928802E-01 -1.3331910479928E-01
    99  9.8000000000000E-01 -1.0958808101862E-01 -1.9000777155047E-01
   100  9.9000000000000E-01 -8.6981024400069E-02 -2.4056632234619E-01
   101  1.0000000000000E+00 -6.5847513425392E-02 -2.8461573468349E-01
   102  1.0100000000000E+00 -4.6368872576045E-02 -3.2186298952246E-01
   103  1.0200000000000E+00 -2.8694922275952E-02 -3.5211035192868E-01
   104  1.0300000000000E+00 -1.2940636696066E-02 -3.7526616339275E-01
   105  1.0400000000000E+00  8.1551521864027E-04 -3.9134896151447E-01
   106  1.0500000000000E+00  1.2532259353396E-02 -4.0048827854645E-01
   107  1.0600000000000E+00  2.2205490696204E-02 -4.0292327438279E-01
   108  1.0700000000000E+00  2.9867526090669E-02 -3.9899919073043E-01
   109  1.0800000000000E+00  3.5585644917803E-02 -3.8916166050001E-01
   110  1.0900000000000E+00  3.9459943053435E-02 -3.7394895500752E-01
   111  1.1000000000000E+00  4.1620540993500E-02 -3.5398229901413E-01
   112  1.1100000000000E+00  4.2224201830976E-02 -3.2995442868395E-01
   113  1.1200000000000E+00  4.1450428394725E-02 -3.0261660898232E-01
   114  1.1300000000000E+00  3.9497121097730E-02 -2.7276436418761E-01
   115  1.1400000000000E+00  3.6575888447825E-02 -2.4122220670873E-01
   116  1.1500000000000E+00  3.2907110632175E-02 -2.0882767493524E-01
   117  1.1600000000000E+00  2.8714862746287E-02 -1.7641500933866E-01
   118  1.1700000000000E+00  2.4221807434734E-02 -1.4479880622520E-01
   119  1.1800000000000E+00  1.9644174561484E-02 -1.1475800478117E-01
   120  1.1900000000000E+00  1.5186991856091E-02 -8.7020632209949E-02
   121  1.2000000000000E+00  1.1041734709096E-02 -6.2253542518184E-02
   122  1.2100000000000E+00  7.3779540669009E-03 -4.1041878067793E-02
   123  1.2200000000000E+00  4.3396607345444E-03 -2.3877019440081E-02
   124  1.2300000000000E+00  2.0446270877592E-03 -1.1151844956801E-02
   125  1.2400000000000E+00  5.7741331574972E-04 -3.1286107278047E-03
   126  1.2500000000000E+00  1.6481676570486E-05 -8.8833155469970E-05
   127  1.2600000000000E+00  2.2482666901060E-06 -1.2123004033222E-05
   128  1.2700000000000E+00 -6.7317309785771E-07  3.6397268630536E-06
   129  1.28  0. -0.
   130  1.29  0.  0.
   131  1.30  0.  0.
   132  1.31  0.  0.
   133  1.32  0.  0.
   134  1.33  0.  0.
   135  1.34  0.  0.
   136  1.35  0.  0.
   137  1.36  0.  0.
   138  1.37  0.  0.
   139  1.38  0.  0.
   140  1.39  0.  0.
   141  1.40  0.  0.
   142  1.41  0.  0.
   143  1.42  0.  0.
   144  1.43  0.  0.
   145  1.44  0.  0.
   146  1.45  0.  0.
   147  1.46  0.  0.
   148  1.47  0.  0.
   149  1.48  0.  0.
   150  1.49  0.  0.
   151  1.50  0.  0.
   152  1.51  0.  0.
   153  1.52  0.  0.
   154  1.53  0.  0.
   155  1.54  0.  0.
   156  1.55  0.  0.
   157  1.56  0.  0.
   158  1.57  0.  0.
   159  1.58  0.  0.
   160  1.59  0.  0.
   161  1.60  0.  0.
   162  1.61  0.  0.
   163  1.62  0.  0.
   164  1.63  0.  0.
   165  1.64  0.  0.
   166  1.65  0.  0.
   167  1.66  0.  0.
   168  1.67  0.  0.
   169  1.68  0.  0.
   170  1.69  0.  0.
   171  1.70  0.  0.
   172  1.71  0.  0.
   173  1.72  0.  0.
   174  1.73  0.  0.
   175  1.74  0.  0.
   176  1.75  0.  0.
   177  1.76  0.  0.
   178  1.77  0.  0.
   179  1.78  0.  0.
   180  1.79  0.  0.
   181  1.80  0.  0.
   182  1.81  0.  0.
   183  1.82  0.  0.
   184  1.83  0.  0.
   185  1.84  0.  0.
   186  1.85  0.  0.
   187  1.86  0.  0.
   188  1.87  0.  0.
   189  1.88  0.  0.
   190  1.89  0.  0.
   191  1.90  0.  0.
   192  1.91  0.  0.
   193  1.92  0.  0.
   194  1.93  0.  0.
   195  1.94  0.  0.
   196  1.95  0.  0.
   197  1.96  0.  0.
   198  1.97  0.  0.
   199  1.98  0.  0.
   200  1.99  0.  0.
   201  2.00  0.  0.
   202  2.01  0.  0.
   203  2.02  0.  0.
   204  2.03  0.  0.
   205  2.04  0.  0.
   206  2.05  0.  0.
   207  2.06  0.  0.
   208  2.07  0.  0.
   209  2.08  0.  0.
   210  2.09  0.  0.
   211  2.10  0.  0.
   212  2.11  0.  0.
   213  2.12  0.  0.
   214  2.13  0.  0.
   215  2.14  0.  0.
   216  2.15  0.  0.
   217  2.16  0.  0.
   218  2.17  0.  0.
   219  2.18  0.  0.
   220  2.19  0.  0.
   221  2.20  0.  0.
   222  2.21  0.  0.
   223  2.22  0.  0.
   224  2.23  0.  0.
   225  2.24  0.  0.
   226  2.25  0.  0.
   227  2.26  0.  0.
   228  2.27  0.  0.
   229  2.28  0.  0.
   230  2.29  0.  0.
   231  2.30  0.  0.
   232  2.31  0.  0.
   233  2.32  0.  0.
   234  2.33  0.  0.
   235  2.34  0.  0.
   236  2.35  0.  0.
   237  2.36  0.  0.
   238  2.37  0.  0.
   239  2.38  0.  0.
   240  2.39  0.  0.
   241  2.40  0.  0.
   242  2.41  0.  0.
   243  2.42  0.  0.
   244  2.43  0.  0.
   245  2.44  0.  0.
   246  2.45  0.  0.
   247  2.46  0.  0.
   248  2.47  0.  0.
   249  2.48  0.  0.
   250  2.49  0.  0.
   251  2.50  0.  0.
   252  2.51  0.  0.
   253  2.52  0.  0.
   254  2.53  0.  0.
   255  2.54  0.  0.
   256  2.55  0.  0.
   257  2.56  0.  0.
   258  2.57  0.  0.
   259  2.58  0.  0.
   260  2.59  0.  0.
   261  2.60  0.  0.
   262  2.61  0.  0.
   263  2.62  0.  0.
   264  2.63  0.  0.
   265  2.64  0.  0.
   266  2.65  0.  0.
   267  2.66  0.  0.
   268  2.67  0.  0.
   269  2.68  0.  0.
   270  2.69  0.  0.
   271  2.70  0.  0.
   272  2.71  0.  0.
   273  2.72  0.  0.
   274  2.73  0.  0.
   275  2.74  0.  0.
   276  2.75  0.  0.
   277  2.76  0.  0.
   278  2.77  0.  0.
   279  2.78  0.  0.
   280  2.79  0.  0.
   281  2.80  0.  0.
   282  2.81  0.  0.
   283  2.82  0.  0.
   284  2.83  0.  0.
   285  2.84  0.  0.
   286  2.85  0.  0.
   287  2.86  0.  0.
   288  2.87  0.  0.
   289  2.88  0.  0.
   290  2.89  0.  0.
   291  2.90  0.  0.
   292  2.91  0.  0.
   293  2.92  0.  0.
   294  2.93  0.  0.
   295  2.94  0.  0.
   296  2.95  0.  0.
   297  2.96  0.  0.
   298  2.97  0.  0.
   299  2.98  0.  0.
   300  2.99  0.  0.
   301  3.00  0.  0.
   302  3.01  0.  0.
   303  3.02  0.  0.
   304  3.03  0.  0.
   305  3.04  0.  0.
   306  3.05  0.  0.
   307  3.06  0.  0.
   308  3.07  0.  0.
   309  3.08  0.  0.
   310  3.09  0.  0.
   311  3.10  0.  0.
   312  3.11  0.  0.
   313  3.12  0.  0.
   314  3.13  0.  0.
   315  3.14  0.  0.
   316  3.15  0.  0.
   317  3.16  0.  0.
   318  3.17  0.  0.
   319  3.18  0.  0.
   320  3.19  0.  0.
   321  3.20  0.  0.
   322  3.21  0.  0.
   323  3.22  0.  0.
   324  3.23  0.  0.
   325  3.24  0.  0.
   326  3.25  0.  0.
   327  3.26  0.  0.
   328  3.27  0.  0.
   329  3.28  0.  0.
   330  3.29  0.  0.
   331  3.30  0.  0.
   332  3.31  0.  0.
   333  3.32  0.  0.
   334  3.33  0.  0.
   335  3.34  0.  0.
   336  3.35  0.  0.
   337  3.36  0.  0.
   338  3.37  0.  0.
   339  3.38  0.  0.
   340  3.39  0.  0.
   341  3.40  0.  0.
   342  3.41  0.  0.
   343  3.42  0.  0.
   344  3.43  0.  0.
   345  3.44  0.  0.
   346  3.45  0.  0.
   347  3.46  0.  0.
   348  3.47  0.  0.
   349  3.48  0.  0.
   350  3.49  0.  0.
   351  3.50  0.  0.
   352  3.51  0.  0.
   353  3.52  0.  0.
   354  3.53  0.  0.
   355  3.54  0.  0.
   356  3.55  0.  0.
   357  3.56  0.  0.
   358  3.57  0.  0.
   359  3.58  0.  0.
   360  3.59  0.  0.
   361  3.60  0.  0.
   362  3.61  0.  0.
   363  3.62  0.  0.
   364  3.63  0.  0.
   365  3.64  0.  0.
   366  3.65  0.  0.
   367  3.66  0.  0.
   368  3.67  0.  0.
   369  3.68  0.  0.
   370  3.69  0.  0.
   371  3.70  0.  0.
   372  3.71  0.  0.
   373  3.72  0.  0.
   374  3.73  0.  0.
   375  3.74  0.  0.
   376  3.75  0.  0.
   377  3.76  0.  0.
   378  3.77  0.  0.
   379  3.78  0.  0.
   380  3.79  0.  0.
   381  3.80  0.  0.
   382  3.81  0.  0.
   383  3.82  0.  0.
   384  3.83  0.  0.
   385  3.84  0.  0.
   386  3.85  0.  0.
   387  3.86  0.  0.
   388  3.87  0.  0.
   389  3.88  0.  0.
   390  3.89  0.  0.
   391  3.90  0.  0.
   392  3.91  0.  0.
   393  3.92  0.  0.
   394  3.93  0.  0.
   395  3.94  0.  0.
   396  3.95  0.  0.
   397  3.96  0.  0.
   398  3.97  0.  0.
   399  3.98  0.  0.
   400  3.99  0.  0.
   401  4.00  0.  0.
   402  4.01  0.  0.
   403  4.02  0.  0.
   404  4.03  0.  0.
   405  4.04  0.  0.
   406  4.05  0.  0.
   407  4.06  0.  0.
   408  4.07  0.  0.
   409  4.08  0.  0.
   410  4.09  0.  0.
   411  4.10  0.  0.
   412  4.11  0.  0.
   413  4.12  0.  0.
   414  4.13  0.  0.
   415  4.14  0.  0.
   416  4.15  0.  0.
   417  4.16  0.  0.
   418  4.17  0.  0.
   419  4.18  0.  0.
   420  4.19  0.  0.
   421  4.20  0.  0.
   422  4.21  0.  0.
   423  4.22  0.  0.
   424  4.23  0.  0.
   425  4.24  0.  0.
   426  4.25  0.  0.
   427  4.26  0.  0.
   428  4.27  0.  0.
   429  4.28  0.  0.
   430  4.29  0.  0.
   431  4.30  0.  0.
   432  4.31  0.  0.
   433  4.32  0.  0.
   434  4.33  0.  0.
   435  4.34  0.  0.
   436  4.35  0.  0.
   437  4.36  0.  0.
   438  4.37  0.  0.
   439  4.38  0.  0.
   440  4.39  0.  0.
   441  4.40  0.  0.
   442  4.41  0.  0.
   443  4.42  0.  0.
   444  4.43  0.  0.
   445  4.44  0.  0.
   446  4.45  0.  0.
   447  4.46  0.  0.
   448  4.47  0.  0.
   449  4.48  0.  0.
   450  4.49  0.  0.
   451  4.50  0.  0.
   452  4.51  0.  0.
   453  4.52  0.  0.
   454  4.53  0.  0.
   455  4.54  0.  0.
   456  4.55  0.  0.
   457  4.56  0.  0.
   458  4.57  0.  0.
   459  4.58  0.  0.
   460  4.59  0.  0.
   461  4.60  0.  0.
   462  4.61  0.  0.
   463  4.62  0.  0.
   464  4.63  0.  0.
   465  4.64  0.  0.
   466  4.65  0.  0.
   467  4.66  0.  0.
   468  4.67  0.  0.
   469  4.68  0.  0.
   470  4.69  0.  0.
   471  4.70  0.  0.
   472  4.71  0.  0.
   473  4.72  0.  0.
   474  4.73  0.  0.
   475  4.74  0.  0.
   476  4.75  0.  0.
   477  4.76  0.  0.
   478  4.77  0.  0.
   479  4.78  0.  0.
   480  4.79  0.  0.
   481  4.80  0.  0.
   482  4.81  0.  0.
   483  4.82  0.  0.
   484  4.83  0.  0.
   485  4.84  0.  0.
   486  4.85  0.  0.
   487  4.86  0.  0.
   488  4.87  0.  0.
   489  4.88  0.  0.
   490  4.89  0.  0.
   491  4.90  0.  0.
   492  4.91  0.  0.
   493  4.92  0.  0.
   494  4.93  0.  0.
   495  4.94  0.  0.
   496  4.95  0.  0.
   497  4.96  0.  0.
   498  4.97  0.  0.
   499  4.98  0.  0.
   500  4.99  0.  0.
   501  5.00  0.  0.
   502  5.01  0.  0.
   503  5.02  0.  0.
   504  5.03  0.  0.
   505  5.04  0.  0.
   506  5.05  0.  0.
   507  5.06  0.  0.
   508  5.07  0.  0.
   509  5.08  0.  0.
   510  5.09  0.  0.
   511  5.10  0.  0.
   512  5.11  0.  0.
   513  5.12  0.  0.
   514  5.13  0.  0.
   515  5.14  0.  0.
   516  5.15  0.  0.
   517  5.16  0.  0.
   518  5.17  0.  0.
   519  5.18  0.  0.
   520  5.19  0.  0.
   521  5.20  0.  0.
   522  5.21  0.  0.
   523  5.22  0.  0.
   524  5.23  0.  0.
   525  5.24  0.  0.
   526  5.25  0.  0.
   527  5.26  0.  0.
   528  5.27  0.  0.
   529  5.28  0.  0.
   530  5.29  0.  0.
   531  5.30  0.  0.
   532  5.31  0.  0.
   533  5.32  0.  0.
   534  5.33  0.  0.
   535  5.34  0.  0.
   536  5.35  0.  0.
   537  5.36  0.  0.
   538  5.37  0.  0.
   539  5.38  0.  0.
   540  5.39  0.  0.
   541  5.40  0.  0.
   542  5.41  0.  0.
   543  5.42  0.  0.
   544  5.43  0.  0.
   545  5.44  0.  0.
   546  5.45  0.  0.
   547  5.46  0.  0.
   548  5.47  0.  0.
   549  5.48  0.  0.
   550  5.49  0.  0.
   551  5.50  0.  0.
   552  5.51  0.  0.
   553  5.52  0.  0.
   554  5.53  0.  0.
   555  5.54  0.  0.
   556  5.55  0.  0.
   557  5.56  0.  0.
   558  5.57  0.  0.
   559  5.58  0.  0.
   560  5.59  0.  0.
   561  5.60  0.  0.
   562  5.61  0.  0.
   563  5.62  0.  0.
   564  5.63  0.  0.
   565  5.64  0.  0.
   566  5.65  0.  0.
   567  5.66  0.  0.
   568  5.67  0.  0.
   569  5.68  0.  0.
   570  5.69  0.  0.
   571  5.70  0.  0.
   572  5.71  0.  0.
   573  5.72  0.  0.
   574  5.73  0.  0.
   575  5.74  0.  0.
   576  5.75  0.  0.
   577  5.76  0.  0.
   578  5.77  0.  0.
   579  5.78  0.  0.
   580  5.79  0.  0.
   581  5.80  0.  0.
   582  5.81  0.  0.
   583  5.82  0.  0.
   584  5.83  0.  0.
   585  5.84  0.  0.
   586  5.85  0.  0.
   587  5.86  0.  0.
   588  5.87  0.  0.
   589  5.88  0.  0.
   590  5.89  0.  0.
   591  5.90  0.  0.
   592  5.91  0.  0.
   593  5.92  0.  0.
   594  5.93  0.  0.
   595  5.94  0.  0.
   596  5.95  0.  0.
   597  5.96  0.  0.
   598  5.97  0.  0.
   599  5.98  0.  0.
   600  5.99  0.  0.
   1                        -6.9660276803027E-01
     1  0.0000000000000E+00 -5.4081907285841E-09
     2  1.0000000000000E-02 -2.4438403012906E-03
     3  2.0000000000000E-02 -9.7577987263851E-03
     4  3.0000000000000E-02 -2.1889384492370E-02
     5  4.0000000000000E-02 -3.8751765308654E-02
     6  5.0000000000000E-02 -6.0224734884377E-02
     7  6.0000000000000E-02 -8.6156045621420E-02
     8  7.0000000000000E-02 -1.1636308516337E-01
     9  8.0000000000000E-02 -1.5063487006266E-01
    10  9.0000000000000E-02 -1.8873432491626E-01
    11  1.0000000000000E-01 -2.3040081099564E-01
    12  1.1000000000000E-01 -2.7535286473783E-01
    13  1.2000000000000E-01 -3.2329110353819E-01
    14  1.3000000000000E-01 -3.7390125414448E-01
    15  1.4000000000000E-01 -4.2685725763246E-01
    16  1.5000000000000E-01 -4.8182440446779E-01
    17  1.6000000000000E-01 -5.3846245353254E-01
    18  1.7000000000000E-01 -5.9642869020547E-01
    19  1.8000000000000E-01 -6.5538088060678E-01
    20  1.9000000000000E-01 -7.1498008190723E-01
    21  2.0000000000000E-01 -7.7489327210067E-01
    22  2.1000000000000E-01 -8.3479576677688E-01
    23  2.2000000000000E-01 -8.9437339512436E-01
    24  2.3000000000000E-01 -9.5332441254699E-01
    25  2.4000000000000E-01 -1.0113611327894E+00
    26  2.5000000000000E-01 -1.0682112682260E+00
    27  2.6000000000000E-01 -1.1236189728593E+00
    28  2.7000000000000E-01 -1.1773455884842E+00
    29  2.8000000000000E-01 -1.2291701002782E+00
    30  2.9000000000000E-01 -1.2788893136694E+00
    31  3.0000000000000E-01 -1.3263177695969E+00
    32  3.1000000000000E-01 -1.3712874201057E+00
    33  3.2000000000000E-01 -1.4136470905230E+00
    34  3.3000000000000E-01 -1.4532617581507E+00
    35  3.4000000000000E-01 -1.4900116804126E+00
    36  3.5000000000000E-01 -1.5237914076510E+00
    37  3.6000000000000E-01 -1.5545087172390E+00
    38  3.7000000000000E-01 -1.5820835063186E+00
    39  3.8000000000000E-01 -1.6064466803010E+00
    40  3.9000000000000E-01 -1.6275390732515E+00
    41  4.0000000000000E-01 -1.6453104344787E+00
    42  4.1000000000000E-01 -1.6597185130616E+00
    43  4.2000000000000E-01 -1.6707282687675E+00
    44  4.3000000000000E-01 -1.6783112338703E+00
    45  4.4000000000000E-01 -1.6824450458888E+00
    46  4.5000000000000E-01 -1.6831131662931E+00
    47  4.6000000000000E-01 -1.6803047948995E+00
    48  4.7000000000000E-01 -1.6740149840869E+00
    49  4.8000000000000E-01 -1.6642449512516E+00
    50  4.9000000000000E-01 -1.6510025821810E+00
    51  5.0000000000000E-01 -1.6343031124066E+00
    52  5.1000000000000E-01 -1.6141699682020E+00
    53  5.2000000000000E-01 -1.5906357438520E+00
    54  5.3000000000000E-01 -1.5637432872349E+00
    55  5.4000000000000E-01 -1.5335468617497E+00
    56  5.5000000000000E-01 -1.5001133492597E+00
    57  5.6000000000000E-01 -1.4635234561143E+00
    58  5.7000000000000E-01 -1.4238728825015E+00
    59  5.8000000000000E-01 -1.3812734144378E+00
    60  5.9000000000000E-01 -1.3358538976519E+00
    61  6.0000000000000E-01 -1.2877610534790E+00
    62  6.1000000000000E-01 -1.2371600986548E+00
    63  6.2000000000000E-01 -1.1842351335656E+00
    64  6.3000000000000E-01 -1.1291892670326E+00
    65  6.4000000000000E-01 -1.0722444500329E+00
    66  6.5000000000000E-01 -1.0136409958123E+00
    67  6.6000000000000E-01 -9.5363676954439E-01
    68  6.7000000000000E-01 -8.9250603693147E-01
    69  6.8000000000000E-01 -8.3053796780991E-01
    70  6.9000000000000E-01 -7.6803479780362E-01
    71  7.0000000000000E-01 -7.0530965821895E-01
    72  7.1000000000000E-01 -6.4268409156674E-01
    73  7.2000000000000E-01 -5.8048527718830E-01
    74  7.3000000000000E-01 -5.1904299831249E-01
    75  7.4000000000000E-01 -4.5868638834443E-01
    76  7.5000000000000E-01 -3.9974050015017E-01
    77  7.6000000000000E-01 -3.4252274743016E-01
    78  7.7000000000000E-01 -2.8733927185550E-01
    79  7.8000000000000E-01 -2.3448129337012E-01
    80  7.9000000000000E-01 -1.8422150385340E-01
    81  8.0000000000000E-01 -1.3681056611972E-01
    82  8.1000000000000E-01 -9.2473780950344E-02
    83  8.2000000000000E-01 -5.1407984474518E-02
    84  8.3000000000000E-01 -1.3778736727656E-02
    85  8.4000000000000E-01  2.0282140381148E-02
    86  8.5000000000000E-01  5.0678621133315E-02
    87  8.6000000000000E-01  7.7352080243626E-02
    88  8.7000000000000E-01  1.0028239909966E-01
    89  8.8000000000000E-01  1.1948853636706E-01
    90  8.9000000000000E-01  1.3502853265958E-01
    91  9.0000000000000E-01  1.4699892696301E-01
    92  9.1000000000000E-01  1.5553357102137E-01
    93  9.2000000000000E-01  1.6080183680076E-01
    94  9.3000000000000E-01  1.6300622128888E-01
    95  9.4000000000000E-01  1.6237936211151E-01
    96  9.5000000000000E-01  1.5918048658925E-01
    97  9.6000000000000E-01  1.5369132576020E-01
    98  9.7000000000000E-01  1.4621153339917E-01
    99  9.8000000000000E-01  1.3705365801857E-01
   100  9.9000000000000E-01  1.2653772301087E-01
   101  1.0000000000000E+00  1.1498548199904E-01
   102  1.0100000000000E+00  1.0271453314423E-01
   103  1.0200000000000E+00  9.0036445976368E-02
   104  1.0300000000000E+00  7.7258804525760E-02
   105  1.0400000000000E+00  6.4681458963519E-02
   106  1.0500000000000E+00  5.2591351752713E-02
   107  1.0600000000000E+00  4.1257501395430E-02
   108  1.0700000000000E+00  3.0926117676808E-02
   109  1.0800000000000E+00  2.1822711677687E-02
   110  1.0900000000000E+00  1.4151305569896E-02
   111  1.1000000000000E+00  8.0500969749083E-03
   112  1.1100000000000E+00  3.6211118997651E-03
   113  1.1200000000000E+00  9.2402693327499E-04
   114  1.1300000000000E+00  5.0462757812021E-06
   115  1.1400000000000E+00  5.9444753756922E-06
   116  1.1500000000000E+00 -3.3015875098694E-07
   117  1.16  0.
   118  1.17  0.
   119  1.18  0.
   120  1.19  0.
   121  1.20  0.
   122  1.21  0.
   123  1.22  0.
   124  1.23  0.
   125  1.24  0.
   126  1.25  0.
   127  1.26  0.
   128  1.27  0.
   129  1.28  0.
   130  1.29  0.
   131  1.30  0.
   132  1.31  0.
   133  1.32  0.
   134  1.33  0.
   135  1.34  0.
   136  1.35  0.
   137  1.36  0.
   138  1.37  0.
   139  1.38  0.
   140  1.39  0.
   141  1.40  0.
   142  1.41  0.
   143  1.42  0.
   144  1.43  0.
   145  1.44  0.
   146  1.45  0.
   147  1.46  0.
   148  1.47  0.
   149  1.48  0.
   150  1.49  0.
   151  1.50  0.
   152  1.51  0.
   153  1.52  0.
   154  1.53  0.
   155  1.54  0.
   156  1.55  0.
   157  1.56  0.
   158  1.57  0.
   159  1.58  0.
   160  1.59  0.
   161  1.60  0.
   162  1.61  0.
   163  1.62  0.
   164  1.63  0.
   165  1.64  0.
   166  1.65  0.
   167  1.66  0.
   168  1.67  0.
   169  1.68  0.
   170  1.69  0.
   171  1.70  0.
   172  1.71  0.
   173  1.72  0.
   174  1.73  0.
   175  1.74  0.
   176  1.75  0.
   177  1.76  0.
   178  1.77  0.
   179  1.78  0.
   180  1.79  0.
   181  1.80  0.
   182  1.81  0.
   183  1.82  0.
   184  1.83  0.
   185  1.84  0.
   186  1.85  0.
   187  1.86  0.
   188  1.87  0.
   189  1.88  0.
   190  1.89  0.
   191  1.90  0.
   192  1.91  0.
   193  1.92  0.
   194  1.93  0.
   195  1.94  0.
   196  1.95  0.
   197  1.96  0.
   198  1.97  0.
   199  1.98  0.
   200  1.99  0.
   201  2.00  0.
   202  2.01  0.
   203  2.02  0.
   204  2.03  0.
   205  2.04  0.
   206  2.05  0.
   207  2.06  0.
   208  2.07  0.
   209  2.08  0.
   210  2.09  0.
   211  2.10  0.
   212  2.11  0.
   213  2.12  0.
   214  2.13  0.
   215  2.14  0.
   216  2.15  0.
   217  2.16  0.
   218  2.17  0.
   219  2.18  0.
   220  2.19  0.
   221  2.20  0.
   222  2.21  0.
   223  2.22  0.
   224  2.23  0.
   225  2.24  0.
   226  2.25  0.
   227  2.26  0.
   228  2.27  0.
   229  2.28  0.
   230  2.29  0.
   231  2.30  0.
   232  2.31  0.
   233  2.32  0.
   234  2.33  0.
   235  2.34  0.
   236  2.35  0.
   237  2.36  0.
   238  2.37  0.
   239  2.38  0.
   240  2.39  0.
   241  2.40  0.
   242  2.41  0.
   243  2.42  0.
   244  2.43  0.
   245  2.44  0.
   246  2.45  0.
   247  2.46  0.
   248  2.47  0.
   249  2.48  0.
   250  2.49  0.
   251  2.50  0.
   252  2.51  0.
   253  2.52  0.
   254  2.53  0.
   255  2.54  0.
   256  2.55  0.
   257  2.56  0.
   258  2.57  0.
   259  2.58  0.
   260  2.59  0.
   261  2.60  0.
   262  2.61  0.
   263  2.62  0.
   264  2.63  0.
   265  2.64  0.
   266  2.65  0.
   267  2.66  0.
   268  2.67  0.
   269  2.68  0.
   270  2.69  0.
   271  2.70  0.
   272  2.71  0.
   273  2.72  0.
   274  2.73  0.
   275  2.74  0.
   276  2.75  0.
   277  2.76  0.
   278  2.77  0.
   279  2.78  0.
   280  2.79  0.
   281  2.80  0.
   282  2.81  0.
   283  2.82  0.
   284  2.83  0.
   285  2.84  0.
   286  2.85  0.
   287  2.86  0.
   288  2.87  0.
   289  2.88  0.
   290  2.89  0.
   291  2.90  0.
   292  2.91  0.
   293  2.92  0.
   294  2.93  0.
   295  2.94  0.
   296  2.95  0.
   297  2.96  0.
   298  2.97  0.
   299  2.98  0.
   300  2.99  0.
   301  3.00  0.
   302  3.01  0.
   303  3.02  0.
   304  3.03  0.
   305  3.04  0.
   306  3.05  0.
   307  3.06  0.
   308  3.07  0.
   309  3.08  0.
   310  3.09  0.
   311  3.10  0.
   312  3.11  0.
   313  3.12  0.
   314  3.13  0.
   315  3.14  0.
   316  3.15  0.
   317  3.16  0.
   318  3.17  0.
   319  3.18  0.
   320  3.19  0.
   321  3.20  0.
   322  3.21  0.
   323  3.22  0.
   324  3.23  0.
   325  3.24  0.
   326  3.25  0.
   327  3.26  0.
   328  3.27  0.
   329  3.28  0.
   330  3.29  0.
   331  3.30  0.
   332  3.31  0.
   333  3.32  0.
   334  3.33  0.
   335  3.34  0.
   336  3.35  0.
   337  3.36  0.
   338  3.37  0.
   339  3.38  0.
   340  3.39  0.
   341  3.40  0.
   342  3.41  0.
   343  3.42  0.
   344  3.43  0.
   345  3.44  0.
   346  3.45  0.
   347  3.46  0.
   348  3.47  0.
   349  3.48  0.
   350  3.49  0.
   351  3.50  0.
   352  3.51  0.
   353  3.52  0.
   354  3.53  0.
   355  3.54  0.
   356  3.55  0.
   357  3.56  0.
   358  3.57  0.
   359  3.58  0.
   360  3.59  0.
   361  3.60  0.
   362  3.61  0.
   363  3.62  0.
   364  3.63  0.
   365  3.64  0.
   366  3.65  0.
   367  3.66  0.
   368  3.67  0.
   369  3.68  0.
   370  3.69  0.
   371  3.70  0.
   372  3.71  0.
   373  3.72  0.
   374  3.73  0.
   375  3.74  0.
   376  3.75  0.
   377  3.76  0.
   378  3.77  0.
   379  3.78  0.
   380  3.79  0.
   381  3.80  0.
   382  3.81  0.
   383  3.82  0.
   384  3.83  0.
   385  3.84  0.
   386  3.85  0.
   387  3.86  0.
   388  3.87  0.
   389  3.88  0.
   390  3.89  0.
   391  3.90  0.
   392  3.91  0.
   393  3.92  0.
   394  3.93  0.
   395  3.94  0.
   396  3.95  0.
   397  3.96  0.
   398  3.97  0.
   399  3.98  0.
   400  3.99  0.
   401  4.00  0.
   402  4.01  0.
   403  4.02  0.
   404  4.03  0.
   405  4.04  0.
   406  4.05  0.
   407  4.06  0.
   408  4.07  0.
   409  4.08  0.
   410  4.09  0.