<UPF version="2.0.1">
  <PP_INFO>

 This pseudopotential file has been produced using the code
 ONCVPSP  (Optimized Norm-Conservinng Vanderbilt PSeudopotential)
 scalar-relativistic version 4.0.1 06/04/2019 by D. R. Hamann
 The code is available through a link at URL www.mat-simresearch.com.
 Documentation with the package provides a full discription of the
 input data below.


 While it is not required under the terms of the GNU GPL, it is
 suggested that you cite D. R. Hamann, Phys. Rev. B 88, 085117 (2013)
 in any publication using these pseudopotentials.

    <PP_INPUTFILE>
# ATOM AND REFERENCE CONFIGURATION
# atsym  z   nc   nv     iexc    psfile
  He  2.00    0    1       3      both
#
#   n    l    f        energy (Ha)
    1    0    2.00
#
# PSEUDOPOTENTIAL AND OPTIMIZATION
# lmax
    1
#
#   l,   rc,      ep,       ncon, nbas, qcut
    0   1.25000   0.00000    4    8   9.40000
    1   1.13000   0.05000    4    7   9.40000
#
# LOCAL POTENTIAL
# lloc, lpopt,  rc(5),   dvloc0
    4    5   1.00000      0.00000
#
# VANDERBILT-KLEINMAN-BYLANDER PROJECTORs
# l, nproj, debl
    0    2   1.00000
    1    1   1.00000
#
# MODEL CORE CHARGE
# icmod, fcfact, rcfact
    0   0.00000   0.00000
#
# LOG DERIVATIVE ANALYSIS
# epsh1, epsh2, depsh
  -12.00   12.00    0.02
#
# OUTPUT GRID
# rlmax, drl
    6.00    0.01
#
# TEST CONFIGURATIONS
# ncnf
    0
# nvcnf
#   n    l    f
    </PP_INPUTFILE>
  </PP_INFO>
  <!--                               -->
  <!-- END OF HUMAN READABLE SECTION -->
  <!--                               -->
    <PP_HEADER
       generated="Generated using ONCVPSP code by D. R. Hamann"
       author="anonymous"
       date="231019"
       comment=""
       element="He"
       pseudo_type="NC"
       relativistic="scalar"
       is_ultrasoft="F"
       is_paw="F"
       is_coulomb="F"
       has_so="F"
       has_wfc="F"
       has_gipaw="F"
       core_correction="F"
       functional="PZ"
       z_valence="    2.00"
       total_psenergy="  -5.60997423047E+00"
       rho_cutoff="   7.31000000000E+00"
       l_max="1"
       l_local="-1"
       mesh_size="   732"
       number_of_wfc="1"
       number_of_proj="3"/>
 <PP_MESH>
   <PP_R type="real"  size=" 732" columns="8">
    0.0000    0.0100    0.0200    0.0300    0.0400    0.0500    0.0600    0.0700
    0.0800    0.0900    0.1000    0.1100    0.1200    0.1300    0.1400    0.1500
    0.1600    0.1700    0.1800    0.1900    0.2000    0.2100    0.2200    0.2300
    0.2400    0.2500    0.2600    0.2700    0.2800    0.2900    0.3000    0.3100
    0.3200    0.3300    0.3400    0.3500    0.3600    0.3700    0.3800    0.3900
    0.4000    0.4100    0.4200    0.4300    0.4400    0.4500    0.4600    0.4700
    0.4800    0.4900    0.5000    0.5100    0.5200    0.5300    0.5400    0.5500
    0.5600    0.5700    0.5800    0.5900    0.6000    0.6100    0.6200    0.6300
    0.6400    0.6500    0.6600    0.6700    0.6800    0.6900    0.7000    0.7100
    0.7200    0.7300    0.7400    0.7500    0.7600    0.7700    0.7800    0.7900
    0.8000    0.8100    0.8200    0.8300    0.8400    0.8500    0.8600    0.8700
    0.8800    0.8900    0.9000    0.9100    0.9200    0.9300    0.9400    0.9500
    0.9600    0.9700    0.9800    0.9900    1.0000    1.0100    1.0200    1.0300
    1.0400    1.0500    1.0600    1.0700    1.0800    1.0900    1.1000    1.1100
    1.1200    1.1300    1.1400    1.1500    1.1600    1.1700    1.1800    1.1900
    1.2000    1.2100    1.2200    1.2300    1.2400    1.2500    1.2600    1.2700
    1.2800    1.2900    1.3000    1.3100    1.3200    1.3300    1.3400    1.3500
    1.3600    1.3700    1.3800    1.3900    1.4000    1.4100    1.4200    1.4300
    1.4400    1.4500    1.4600    1.4700    1.4800    1.4900    1.5000    1.5100
    1.5200    1.5300    1.5400    1.5500    1.5600    1.5700    1.5800    1.5900
    1.6000    1.6100    1.6200    1.6300    1.6400    1.6500    1.6600    1.6700
    1.6800    1.6900    1.7000    1.7100    1.7200    1.7300    1.7400    1.7500
    1.7600    1.7700    1.7800    1.7900    1.8000    1.8100    1.8200    1.8300
    1.8400    1.8500    1.8600    1.8700    1.8800    1.8900    1.9000    1.9100
    1.9200    1.9300    1.9400    1.9500    1.9600    1.9700    1.9800    1.9900
    2.0000    2.0100    2.0200    2.0300    2.0400    2.0500    2.0600    2.0700
    2.0800    2.0900    2.1000    2.1100    2.1200    2.1300    2.1400    2.1500
    2.1600    2.1700    2.1800    2.1900    2.2000    2.2100    2.2200    2.2300
    2.2400    2.2500    2.2600    2.2700    2.2800    2.2900    2.3000    2.3100
    2.3200    2.3300    2.3400    2.3500    2.3600    2.3700    2.3800    2.3900
    2.4000    2.4100    2.4200    2.4300    2.4400    2.4500    2.4600    2.4700
    2.4800    2.4900    2.5000    2.5100    2.5200    2.5300    2.5400    2.5500
    2.5600    2.5700    2.5800    2.5900    2.6000    2.6100    2.6200    2.6300
    2.6400    2.6500    2.6600    2.6700    2.6800    2.6900    2.7000    2.7100
    2.7200    2.7300    2.7400    2.7500    2.7600    2.7700    2.7800    2.7900
    2.8000    2.8100    2.8200    2.8300    2.8400    2.8500    2.8600    2.8700
    2.8800    2.8900    2.9000    2.9100    2.9200    2.9300    2.9400    2.9500
    2.9600    2.9700    2.9800    2.9900    3.0000    3.0100    3.0200    3.0300
    3.0400    3.0500    3.0600    3.0700    3.0800    3.0900    3.1000    3.1100
    3.1200    3.1300    3.1400    3.1500    3.1600    3.1700    3.1800    3.1900
    3.2000    3.2100    3.2200    3.2300    3.2400    3.2500    3.2600    3.2700
    3.2800    3.2900    3.3000    3.3100    3.3200    3.3300    3.3400    3.3500
    3.3600    3.3700    3.3800    3.3900    3.4000    3.4100    3.4200    3.4300
    3.4400    3.4500    3.4600    3.4700    3.4800    3.4900    3.5000    3.5100
    3.5200    3.5300    3.5400    3.5500    3.5600    3.5700    3.5800    3.5900
    3.6000    3.6100    3.6200    3.6300    3.6400    3.6500    3.6600    3.6700
    3.6800    3.6900    3.7000    3.7100    3.7200    3.7300    3.7400    3.7500
    3.7600    3.7700    3.7800    3.7900    3.8000    3.8100    3.8200    3.8300
    3.8400    3.8500    3.8600    3.8700    3.8800    3.8900    3.9000    3.9100
    3.9200    3.9300    3.9400    3.9500    3.9600    3.9700    3.9800    3.9900
    4.0000    4.0100    4.0200    4.0300    4.0400    4.0500    4.0600    4.0700
    4.0800    4.0900    4.1000    4.1100    4.1200    4.1300    4.1400    4.1500
    4.1600    4.1700    4.1800    4.1900    4.2000    4.2100    4.2200    4.2300
    4.2400    4.2500    4.2600    4.2700    4.2800    4.2900    4.3000    4.3100
    4.3200    4.3300    4.3400    4.3500    4.3600    4.3700    4.3800    4.3900
    4.4000    4.4100    4.4200    4.4300    4.4400    4.4500    4.4600    4.4700
    4.4800    4.4900    4.5000    4.5100    4.5200    4.5300    4.5400    4.5500
    4.5600    4.5700    4.5800    4.5900    4.6000    4.6100    4.6200    4.6300
    4.6400    4.6500    4.6600    4.6700    4.6800    4.6900    4.7000    4.7100
    4.7200    4.7300    4.7400    4.7500    4.7600    4.7700    4.7800    4.7900
    4.8000    4.8100    4.8200    4.8300    4.8400    4.8500    4.8600    4.8700
    4.8800    4.8900    4.9000    4.9100    4.9200    4.9300    4.9400    4.9500
    4.9600    4.9700    4.9800    4.9900    5.0000    5.0100    5.0200    5.0300
    5.0400    5.0500    5.0600    5.0700    5.0800    5.0900    5.1000    5.1100
    5.1200    5.1300    5.1400    5.1500    5.1600    5.1700    5.1800    5.1900
    5.2000    5.2100    5.2200    5.2300    5.2400    5.2500    5.2600    5.2700
    5.2800    5.2900    5.3000    5.3100    5.3200    5.3300    5.3400    5.3500
    5.3600    5.3700    5.3800    5.3900    5.4000    5.4100    5.4200    5.4300
    5.4400    5.4500    5.4600    5.4700    5.4800    5.4900    5.5000    5.5100
    5.5200    5.5300    5.5400    5.5500    5.5600    5.5700    5.5800    5.5900
    5.6000    5.6100    5.6200    5.6300    5.6400    5.6500    5.6600    5.6700
    5.6800    5.6900    5.7000    5.7100    5.7200    5.7300    5.7400    5.7500
    5.7600    5.7700    5.7800    5.7900    5.8000    5.8100    5.8200    5.8300
    5.8400    5.8500    5.8600    5.8700    5.8800    5.8900    5.9000    5.9100
    5.9200    5.9300    5.9400    5.9500    5.9600    5.9700    5.9800    5.9900
    6.0000    6.0100    6.0200    6.0300    6.0400    6.0500    6.0600    6.0700
    6.0800    6.0900    6.1000    6.1100    6.1200    6.1300    6.1400    6.1500
    6.1600    6.1700    6.1800    6.1900    6.2000    6.2100    6.2200    6.2300
    6.2400    6.2500    6.2600    6.2700    6.2800    6.2900    6.3000    6.3100
    6.3200    6.3300    6.3400    6.3500    6.3600    6.3700    6.3800    6.3900
    6.4000    6.4100    6.4200    6.4300    6.4400    6.4500    6.4600    6.4700
    6.4800    6.4900    6.5000    6.5100    6.5200    6.5300    6.5400    6.5500
    6.5600    6.5700    6.5800    6.5900    6.6000    6.6100    6.6200    6.6300
    6.6400    6.6500    6.6600    6.6700    6.6800    6.6900    6.7000    6.7100
    6.7200    6.7300    6.7400    6.7500    6.7600    6.7700    6.7800    6.7900
    6.8000    6.8100    6.8200    6.8300    6.8400    6.8500    6.8600    6.8700
    6.8800    6.8900    6.9000    6.9100    6.9200    6.9300    6.9400    6.9500
    6.9600    6.9700    6.9800    6.9900    7.0000    7.0100    7.0200    7.0300
    7.0400    7.0500    7.0600    7.0700    7.0800    7.0900    7.1000    7.1100
    7.1200    7.1300    7.1400    7.1500    7.1600    7.1700    7.1800    7.1900
    7.2000    7.2100    7.2200    7.2300    7.2400    7.2500    7.2600    7.2700
    7.2800    7.2900    7.3000    7.3100
   </PP_R>
   <PP_RAB type="real"  size=" 732" columns="8">
    0.0100    0.0100    0.0100    0.0100    0.0100    0.0100    0.0100    0.0100
    0.0100    0.0100    0.0100    0.0100    0.0100    0.0100    0.0100    0.0100
    0.0100    0.0100    0.0100    0.0100    0.0100    0.0100    0.0100    0.0100
    0.0100    0.0100    0.0100    0.0100    0.0100    0.0100    0.0100    0.0100
    0.0100    0.0100    0.0100    0.0100    0.0100    0.0100    0.0100    0.0100
    0.0100    0.0100    0.0100    0.0100    0.0100    0.0100    0.0100    0.0100
    0.0100    0.0100    0.0100    0.0100    0.0100    0.0100    0.0100    0.0100
    0.0100    0.0100    0.0100    0.0100    0.0100    0.0100    0.0100    0.0100
    0.0100    0.0100    0.0100    0.0100    0.0100    0.0100    0.0100    0.0100
    0.0100    0.0100    0.0100    0.0100    0.0100    0.0100    0.0100    0.0100
    0.0100    0.0100    0.0100    0.0100    0.0100    0.0100    0.0100    0.0100
    0.0100    0.0100    0.0100    0.0100    0.0100    0.0100    0.0100    0.0100
    0.0100    0.0100    0.0100    0.0100    0.0100    0.0100    0.0100    0.0100
    0.0100    0.0100    0.0100    0.0100    0.0100    0.0100    0.0100    0.0100
    0.0100    0.0100    0.0100    0.0100    0.0100    0.0100    0.0100    0.0100
    0.0100    0.0100    0.0100    0.0100    0.0100    0.0100    0.0100    0.0100
    0.0100    0.0100    0.0100    0.0100    0.0100    0.0100    0.0100    0.0100
    0.0100    0.0100    0.0100    0.0100    0.0100    0.0100    0.0100    0.0100
    0.0100    0.0100    0.0100    0.0100    0.0100    0.0100    0.0100    0.0100
    0.0100    0.0100    0.0100    0.0100    0.0100    0.0100    0.0100    0.0100
    0.0100    0.0100    0.0100    0.0100    0.0100    0.0100    0.0100    0.0100
    0.0100    0.0100    0.0100    0.0100    0.0100    0.0100    0.0100    0.0100
    0.0100    0.0100    0.0100    0.0100    0.0100    0.0100    0.0100    0.0100
    0.0100    0.0100    0.0100    0.0100    0.0100    0.0100    0.0100    0.0100
    0.0100    0.0100    0.0100    0.0100    0.0100    0.0100    0.0100    0.0100
    0.0100    0.0100    0.0100    0.0100    0.0100    0.0100    0.0100    0.0100
    0.0100    0.0100    0.0100    0.0100    0.0100    0.0100    0.0100    0.0100
    0.0100    0.0100    0.0100    0.0100    0.0100    0.0100    0.0100    0.0100
    0.0100    0.0100    0.0100    0.0100    0.0100    0.0100    0.0100    0.0100
    0.0100    0.0100    0.0100    0.0100    0.0100    0.0100    0.0100    0.0100
    0.0100    0.0100    0.0100    0.0100    0.0100    0.0100    0.0100    0.0100
    0.0100    0.0100    0.0100    0.0100    0.0100    0.0100    0.0100    0.0100
    0.0100    0.0100    0.0100    0.0100    0.0100    0.0100    0.0100    0.0100
    0.0100    0.0100    0.0100    0.0100    0.0100    0.0100    0.0100    0.0100
    0.0100    0.0100    0.0100    0.0100    0.0100    0.0100    0.0100    0.0100
    0.0100    0.0100    0.0100    0.0100    0.0100    0.0100    0.0100    0.0100
    0.0100    0.0100    0.0100    0.0100    0.0100    0.0100    0.0100    0.0100
    0.0100    0.0100    0.0100    0.0100    0.0100    0.0100    0.0100    0.0100
    0.0100    0.0100    0.0100    0.0100    0.0100    0.0100    0.0100    0.0100
    0.0100    0.0100    0.0100    0.0100    0.0100    0.0100    0.0100    0.0100
    0.0100    0.0100    0.0100    0.0100    0.0100    0.0100    0.0100    0.0100
    0.0100    0.0100    0.0100    0.0100    0.0100    0.0100    0.0100    0.0100
    0.0100    0.0100    0.0100    0.0100    0.0100    0.0100    0.0100    0.0100
    0.0100    0.0100    0.0100    0.0100    0.0100    0.0100    0.0100    0.0100
    0.0100    0.0100    0.0100    0.0100    0.0100    0.0100    0.0100    0.0100
    0.0100    0.0100    0.0100    0.0100    0.0100    0.0100    0.0100    0.0100
    0.0100    0.0100    0.0100    0.0100    0.0100    0.0100    0.0100    0.0100
    0.0100    0.0100    0.0100    0.0100    0.0100    0.0100    0.0100    0.0100
    0.0100    0.0100    0.0100    0.0100    0.0100    0.0100    0.0100    0.0100
    0.0100    0.0100    0.0100    0.0100    0.0100    0.0100    0.0100    0.0100
    0.0100    0.0100    0.0100    0.0100    0.0100    0.0100    0.0100    0.0100
    0.0100    0.0100    0.0100    0.0100    0.0100    0.0100    0.0100    0.0100
    0.0100    0.0100    0.0100    0.0100    0.0100    0.0100    0.0100    0.0100
    0.0100    0.0100    0.0100    0.0100    0.0100    0.0100    0.0100    0.0100
    0.0100    0.0100    0.0100    0.0100    0.0100    0.0100    0.0100    0.0100
    0.0100    0.0100    0.0100    0.0100    0.0100    0.0100    0.0100    0.0100
    0.0100    0.0100    0.0100    0.0100    0.0100    0.0100    0.0100    0.0100
    0.0100    0.0100    0.0100    0.0100    0.0100    0.0100    0.0100    0.0100
    0.0100    0.0100    0.0100    0.0100    0.0100    0.0100    0.0100    0.0100
    0.0100    0.0100    0.0100    0.0100    0.0100    0.0100    0.0100    0.0100
    0.0100    0.0100    0.0100    0.0100    0.0100    0.0100    0.0100    0.0100
    0.0100    0.0100    0.0100    0.0100    0.0100    0.0100    0.0100    0.0100
    0.0100    0.0100    0.0100    0.0100    0.0100    0.0100    0.0100    0.0100
    0.0100    0.0100    0.0100    0.0100    0.0100    0.0100    0.0100    0.0100
    0.0100    0.0100    0.0100    0.0100    0.0100    0.0100    0.0100    0.0100
    0.0100    0.0100    0.0100    0.0100    0.0100    0.0100    0.0100    0.0100
    0.0100    0.0100    0.0100    0.0100    0.0100    0.0100    0.0100    0.0100
    0.0100    0.0100    0.0100    0.0100    0.0100    0.0100    0.0100    0.0100
    0.0100    0.0100    0.0100    0.0100    0.0100    0.0100    0.0100    0.0100
    0.0100    0.0100    0.0100    0.0100    0.0100    0.0100    0.0100    0.0100
    0.0100    0.0100    0.0100    0.0100    0.0100    0.0100    0.0100    0.0100
    0.0100    0.0100    0.0100    0.0100    0.0100    0.0100    0.0100    0.0100
    0.0100    0.0100    0.0100    0.0100    0.0100    0.0100    0.0100    0.0100
    0.0100    0.0100    0.0100    0.0100    0.0100    0.0100    0.0100    0.0100
    0.0100    0.0100    0.0100    0.0100    0.0100    0.0100    0.0100    0.0100
    0.0100    0.0100    0.0100    0.0100    0.0100    0.0100    0.0100    0.0100
    0.0100    0.0100    0.0100    0.0100    0.0100    0.0100    0.0100    0.0100
    0.0100    0.0100    0.0100    0.0100    0.0100    0.0100    0.0100    0.0100
    0.0100    0.0100    0.0100    0.0100    0.0100    0.0100    0.0100    0.0100
    0.0100    0.0100    0.0100    0.0100    0.0100    0.0100    0.0100    0.0100
    0.0100    0.0100    0.0100    0.0100    0.0100    0.0100    0.0100    0.0100
    0.0100    0.0100    0.0100    0.0100    0.0100    0.0100    0.0100    0.0100
    0.0100    0.0100    0.0100    0.0100    0.0100    0.0100    0.0100    0.0100
    0.0100    0.0100    0.0100    0.0100    0.0100    0.0100    0.0100    0.0100
    0.0100    0.0100    0.0100    0.0100    0.0100    0.0100    0.0100    0.0100
    0.0100    0.0100    0.0100    0.0100    0.0100    0.0100    0.0100    0.0100
    0.0100    0.0100    0.0100    0.0100    0.0100    0.0100    0.0100    0.0100
    0.0100    0.0100    0.0100    0.0100    0.0100    0.0100    0.0100    0.0100
    0.0100    0.0100    0.0100    0.0100    0.0100    0.0100    0.0100    0.0100
    0.0100    0.0100    0.0100    0.0100    0.0100    0.0100    0.0100    0.0100
    0.0100    0.0100    0.0100    0.0100    0.0100    0.0100    0.0100    0.0100
    0.0100    0.0100    0.0100    0.0100
   </PP_RAB>
 </PP_MESH>
  <PP_LOCAL type="real"  size=" 732" columns="4">
   -8.7967766315E+00   -8.7958168815E+00   -8.7929380537E+00   -8.7881433240E+00
   -8.7814376601E+00   -8.7728279992E+00   -8.7623232311E+00   -8.7499341768E+00
   -8.7356735616E+00   -8.7195559849E+00   -8.7015978849E+00   -8.6818174992E+00
   -8.6602348221E+00   -8.6368715579E+00   -8.6117510708E+00   -8.5848983314E+00
   -8.5563398614E+00   -8.5261036740E+00   -8.4942192140E+00   -8.4607172942E+00
   -8.4256300310E+00   -8.3889907790E+00   -8.3508340633E+00   -8.3111955125E+00
   -8.2701117899E+00   -8.2276205257E+00   -8.1837602486E+00   -8.1385703180E+00
   -8.0920908568E+00   -8.0443626851E+00   -7.9954272551E+00   -7.9453265870E+00
   -7.8941032070E+00   -7.8418000862E+00   -7.7884605816E+00   -7.7341283796E+00
   -7.6788474402E+00   -7.6226619448E+00   -7.5656162450E+00   -7.5077548142E+00
   -7.4491222008E+00   -7.3897629843E+00   -7.3297217331E+00   -7.2690429644E+00
   -7.2077711058E+00   -7.1459504598E+00   -7.0836251692E+00   -7.0208391841E+00
   -6.9576362315E+00   -6.8940597853E+00   -6.8301530381E+00   -6.7659588739E+00
   -6.7015198418E+00   -6.6368781308E+00   -6.5720755447E+00   -6.5071534780E+00
   -6.4421528915E+00   -6.3771142887E+00   -6.3120776915E+00   -6.2470826163E+00
   -6.1821680493E+00   -6.1173724213E+00   -6.0527335826E+00   -5.9882887760E+00
   -5.9240746099E+00   -5.8601270298E+00   -5.7964812891E+00   -5.7331719182E+00
   -5.6702326931E+00   -5.6076966019E+00   -5.5455958101E+00   -5.4839616249E+00
   -5.4228244570E+00   -5.3622137821E+00   -5.3021612082E+00   -5.2425947531E+00
   -5.1836810781E+00   -5.1253982346E+00   -5.0677755857E+00   -5.0108361969E+00
   -4.9546017657E+00   -4.8990926780E+00   -4.8443279539E+00   -4.7903251921E+00
   -4.7371005121E+00   -4.6846684952E+00   -4.6330421233E+00   -4.5822327169E+00
   -4.5322498701E+00   -4.4831013856E+00   -4.4347932065E+00   -4.3873293481E+00
   -4.3407118267E+00   -4.2949405877E+00   -4.2500134323E+00   -4.2059259420E+00
   -4.1626714023E+00   -4.1202407251E+00   -4.0786223692E+00   -4.0378022598E+00
   -3.9977637082E+00   -3.9584873643E+00   -3.9199523116E+00   -3.8821381463E+00
   -3.8450253478E+00   -3.8085952251E+00   -3.7728298651E+00   -3.7377120839E+00
   -3.7032253792E+00   -3.6693538866E+00   -3.6360823360E+00   -3.6033960120E+00
   -3.5712807148E+00   -3.5397227245E+00   -3.5087087661E+00   -3.4782259775E+00
   -3.4482618791E+00   -3.4188043451E+00   -3.3898415774E+00   -3.3613620807E+00
   -3.3333546400E+00   -3.3058083004E+00   -3.2787123477E+00   -3.2520562917E+00
   -3.2258298508E+00   -3.2000229389E+00   -3.1746256586E+00   -3.1496283410E+00
   -3.1250216121E+00   -3.1007963882E+00   -3.0769438653E+00   -3.0534555081E+00
   -3.0303230400E+00   -3.0075384332E+00   -2.9850938999E+00   -2.9629818826E+00
   -2.9411950463E+00   -2.9197262702E+00   -2.8985686399E+00   -2.8777154399E+00
   -2.8571601465E+00   -2.8368964212E+00   -2.8169181042E+00   -2.7972192076E+00
   -2.7777939102E+00   -2.7586365512E+00   -2.7397416250E+00   -2.7211037757E+00
   -2.7027177922E+00   -2.6845786034E+00   -2.6666812732E+00   -2.6490209965E+00
   -2.6315930945E+00   -2.6143930108E+00   -2.5974163073E+00   -2.5806586605E+00
   -2.5641158577E+00   -2.5477837935E+00   -2.5316584666E+00   -2.5157359761E+00
   -2.5000125188E+00   -2.4844843861E+00   -2.4691479606E+00   -2.4539997141E+00
   -2.4390362042E+00   -2.4242540720E+00   -2.4096500395E+00   -2.3952209073E+00
   -2.3809635522E+00   -2.3668749248E+00   -2.3529520476E+00   -2.3391920125E+00
   -2.3255919793E+00   -2.3121491735E+00   -2.2988608840E+00   -2.2857244620E+00
   -2.2727373190E+00   -2.2598969245E+00   -2.2472008055E+00   -2.2346465437E+00
   -2.2222317749E+00   -2.2099541871E+00   -2.1978115189E+00   -2.1858015586E+00
   -2.1739221424E+00   -2.1621711533E+00   -2.1505465200E+00   -2.1390462152E+00
   -2.1276682551E+00   -2.1164106977E+00   -2.1052716417E+00   -2.0942492259E+00
   -2.0833416278E+00   -2.0725470627E+00   -2.0618637825E+00   -2.0512900752E+00
   -2.0408242637E+00   -2.0304647047E+00   -2.0202097886E+00   -2.0100579376E+00
   -2.0000076058E+00   -1.9900572780E+00   -1.9802054689E+00   -1.9704507226E+00
   -1.9607916117E+00   -1.9512267366E+00   -1.9417547250E+00   -1.9323742309E+00
   -1.9230839345E+00   -1.9138825409E+00   -1.9047687802E+00   -1.8957414064E+00
   -1.8867991969E+00   -1.8779409524E+00   -1.8691654957E+00   -1.8604716715E+00
   -1.8518583462E+00   -1.8433244068E+00   -1.8348687608E+00   -1.8264903358E+00
   -1.8181880787E+00   -1.8099609555E+00   -1.8018079509E+00   -1.7937280678E+00
   -1.7857203268E+00   -1.7777837662E+00   -1.7699174409E+00   -1.7621204228E+00
   -1.7543917999E+00   -1.7467306762E+00   -1.7391361713E+00   -1.7316074199E+00
   -1.7241435719E+00   -1.7167437916E+00   -1.7094072574E+00   -1.7021331622E+00
   -1.6949207121E+00   -1.6877691268E+00   -1.6806776391E+00   -1.6736454946E+00
   -1.6666719516E+00   -1.6597562805E+00   -1.6528977640E+00   -1.6460956963E+00
   -1.6393493836E+00   -1.6326581429E+00   -1.6260213028E+00   -1.6194382025E+00
   -1.6129081919E+00   -1.6064306314E+00   -1.6000048916E+00   -1.5936303530E+00
   -1.5873064062E+00   -1.5810324512E+00   -1.5748078976E+00   -1.5686321641E+00
   -1.5625046788E+00   -1.5564248783E+00   -1.5503922082E+00   -1.5444061226E+00
   -1.5384660839E+00   -1.5325715629E+00   -1.5267220383E+00   -1.5209169970E+00
   -1.5151559334E+00   -1.5094383496E+00   -1.5037637553E+00   -1.4981316674E+00
   -1.4925416102E+00   -1.4869931148E+00   -1.4814857195E+00   -1.4760189693E+00
   -1.4705924158E+00   -1.4652056175E+00   -1.4598581389E+00   -1.4545495512E+00
   -1.4492794316E+00   -1.4440473635E+00   -1.4388529362E+00   -1.4336957451E+00
   -1.4285753911E+00   -1.4234914810E+00   -1.4184436271E+00   -1.4134314472E+00
   -1.4084545644E+00   -1.4035126071E+00   -1.3986052090E+00   -1.3937320089E+00
   -1.3888926506E+00   -1.3840867826E+00   -1.3793140587E+00   -1.3745741370E+00
   -1.3698666806E+00   -1.3651913571E+00   -1.3605478386E+00   -1.3559358016E+00
   -1.3513549270E+00   -1.3468049002E+00   -1.3422854105E+00   -1.3377961515E+00
   -1.3333368210E+00   -1.3289071207E+00   -1.3245067561E+00   -1.3201354369E+00
   -1.3157928765E+00   -1.3114787918E+00   -1.3071929039E+00   -1.3029349371E+00
   -1.2987046194E+00   -1.2945016825E+00   -1.2903258614E+00   -1.2861768944E+00
   -1.2820545234E+00   -1.2779584935E+00   -1.2738885530E+00   -1.2698444534E+00
   -1.2658259494E+00   -1.2618327988E+00   -1.2578647624E+00   -1.2539216039E+00
   -1.2500030903E+00   -1.2461089910E+00   -1.2422390788E+00   -1.2383931289E+00
   -1.2345709194E+00   -1.2307722313E+00   -1.2269968480E+00   -1.2232445558E+00
   -1.2195151434E+00   -1.2158084023E+00   -1.2121241262E+00   -1.2084621117E+00
   -1.2048221576E+00   -1.2012040650E+00   -1.1976076377E+00   -1.1940326816E+00
   -1.1904790050E+00   -1.1869464186E+00   -1.1834347350E+00   -1.1799437693E+00
   -1.1764733388E+00   -1.1730232627E+00   -1.1695933625E+00   -1.1661834617E+00
   -1.1627933859E+00   -1.1594229628E+00   -1.1560720219E+00   -1.1527403949E+00
   -1.1494279151E+00   -1.1461344180E+00   -1.1428597409E+00   -1.1396037229E+00
   -1.1363662051E+00   -1.1331470302E+00   -1.1299460427E+00   -1.1267630889E+00
   -1.1235980170E+00   -1.1204506765E+00   -1.1173209189E+00   -1.1142085974E+00
   -1.1111135665E+00   -1.1080356826E+00   -1.1049748037E+00   -1.1019307890E+00
   -1.0989034998E+00   -1.0958927984E+00   -1.0928985490E+00   -1.0899206170E+00
   -1.0869588695E+00   -1.0840131748E+00   -1.0810834027E+00   -1.0781694246E+00
   -1.0752711131E+00   -1.0723883421E+00   -1.0695209870E+00   -1.0666689245E+00
   -1.0638320325E+00   -1.0610101904E+00   -1.0582032787E+00   -1.0554111791E+00
   -1.0526337749E+00   -1.0498709502E+00   -1.0471225905E+00   -1.0443885826E+00
   -1.0416688144E+00   -1.0389631748E+00   -1.0362715541E+00   -1.0335938436E+00
   -1.0309299357E+00   -1.0282797240E+00   -1.0256431032E+00   -1.0230199689E+00
   -1.0204102179E+00   -1.0178137482E+00   -1.0152304585E+00   -1.0126602487E+00
   -1.0101030198E+00   -1.0075586737E+00   -1.0050271133E+00   -1.0025082424E+00
   -1.0000019658E+00   -9.9750818940E-01   -9.9502681985E-01   -9.9255776479E-01
   -9.9010093279E-01   -9.8765623329E-01   -9.8522357666E-01   -9.8280287412E-01
   -9.8039403778E-01   -9.7799698059E-01   -9.7561161638E-01   -9.7323785978E-01
   -9.7087562628E-01   -9.6852483218E-01   -9.6618539458E-01   -9.6385723138E-01
   -9.6154026128E-01   -9.5923440375E-01   -9.5693957904E-01   -9.5465570816E-01
   -9.5238271286E-01   -9.5012051564E-01   -9.4786903975E-01   -9.4562820913E-01
   -9.4339794848E-01   -9.4117818318E-01   -9.3896883933E-01   -9.3676984369E-01
   -9.3458112374E-01   -9.3240260762E-01   -9.3023422414E-01   -9.2807590277E-01
   -9.2592757364E-01   -9.2378916751E-01   -9.2166061579E-01   -9.1954185053E-01
   -9.1743280438E-01   -9.1533341062E-01   -9.1324360315E-01   -9.1116331644E-01
   -9.0909248559E-01   -9.0703104627E-01   -9.0497893473E-01   -9.0293608781E-01
   -9.0090244292E-01   -8.9887793801E-01   -8.9686251160E-01   -8.9485610277E-01
   -8.9285865112E-01   -8.9087009682E-01   -8.8889038055E-01   -8.8691944351E-01
   -8.8495722744E-01   -8.8300367458E-01   -8.8105872769E-01   -8.7912233002E-01
   -8.7719442533E-01   -8.7527495787E-01   -8.7336387237E-01   -8.7146111405E-01
   -8.6956662859E-01   -8.6768036217E-01   -8.6580226142E-01   -8.6393227341E-01
   -8.6207034571E-01   -8.6021642630E-01   -8.5837046364E-01   -8.5653240661E-01
   -8.5470220453E-01   -8.5287980715E-01   -8.5106516467E-01   -8.4925822768E-01
   -8.4745894721E-01   -8.4566727470E-01   -8.4388316200E-01   -8.4210656135E-01
   -8.4033742543E-01   -8.3857570727E-01   -8.3682136033E-01   -8.3507433843E-01
   -8.3333459580E-01   -8.3160208703E-01   -8.2987676710E-01   -8.2815859136E-01
   -8.2644751553E-01   -8.2474349569E-01   -8.2304648829E-01   -8.2135645012E-01
   -8.1967333835E-01   -8.1799711047E-01   -8.1632772435E-01   -8.1466513818E-01
   -8.1300931050E-01   -8.1136020018E-01   -8.0971776643E-01   -8.0808196878E-01
   -8.0645276710E-01   -8.0483012157E-01   -8.0321399270E-01   -8.0160434130E-01
   -8.0000112852E-01   -7.9840431580E-01   -7.9681386488E-01   -7.9522973784E-01
   -7.9365189702E-01   -7.9208030509E-01   -7.9051492499E-01   -7.8895571996E-01
   -7.8740265355E-01   -7.8585568956E-01   -7.8431479211E-01   -7.8277992558E-01
   -7.8125105463E-01   -7.7972814419E-01   -7.7821115949E-01   -7.7670006600E-01
   -7.7519482946E-01   -7.7369541590E-01   -7.7220179159E-01   -7.7071392306E-01
   -7.6923177712E-01   -7.6775532080E-01   -7.6628452141E-01   -7.6481934650E-01
   -7.6335976387E-01   -7.6190574156E-01   -7.6045724786E-01   -7.5901425130E-01
   -7.5757672064E-01   -7.5614462489E-01   -7.5471793328E-01   -7.5329661529E-01
   -7.5188064060E-01   -7.5046997915E-01   -7.4906460108E-01   -7.4766447677E-01
   -7.4626957681E-01   -7.4487987202E-01   -7.4349533342E-01   -7.4211593227E-01
   -7.4074164001E-01   -7.3937242833E-01   -7.3800826910E-01   -7.3664913441E-01
   -7.3529499654E-01   -7.3394582799E-01   -7.3260160146E-01   -7.3126228985E-01
   -7.2992786624E-01   -7.2859830392E-01   -7.2727357639E-01   -7.2595365731E-01
   -7.2463852056E-01   -7.2332814019E-01   -7.2202249044E-01   -7.2072154574E-01
   -7.1942528071E-01   -7.1813367013E-01   -7.1684668900E-01   -7.1556431246E-01
   -7.1428651584E-01   -7.1301327465E-01   -7.1174456458E-01   -7.1048036148E-01
   -7.0922064138E-01   -7.0796538047E-01   -7.0671455512E-01   -7.0546814186E-01
   -7.0422611739E-01   -7.0298845857E-01   -7.0175514242E-01   -7.0052614612E-01
   -6.9930144702E-01   -6.9808102262E-01   -6.9686485057E-01   -6.9565290870E-01
   -6.9444517497E-01   -6.9324162750E-01   -6.9204224456E-01   -6.9084700458E-01
   -6.8965588612E-01   -6.8846886790E-01   -6.8728592879E-01   -6.8610704780E-01
   -6.8493220408E-01   -6.8376137693E-01   -6.8259454579E-01   -6.8143169023E-01
   -6.8027278996E-01   -6.7911782485E-01   -6.7796677489E-01   -6.7681962019E-01
   -6.7567634103E-01   -6.7453691778E-01   -6.7340133099E-01   -6.7226956131E-01
   -6.7114158951E-01   -6.7001739653E-01   -6.6889696340E-01   -6.6778027128E-01
   -6.6666730148E-01   -6.6555803542E-01   -6.6445245463E-01   -6.6335054078E-01
   -6.6225227567E-01   -6.6115764119E-01   -6.6006661937E-01   -6.5897919236E-01
   -6.5789534242E-01   -6.5681505193E-01   -6.5573830339E-01   -6.5466507940E-01
   -6.5359536268E-01   -6.5252913607E-01   -6.5146638252E-01   -6.5040708509E-01
   -6.4935122695E-01   -6.4829879137E-01   -6.4724976173E-01   -6.4620412154E-01
   -6.4516185438E-01   -6.4412294397E-01   -6.4308737412E-01   -6.4205512874E-01
   -6.4102619184E-01   -6.4000054755E-01   -6.3897818009E-01   -6.3795907377E-01
   -6.3694321302E-01   -6.3593058236E-01   -6.3492116641E-01   -6.3391494989E-01