<UPF version="2.0.1">
  <PP_INFO>

 This pseudopotential file has been produced using the code
 ONCVPSP  (Optimized Norm-Conservinng Vanderbilt PSeudopotential)
 fully-relativistic version 4.0.1 06/04/2019 by D. R. Hamann
 The code is available through a link at URL www.mat-simresearch.com.
 Documentation with the package provides a full discription of the
 input data below.


 While it is not required under the terms of the GNU GPL, it is
 suggested that you cite D. R. Hamann, Phys. Rev. B 88, 085117 (2013)
 in any publication using these pseudopotentials.

    <PP_INPUTFILE>
# ATOM AND REFERENCE CONFIGURATION
# atsym  z   nc   nv     iexc    psfile
  He  2.00    0    1   -1012      both
#
#   n    l    f        energy (Ha)
    1    0    2.00
#
# PSEUDOPOTENTIAL AND OPTIMIZATION
# lmax
    1
#
#   l,   rc,     ep,   ncon, nbas, qcut
    0   1.25000   0.00000    4    8   9.40000
    1   1.13000   0.05000    4    7   9.40000
#
# LOCAL POTENTIAL
# lloc, lpopt,  rc(5),   dvloc0
    4    5   1.00000      0.00000
#
# VANDERBILT-KLEINMAN-BYLANDER PROJECTORs
# l, nproj, debl
    0    2   1.00000
    1    1   1.00000
#
# MODEL CORE CHARGE
# icmod, fcfact, rcfact
    0   0.00000   0.00000
#
# LOG DERIVATIVE ANALYSIS
# epsh1, epsh2, depsh
  -12.00   12.00    0.02
#
# OUTPUT GRID
# rlmax, drl
    6.00    0.01
#
# TEST CONFIGURATIONS
# ncnf
    0
# nvcnf
#   n    l    f
    </PP_INPUTFILE>
  </PP_INFO>
  <!--                               -->
  <!-- END OF HUMAN READABLE SECTION -->
  <!--                               -->
    <PP_HEADER
       generated="Generated using ONCVPSP code by D. R. Hamann"
       author="anonymous"
       date="250925"
       comment=""
       element="He"
       pseudo_type="NC"
       relativistic="full"
       is_ultrasoft="F"
       is_paw="F"
       is_coulomb="F"
       has_so="T"
       has_wfc="F"
       has_gipaw="F"
       core_correction="F"
       functional="SLA  PW   NOGX NOGC"
       z_valence="    2.00"
       total_psenergy="  -5.61016026856E+00"
       rho_cutoff="   7.31000000000E+00"
       l_max="1"
       l_local="-1"
       mesh_size="   732"
       number_of_wfc="1"
       number_of_proj="4"/>
 <PP_MESH>
   <PP_R type="real"  size=" 732" columns="8">
    0.0000    0.0100    0.0200    0.0300    0.0400    0.0500    0.0600    0.0700
    0.0800    0.0900    0.1000    0.1100    0.1200    0.1300    0.1400    0.1500
    0.1600    0.1700    0.1800    0.1900    0.2000    0.2100    0.2200    0.2300
    0.2400    0.2500    0.2600    0.2700    0.2800    0.2900    0.3000    0.3100
    0.3200    0.3300    0.3400    0.3500    0.3600    0.3700    0.3800    0.3900
    0.4000    0.4100    0.4200    0.4300    0.4400    0.4500    0.4600    0.4700
    0.4800    0.4900    0.5000    0.5100    0.5200    0.5300    0.5400    0.5500
    0.5600    0.5700    0.5800    0.5900    0.6000    0.6100    0.6200    0.6300
    0.6400    0.6500    0.6600    0.6700    0.6800    0.6900    0.7000    0.7100
    0.7200    0.7300    0.7400    0.7500    0.7600    0.7700    0.7800    0.7900
    0.8000    0.8100    0.8200    0.8300    0.8400    0.8500    0.8600    0.8700
    0.8800    0.8900    0.9000    0.9100    0.9200    0.9300    0.9400    0.9500
    0.9600    0.9700    0.9800    0.9900    1.0000    1.0100    1.0200    1.0300
    1.0400    1.0500    1.0600    1.0700    1.0800    1.0900    1.1000    1.1100
    1.1200    1.1300    1.1400    1.1500    1.1600    1.1700    1.1800    1.1900
    1.2000    1.2100    1.2200    1.2300    1.2400    1.2500    1.2600    1.2700
    1.2800    1.2900    1.3000    1.3100    1.3200    1.3300    1.3400    1.3500
    1.3600    1.3700    1.3800    1.3900    1.4000    1.4100    1.4200    1.4300
    1.4400    1.4500    1.4600    1.4700    1.4800    1.4900    1.5000    1.5100
    1.5200    1.5300    1.5400    1.5500    1.5600    1.5700    1.5800    1.5900
    1.6000    1.6100    1.6200    1.6300    1.6400    1.6500    1.6600    1.6700
    1.6800    1.6900    1.7000    1.7100    1.7200    1.7300    1.7400    1.7500
    1.7600    1.7700    1.7800    1.7900    1.8000    1.8100    1.8200    1.8300
    1.8400    1.8500    1.8600    1.8700    1.8800    1.8900    1.9000    1.9100
    1.9200    1.9300    1.9400    1.9500    1.9600    1.9700    1.9800    1.9900
    2.0000    2.0100    2.0200    2.0300    2.0400    2.0500    2.0600    2.0700
    2.0800    2.0900    2.1000    2.1100    2.1200    2.1300    2.1400    2.1500
    2.1600    2.1700    2.1800    2.1900    2.2000    2.2100    2.2200    2.2300
    2.2400    2.2500    2.2600    2.2700    2.2800    2.2900    2.3000    2.3100
    2.3200    2.3300    2.3400    2.3500    2.3600    2.3700    2.3800    2.3900
    2.4000    2.4100    2.4200    2.4300    2.4400    2.4500    2.4600    2.4700
    2.4800    2.4900    2.5000    2.5100    2.5200    2.5300    2.5400    2.5500
    2.5600    2.5700    2.5800    2.5900    2.6000    2.6100    2.6200    2.6300
    2.6400    2.6500    2.6600    2.6700    2.6800    2.6900    2.7000    2.7100
    2.7200    2.7300    2.7400    2.7500    2.7600    2.7700    2.7800    2.7900
    2.8000    2.8100    2.8200    2.8300    2.8400    2.8500    2.8600    2.8700
    2.8800    2.8900    2.9000    2.9100    2.9200    2.9300    2.9400    2.9500
    2.9600    2.9700    2.9800    2.9900    3.0000    3.0100    3.0200    3.0300
    3.0400    3.0500    3.0600    3.0700    3.0800    3.0900    3.1000    3.1100
    3.1200    3.1300    3.1400    3.1500    3.1600    3.1700    3.1800    3.1900
    3.2000    3.2100    3.2200    3.2300    3.2400    3.2500    3.2600    3.2700
    3.2800    3.2900    3.3000    3.3100    3.3200    3.3300    3.3400    3.3500
    3.3600    3.3700    3.3800    3.3900    3.4000    3.4100    3.4200    3.4300
    3.4400    3.4500    3.4600    3.4700    3.4800    3.4900    3.5000    3.5100
    3.5200    3.5300    3.5400    3.5500    3.5600    3.5700    3.5800    3.5900
    3.6000    3.6100    3.6200    3.6300    3.6400    3.6500    3.6600    3.6700
    3.6800    3.6900    3.7000    3.7100    3.7200    3.7300    3.7400    3.7500
    3.7600    3.7700    3.7800    3.7900    3.8000    3.8100    3.8200    3.8300
    3.8400    3.8500    3.8600    3.8700    3.8800    3.8900    3.9000    3.9100
    3.9200    3.9300    3.9400    3.9500    3.9600    3.9700    3.9800    3.9900
    4.0000    4.0100    4.0200    4.0300    4.0400    4.0500    4.0600    4.0700
    4.0800    4.0900    4.1000    4.1100    4.1200    4.1300    4.1400    4.1500
    4.1600    4.1700    4.1800    4.1900    4.2000    4.2100    4.2200    4.2300
    4.2400    4.2500    4.2600    4.2700    4.2800    4.2900    4.3000    4.3100
    4.3200    4.3300    4.3400    4.3500    4.3600    4.3700    4.3800    4.3900
    4.4000    4.4100    4.4200    4.4300    4.4400    4.4500    4.4600    4.4700
    4.4800    4.4900    4.5000    4.5100    4.5200    4.5300    4.5400    4.5500
    4.5600    4.5700    4.5800    4.5900    4.6000    4.6100    4.6200    4.6300
    4.6400    4.6500    4.6600    4.6700    4.6800    4.6900    4.7000    4.7100
    4.7200    4.7300    4.7400    4.7500    4.7600    4.7700    4.7800    4.7900
    4.8000    4.8100    4.8200    4.8300    4.8400    4.8500    4.8600    4.8700
    4.8800    4.8900    4.9000    4.9100    4.9200    4.9300    4.9400    4.9500
    4.9600    4.9700    4.9800    4.9900    5.0000    5.0100    5.0200    5.0300
    5.0400    5.0500    5.0600    5.0700    5.0800    5.0900    5.1000    5.1100
    5.1200    5.1300    5.1400    5.1500    5.1600    5.1700    5.1800    5.1900
    5.2000    5.2100    5.2200    5.2300    5.2400    5.2500    5.2600    5.2700
    5.2800    5.2900    5.3000    5.3100    5.3200    5.3300    5.3400    5.3500
    5.3600    5.3700    5.3800    5.3900    5.4000    5.4100    5.4200    5.4300
    5.4400    5.4500    5.4600    5.4700    5.4800    5.4900    5.5000    5.5100
    5.5200    5.5300    5.5400    5.5500    5.5600    5.5700    5.5800    5.5900
    5.6000    5.6100    5.6200    5.6300    5.6400    5.6500    5.6600    5.6700
    5.6800    5.6900    5.7000    5.7100    5.7200    5.7300    5.7400    5.7500
    5.7600    5.7700    5.7800    5.7900    5.8000    5.8100    5.8200    5.8300
    5.8400    5.8500    5.8600    5.8700    5.8800    5.8900    5.9000    5.9100
    5.9200    5.9300    5.9400    5.9500    5.9600    5.9700    5.9800    5.9900
    6.0000    6.0100    6.0200    6.0300    6.0400    6.0500    6.0600    6.0700
    6.0800    6.0900    6.1000    6.1100    6.1200    6.1300    6.1400    6.1500
    6.1600    6.1700    6.1800    6.1900    6.2000    6.2100    6.2200    6.2300
    6.2400    6.2500    6.2600    6.2700    6.2800    6.2900    6.3000    6.3100
    6.3200    6.3300    6.3400    6.3500    6.3600    6.3700    6.3800    6.3900
    6.4000    6.4100    6.4200    6.4300    6.4400    6.4500    6.4600    6.4700
    6.4800    6.4900    6.5000    6.5100    6.5200    6.5300    6.5400    6.5500
    6.5600    6.5700    6.5800    6.5900    6.6000    6.6100    6.6200    6.6300
    6.6400    6.6500    6.6600    6.6700    6.6800    6.6900    6.7000    6.7100
    6.7200    6.7300    6.7400    6.7500    6.7600    6.7700    6.7800    6.7900
    6.8000    6.8100    6.8200    6.8300    6.8400    6.8500    6.8600    6.8700
    6.8800    6.8900    6.9000    6.9100    6.9200    6.9300    6.9400    6.9500
    6.9600    6.9700    6.9800    6.9900    7.0000    7.0100    7.0200    7.0300
    7.0400    7.0500    7.0600    7.0700    7.0800    7.0900    7.1000    7.1100
    7.1200    7.1300    7.1400    7.1500    7.1600    7.1700    7.1800    7.1900
    7.2000    7.2100    7.2200    7.2300    7.2400    7.2500    7.2600    7.2700
    7.2800    7.2900    7.3000    7.3100
   </PP_R>
   <PP_RAB type="real"  size=" 732" columns="8">
    0.0100    0.0100    0.0100    0.0100    0.0100    0.0100    0.0100    0.0100
    0.0100    0.0100    0.0100    0.0100    0.0100    0.0100    0.0100    0.0100
    0.0100    0.0100    0.0100    0.0100    0.0100    0.0100    0.0100    0.0100
    0.0100    0.0100    0.0100    0.0100    0.0100    0.0100    0.0100    0.0100
    0.0100    0.0100    0.0100    0.0100    0.0100    0.0100    0.0100    0.0100
    0.0100    0.0100    0.0100    0.0100    0.0100    0.0100    0.0100    0.0100
    0.0100    0.0100    0.0100    0.0100    0.0100    0.0100    0.0100    0.0100
    0.0100    0.0100    0.0100    0.0100    0.0100    0.0100    0.0100    0.0100
    0.0100    0.0100    0.0100    0.0100    0.0100    0.0100    0.0100    0.0100
    0.0100    0.0100    0.0100    0.0100    0.0100    0.0100    0.0100    0.0100
    0.0100    0.0100    0.0100    0.0100    0.0100    0.0100    0.0100    0.0100
    0.0100    0.0100    0.0100    0.0100    0.0100    0.0100    0.0100    0.0100
    0.0100    0.0100    0.0100    0.0100    0.0100    0.0100    0.0100    0.0100
    0.0100    0.0100    0.0100    0.0100    0.0100    0.0100    0.0100    0.0100
    0.0100    0.0100    0.0100    0.0100    0.0100    0.0100    0.0100    0.0100
    0.0100    0.0100    0.0100    0.0100    0.0100    0.0100    0.0100    0.0100
    0.0100    0.0100    0.0100    0.0100    0.0100    0.0100    0.0100    0.0100
    0.0100    0.0100    0.0100    0.0100    0.0100    0.0100    0.0100    0.0100
    0.0100    0.0100    0.0100    0.0100    0.0100    0.0100    0.0100    0.0100
    0.0100    0.0100    0.0100    0.0100    0.0100    0.0100    0.0100    0.0100
    0.0100    0.0100    0.0100    0.0100    0.0100    0.0100    0.0100    0.0100
    0.0100    0.0100    0.0100    0.0100    0.0100    0.0100    0.0100    0.0100
    0.0100    0.0100    0.0100    0.0100    0.0100    0.0100    0.0100    0.0100
    0.0100    0.0100    0.0100    0.0100    0.0100    0.0100    0.0100    0.0100
    0.0100    0.0100    0.0100    0.0100    0.0100    0.0100    0.0100    0.0100
    0.0100    0.0100    0.0100    0.0100    0.0100    0.0100    0.0100    0.0100
    0.0100    0.0100    0.0100    0.0100    0.0100    0.0100    0.0100    0.0100
    0.0100    0.0100    0.0100    0.0100    0.0100    0.0100    0.0100    0.0100
    0.0100    0.0100    0.0100    0.0100    0.0100    0.0100    0.0100    0.0100
    0.0100    0.0100    0.0100    0.0100    0.0100    0.0100    0.0100    0.0100
    0.0100    0.0100    0.0100    0.0100    0.0100    0.0100    0.0100    0.0100
    0.0100    0.0100    0.0100    0.0100    0.0100    0.0100    0.0100    0.0100
    0.0100    0.0100    0.0100    0.0100    0.0100    0.0100    0.0100    0.0100
    0.0100    0.0100    0.0100    0.0100    0.0100    0.0100    0.0100    0.0100
    0.0100    0.0100    0.0100    0.0100    0.0100    0.0100    0.0100    0.0100
    0.0100    0.0100    0.0100    0.0100    0.0100    0.0100    0.0100    0.0100
    0.0100    0.0100    0.0100    0.0100    0.0100    0.0100    0.0100    0.0100
    0.0100    0.0100    0.0100    0.0100    0.0100    0.0100    0.0100    0.0100
    0.0100    0.0100    0.0100    0.0100    0.0100    0.0100    0.0100    0.0100
    0.0100    0.0100    0.0100    0.0100    0.0100    0.0100    0.0100    0.0100
    0.0100    0.0100    0.0100    0.0100    0.0100    0.0100    0.0100    0.0100
    0.0100    0.0100    0.0100    0.0100    0.0100    0.0100    0.0100    0.0100
    0.0100    0.0100    0.0100    0.0100    0.0100    0.0100    0.0100    0.0100
    0.0100    0.0100    0.0100    0.0100    0.0100    0.0100    0.0100    0.0100
    0.0100    0.0100    0.0100    0.0100    0.0100    0.0100    0.0100    0.0100
    0.0100    0.0100    0.0100    0.0100    0.0100    0.0100    0.0100    0.0100
    0.0100    0.0100    0.0100    0.0100    0.0100    0.0100    0.0100    0.0100
    0.0100    0.0100    0.0100    0.0100    0.0100    0.0100    0.0100    0.0100
    0.0100    0.0100    0.0100    0.0100    0.0100    0.0100    0.0100    0.0100
    0.0100    0.0100    0.0100    0.0100    0.0100    0.0100    0.0100    0.0100
    0.0100    0.0100    0.0100    0.0100    0.0100    0.0100    0.0100    0.0100
    0.0100    0.0100    0.0100    0.0100    0.0100    0.0100    0.0100    0.0100
    0.0100    0.0100    0.0100    0.0100    0.0100    0.0100    0.0100    0.0100
    0.0100    0.0100    0.0100    0.0100    0.0100    0.0100    0.0100    0.0100
    0.0100    0.0100    0.0100    0.0100    0.0100    0.0100    0.0100    0.0100
    0.0100    0.0100    0.0100    0.0100    0.0100    0.0100    0.0100    0.0100
    0.0100    0.0100    0.0100    0.0100    0.0100    0.0100    0.0100    0.0100
    0.0100    0.0100    0.0100    0.0100    0.0100    0.0100    0.0100    0.0100
    0.0100    0.0100    0.0100    0.0100    0.0100    0.0100    0.0100    0.0100
    0.0100    0.0100    0.0100    0.0100    0.0100    0.0100    0.0100    0.0100
    0.0100    0.0100    0.0100    0.0100    0.0100    0.0100    0.0100    0.0100
    0.0100    0.0100    0.0100    0.0100    0.0100    0.0100    0.0100    0.0100
    0.0100    0.0100    0.0100    0.0100    0.0100    0.0100    0.0100    0.0100
    0.0100    0.0100    0.0100    0.0100    0.0100    0.0100    0.0100    0.0100
    0.0100    0.0100    0.0100    0.0100    0.0100    0.0100    0.0100    0.0100
    0.0100    0.0100    0.0100    0.0100    0.0100    0.0100    0.0100    0.0100
    0.0100    0.0100    0.0100    0.0100    0.0100    0.0100    0.0100    0.0100
    0.0100    0.0100    0.0100    0.0100    0.0100    0.0100    0.0100    0.0100
    0.0100    0.0100    0.0100    0.0100    0.0100    0.0100    0.0100    0.0100
    0.0100    0.0100    0.0100    0.0100    0.0100    0.0100    0.0100    0.0100
    0.0100    0.0100    0.0100    0.0100    0.0100    0.0100    0.0100    0.0100
    0.0100    0.0100    0.0100    0.0100    0.0100    0.0100    0.0100    0.0100
    0.0100    0.0100    0.0100    0.0100    0.0100    0.0100    0.0100    0.0100
    0.0100    0.0100    0.0100    0.0100    0.0100    0.0100    0.0100    0.0100
    0.0100    0.0100    0.0100    0.0100    0.0100    0.0100    0.0100    0.0100
    0.0100    0.0100    0.0100    0.0100    0.0100    0.0100    0.0100    0.0100
    0.0100    0.0100    0.0100    0.0100    0.0100    0.0100    0.0100    0.0100
    0.0100    0.0100    0.0100    0.0100    0.0100    0.0100    0.0100    0.0100
    0.0100    0.0100    0.0100    0.0100    0.0100    0.0100    0.0100    0.0100
    0.0100    0.0100    0.0100    0.0100    0.0100    0.0100    0.0100    0.0100
    0.0100    0.0100    0.0100    0.0100    0.0100    0.0100    0.0100    0.0100
    0.0100    0.0100    0.0100    0.0100    0.0100    0.0100    0.0100    0.0100
    0.0100    0.0100    0.0100    0.0100    0.0100    0.0100    0.0100    0.0100
    0.0100    0.0100    0.0100    0.0100    0.0100    0.0100    0.0100    0.0100
    0.0100    0.0100    0.0100    0.0100    0.0100    0.0100    0.0100    0.0100
    0.0100    0.0100    0.0100    0.0100    0.0100    0.0100    0.0100    0.0100
    0.0100    0.0100    0.0100    0.0100    0.0100    0.0100    0.0100    0.0100
    0.0100    0.0100    0.0100    0.0100    0.0100    0.0100    0.0100    0.0100
    0.0100    0.0100    0.0100    0.0100    0.0100    0.0100    0.0100    0.0100
    0.0100    0.0100    0.0100    0.0100    0.0100    0.0100    0.0100    0.0100
    0.0100    0.0100    0.0100    0.0100    0.0100    0.0100    0.0100    0.0100
    0.0100    0.0100    0.0100    0.0100
   </PP_RAB>
 </PP_MESH>
  <PP_LOCAL type="real"  size=" 732" columns="4">
   -8.7977308688E+00   -8.7967706248E+00   -8.7938908433E+00   -8.7890945183E+00
   -8.7823866199E+00   -8.7737740860E+00   -8.7632658070E+00   -8.7508726043E+00
   -8.7366072041E+00   -8.7204842065E+00   -8.7025200505E+00   -8.6827329750E+00
   -8.6611429756E+00   -8.6377717583E+00   -8.6126426890E+00   -8.5857807408E+00
   -8.5572124376E+00   -8.5269657958E+00   -8.4950702632E+00   -8.4615566565E+00
   -8.4264570962E+00   -8.3898049415E+00   -8.3516347228E+00   -8.3119820743E+00
   -8.2708836655E+00   -8.2283771336E+00   -8.1845010146E+00   -8.1392946760E+00
   -8.0927982492E+00   -8.0450525637E+00   -7.9960990816E+00   -7.9459798338E+00
   -7.8947373574E+00   -7.8424146355E+00   -7.7890550376E+00   -7.7347022629E+00
   -7.6794002853E+00   -7.6231933005E+00   -7.5661256746E+00   -7.5082418965E+00
   -7.4495865305E+00   -7.3902041723E+00   -7.3301394071E+00   -7.2694367692E+00
   -7.2081407040E+00   -7.1462955317E+00   -7.0839454133E+00   -7.0211343176E+00
   -6.9579059902E+00   -6.8943039240E+00   -6.8303713306E+00   -6.7661511134E+00
   -6.7016858408E+00   -6.6370177212E+00   -6.5721885779E+00   -6.5072398249E+00
   -6.4422124425E+00   -6.3771469537E+00   -6.3120833997E+00   -6.2470613165E+00
   -6.1821197093E+00   -6.1172970286E+00   -6.0526311437E+00   -5.9881593167E+00
   -5.9239181751E+00   -5.8599436836E+00   -5.7962711148E+00   -5.7329350183E+00
   -5.6699691895E+00   -5.6074066359E+00   -5.5452795428E+00   -5.4836192372E+00
   -5.4224561502E+00   -5.3618197779E+00   -5.3017386408E+00   -5.2422402412E+00
   -5.1833510194E+00   -5.1250963078E+00   -5.0675002839E+00   -5.0105859206E+00
   -4.9543749362E+00   -4.8988877413E+00   -4.8441433851E+00   -4.7901594989E+00
   -4.7369522394E+00   -4.6845362287E+00   -4.6329244937E+00   -4.5821284038E+00
   -4.5321576060E+00   -4.4830199597E+00   -4.4347214690E+00   -4.3872662139E+00
   -4.3406562792E+00   -4.2948916831E+00   -4.2499703031E+00   -4.2058878011E+00
   -4.1626375471E+00   -4.1202105411E+00   -4.0785953339E+00   -4.0377779470E+00
   -3.9977417917E+00   -3.9584676161E+00   -3.9199345461E+00   -3.8821221868E+00
   -3.8450110266E+00   -3.8085823831E+00   -3.7728183524E+00   -3.7377017594E+00
   -3.7032161113E+00   -3.6693455522E+00   -3.6360748213E+00   -3.6033892119E+00
   -3.5712745329E+00   -3.5397170729E+00   -3.5087035651E+00   -3.4782211556E+00
   -3.4482573725E+00   -3.4188000978E+00   -3.3898375404E+00   -3.3613582121E+00
   -3.3333509048E+00   -3.3058046697E+00   -3.2787087988E+00   -3.2520528076E+00
   -3.2258264199E+00   -3.2000195549E+00   -3.1746223193E+00   -3.1496250456E+00
   -3.1250183597E+00   -3.1007931780E+00   -3.0769406964E+00   -3.0534523797E+00
   -3.0303199513E+00   -3.0075353835E+00   -2.9850908883E+00   -2.9629789084E+00
   -2.9411921089E+00   -2.9197233688E+00   -2.8985657738E+00   -2.8777126083E+00
   -2.8571573489E+00   -2.8368936570E+00   -2.8169153726E+00   -2.7972165081E+00
   -2.7777912422E+00   -2.7586339141E+00   -2.7397390182E+00   -2.7211011987E+00
   -2.7027152444E+00   -2.6845760843E+00   -2.6666787823E+00   -2.6490185332E+00
   -2.6315906584E+00   -2.6143906014E+00   -2.5974139242E+00   -2.5806563031E+00
   -2.5641135256E+00   -2.5477814863E+00   -2.5316561838E+00   -2.5157337174E+00
   -2.5000102837E+00   -2.4844821742E+00   -2.4691457716E+00   -2.4539975475E+00
   -2.4390340597E+00   -2.4242519491E+00   -2.4096479380E+00   -2.3952188269E+00
   -2.3809614924E+00   -2.3668728854E+00   -2.3529500281E+00   -2.3391900128E+00
   -2.3255899990E+00   -2.3121472122E+00   -2.2988589415E+00   -2.2857225381E+00
   -2.2727354132E+00   -2.2598950368E+00   -2.2471989354E+00   -2.2346446910E+00
   -2.2222299394E+00   -2.2099523685E+00   -2.1978097169E+00   -2.1857997730E+00
   -2.1739203730E+00   -2.1621693999E+00   -2.1505447823E+00   -2.1390444930E+00
   -2.1276665482E+00   -2.1164090058E+00   -2.1052699647E+00   -2.0942475636E+00
   -2.0833399800E+00   -2.0725454291E+00   -2.0618621630E+00   -2.0512884696E+00
   -2.0408226718E+00   -2.0304631264E+00   -2.0202082236E+00   -2.0100563858E+00
   -2.0000060670E+00   -1.9900557520E+00   -1.9802039557E+00   -1.9704492219E+00
   -1.9607901234E+00   -1.9512252605E+00   -1.9417532610E+00   -1.9323727789E+00
   -1.9230824942E+00   -1.9138811123E+00   -1.9047673631E+00   -1.8957400007E+00
   -1.8867978025E+00   -1.8779395691E+00   -1.8691641233E+00   -1.8604703101E+00
   -1.8518569955E+00   -1.8433230667E+00   -1.8348674313E+00   -1.8264890166E+00
   -1.8181867698E+00   -1.8099596568E+00   -1.8018066622E+00   -1.7937267891E+00
   -1.7857190580E+00   -1.7777825071E+00   -1.7699161914E+00   -1.7621191828E+00
   -1.7543905694E+00   -1.7467294550E+00   -1.7391349594E+00   -1.7316062172E+00
   -1.7241423782E+00   -1.7167426069E+00   -1.7094060816E+00   -1.7021319952E+00
   -1.6949195538E+00   -1.6877679771E+00   -1.6806764979E+00   -1.6736443619E+00
   -1.6666708273E+00   -1.6597551645E+00   -1.6528966562E+00   -1.6460945967E+00
   -1.6393482920E+00   -1.6326570594E+00   -1.6260202272E+00   -1.6194371348E+00
   -1.6129071319E+00   -1.6064295791E+00   -1.6000038469E+00   -1.5936293159E+00
   -1.5873053766E+00   -1.5810314290E+00   -1.5748068828E+00   -1.5686311567E+00
   -1.5625036786E+00   -1.5564238853E+00   -1.5503912223E+00   -1.5444051437E+00
   -1.5384651120E+00   -1.5325705980E+00   -1.5267210803E+00   -1.5209160458E+00
   -1.5151549889E+00   -1.5094374119E+00   -1.5037628242E+00   -1.4981307429E+00
   -1.4925406922E+00   -1.4869922033E+00   -1.4814848145E+00   -1.4760180706E+00
   -1.4705915235E+00   -1.4652047315E+00   -1.4598572591E+00   -1.4545486776E+00
   -1.4492785641E+00   -1.4440465021E+00   -1.4388520809E+00   -1.4336948958E+00
   -1.4285745477E+00   -1.4234906436E+00   -1.4184427955E+00   -1.4134306213E+00
   -1.4084537443E+00   -1.4035117927E+00   -1.3986044003E+00   -1.3937312059E+00
   -1.3888918531E+00   -1.3840859907E+00   -1.3793132723E+00   -1.3745733560E+00
   -1.3698659051E+00   -1.3651905869E+00   -1.3605470737E+00   -1.3559350420E+00
   -1.3513541728E+00   -1.3468041511E+00   -1.3422846666E+00   -1.3377954128E+00
   -1.3333360874E+00   -1.3289063921E+00   -1.3245060326E+00   -1.3201347184E+00
   -1.3157921628E+00   -1.3114780831E+00   -1.3071922001E+00   -1.3029342381E+00
   -1.2987039253E+00   -1.2945009931E+00   -1.2903251767E+00   -1.2861762145E+00
   -1.2820538482E+00   -1.2779578229E+00   -1.2738878870E+00   -1.2698437920E+00
   -1.2658252925E+00   -1.2618321464E+00   -1.2578641145E+00   -1.2539209605E+00
   -1.2500024512E+00   -1.2461083564E+00   -1.2422384485E+00   -1.2383925029E+00
   -1.2345702977E+00   -1.2307716138E+00   -1.2269962348E+00   -1.2232439468E+00
   -1.2195145386E+00   -1.2158078016E+00   -1.2121235296E+00   -1.2084615192E+00
   -1.2048215691E+00   -1.2012034806E+00   -1.1976070572E+00   -1.1940321051E+00
   -1.1904784325E+00   -1.1869458499E+00   -1.1834341702E+00   -1.1799432084E+00
   -1.1764727817E+00   -1.1730227094E+00   -1.1695928130E+00   -1.1661829160E+00
   -1.1627928440E+00   -1.1594224245E+00   -1.1560714873E+00   -1.1527398639E+00
   -1.1494273877E+00   -1.1461338942E+00   -1.1428592207E+00   -1.1396032063E+00
   -1.1363656920E+00   -1.1331465206E+00   -1.1299455366E+00   -1.1267625863E+00
   -1.1235975177E+00   -1.1204501807E+00   -1.1173204265E+00   -1.1142081083E+00
   -1.1111130808E+00   -1.1080352002E+00   -1.1049743245E+00   -1.1019303132E+00
   -1.0989030272E+00   -1.0958923290E+00   -1.0928980828E+00   -1.0899201540E+00
   -1.0869584096E+00   -1.0840127180E+00   -1.0810829491E+00   -1.0781689741E+00
   -1.0752706656E+00   -1.0723878977E+00   -1.0695205456E+00   -1.0666684861E+00
   -1.0638315972E+00   -1.0610097580E+00   -1.0582028492E+00   -1.0554107526E+00
   -1.0526333512E+00   -1.0498705294E+00   -1.0471221727E+00   -1.0443881676E+00
   -1.0416684022E+00   -1.0389627654E+00   -1.0362711475E+00   -1.0335934398E+00
   -1.0309295346E+00   -1.0282793257E+00   -1.0256427076E+00   -1.0230195760E+00
   -1.0204098277E+00   -1.0178133606E+00   -1.0152300735E+00   -1.0126598664E+00
   -1.0101026401E+00   -1.0075582966E+00   -1.0050267388E+00   -1.0025078704E+00
   -1.0000015964E+00   -9.9750782251E-01   -9.9502645546E-01   -9.9255740289E-01
   -9.9010057336E-01   -9.8765587632E-01   -9.8522322212E-01   -9.8280252201E-01
   -9.8039368807E-01   -9.7799663328E-01   -9.7561127143E-01   -9.7323751719E-01
   -9.7087528604E-01   -9.6852449426E-01   -9.6618505896E-01   -9.6385689806E-01
   -9.6153993024E-01   -9.5923407498E-01   -9.5693925252E-01   -9.5465538387E-01
   -9.5238239079E-01   -9.5012019577E-01   -9.4786872207E-01   -9.4562789363E-01
   -9.4339763514E-01   -9.4117787198E-01   -9.3896853025E-01   -9.3676953673E-01
   -9.3458081889E-01   -9.3240230486E-01   -9.3023392345E-01   -9.2807560414E-01
   -9.2592727706E-01   -9.2378887296E-01   -9.2166032327E-01   -9.1954156001E-01
   -9.1743251585E-01   -9.1533312407E-01   -9.1324331856E-01   -9.1116303381E-01
   -9.0909220489E-01   -9.0703076750E-01   -9.0497865788E-01   -9.0293581286E-01
   -9.0090216986E-01   -8.9887766682E-01   -8.9686224228E-01   -8.9485583529E-01
   -8.9285838549E-01   -8.9086983301E-01   -8.8889011855E-01   -8.8691918332E-01
   -8.8495696904E-01   -8.8300341796E-01   -8.8105847283E-01   -8.7912207692E-01
   -8.7719417397E-01   -8.7527470824E-01   -8.7336362446E-01   -8.7146086785E-01
   -8.6956638409E-01   -8.6768011936E-01   -8.6580202028E-01   -8.6393203394E-01
   -8.6207010788E-01   -8.6021619012E-01   -8.5837022909E-01   -8.5653217368E-01
   -8.5470197320E-01   -8.5287957743E-01   -8.5106493653E-01   -8.4925800112E-01
   -8.4745872222E-01   -8.4566705126E-01   -8.4388294011E-01   -8.4210634100E-01
   -8.4033720660E-01   -8.3857548996E-01   -8.3682114452E-01   -8.3507412412E-01
   -8.3333438297E-01   -8.3160187568E-01   -8.2987655722E-01   -8.2815838294E-01
   -8.2644730856E-01   -8.2474329015E-01   -8.2304628418E-01   -8.2135624743E-01
   -8.1967313706E-01   -8.1799691059E-01   -8.1632752586E-01   -8.1466494107E-01
   -8.1300911476E-01   -8.1136000581E-01   -8.0971757341E-01   -8.0808177711E-01
   -8.0645257677E-01   -8.0482993256E-01   -8.0321380501E-01   -8.0160415492E-01
   -8.0000094344E-01   -7.9840413201E-01   -7.9681368239E-01   -7.9522955662E-01
   -7.9365171707E-01   -7.9208012639E-01   -7.9051474754E-01   -7.8895554376E-01
   -7.8740247858E-01   -7.8585551583E-01   -7.8431461960E-01   -7.8277975428E-01
   -7.8125088453E-01   -7.7972797529E-01   -7.7821099177E-01   -7.7669989946E-01
   -7.7519466409E-01   -7.7369525170E-01   -7.7220162854E-01   -7.7071376117E-01
   -7.6923161636E-01   -7.6775516118E-01   -7.6628436292E-01   -7.6481918913E-01
   -7.6335960761E-01   -7.6190558640E-01   -7.6045709380E-01   -7.5901409833E-01
   -7.5757656876E-01   -7.5614447409E-01   -7.5471778355E-01   -7.5329646662E-01
   -7.5188049299E-01   -7.5046983258E-01   -7.4906445556E-01   -7.4766433228E-01
   -7.4626943335E-01   -7.4487972958E-01   -7.4349519200E-01   -7.4211579186E-01
   -7.4074150061E-01   -7.3937228993E-01   -7.3800813168E-01   -7.3664899797E-01
   -7.3529486108E-01   -7.3394569351E-01   -7.3260146794E-01   -7.3126215728E-01
   -7.2992773463E-01   -7.2859817326E-01   -7.2727344667E-01   -7.2595352853E-01
   -7.2463839270E-01   -7.2332801325E-01   -7.2202236442E-01   -7.2072142063E-01
   -7.1942515651E-01   -7.1813354683E-01   -7.1684656659E-01   -7.1556419094E-01
   -7.1428639520E-01   -7.1301315489E-01   -7.1174444569E-01   -7.1048024346E-01
   -7.0922052422E-01   -7.0796526417E-01   -7.0671443967E-01   -7.0546802725E-01
   -7.0422600362E-01   -7.0298834563E-01   -7.0175503031E-01   -7.0052603484E-01
   -6.9930133656E-01   -6.9808091297E-01   -6.9686474173E-01   -6.9565280067E-01
   -6.9444506774E-01   -6.9324152106E-01   -6.9204213891E-01   -6.9084689971E-01
   -6.8965578203E-01   -6.8846876459E-01   -6.8728582625E-01   -6.8610694602E-01
   -6.8493210307E-01   -6.8376127667E-01   -6.8259444628E-01   -6.8143159146E-01
   -6.8027269194E-01   -6.7911772757E-01   -6.7796667834E-01   -6.7681952437E-01
   -6.7567624593E-01   -6.7453682341E-01   -6.7340123734E-01   -6.7226946836E-01
   -6.7114149728E-01   -6.7001730500E-01   -6.6889687256E-01   -6.6778018115E-01
   -6.6666721204E-01   -6.6555794666E-01   -6.6445236656E-01   -6.6335045339E-01
   -6.6225218895E-01   -6.6115755514E-01   -6.6006653400E-01   -6.5897910765E-01
   -6.5789525837E-01   -6.5681496854E-01   -6.5573822065E-01   -6.5466499731E-01
   -6.5359528123E-01   -6.5252905527E-01   -6.5146630236E-01   -6.5040700557E-01
   -6.4935114805E-01   -6.4829871310E-01   -6.4724968409E-01   -6.4620404452E-01
   -6.4516177798E-01   -6.4412286819E-01   -6.4308729895E-01   -6.4205505417E-01
   -6.4102611788E-01   -6.4000047419E-01   -6.3897810733E-01   -6.3795900161E-01
   -6.3694314145E-01   -6.3593051138E-01   -6.3492109602E-01   -6.3391488008E-01