He    ONCVPSP-4.0.1  r_core=   1.25160   1.13057
      2.0000      2.0000      250925    zatom,zion,pspd
     8   -1012   1     4   600     0    pspcod,pspxc,lmax,lloc,mmax,r2well
  5.99000000  0.00000000  0.00000000    rchrg fchrg qchrg
     2     1     0     0    nproj
     3     1           extension_switch
     2     0     0    nprojso
   0                        -3.4617607825667E+00 -7.5886654456690E-01
     1  0.0000000000000E+00  4.4248207320408E-09 -1.2550447403559E-08
     2  1.0000000000000E-02  1.0521718213691E-01 -4.0852668569561E-02
     3  2.0000000000000E-02  2.1009123853197E-01 -8.1418672158661E-02
     4  3.0000000000000E-02  3.1427951383268E-01 -1.2141039755584E-01
     5  4.0000000000000E-02  4.1744032527004E-01 -1.6053843147608E-01
     6  5.0000000000000E-02  5.1923352726698E-01 -1.9851089810321E-01
     7  6.0000000000000E-02  6.1932116671676E-01 -2.3503307233426E-01
     8  7.0000000000000E-02  7.1736825374505E-01 -2.6980734527767E-01
     9  8.0000000000000E-02  8.1304366834489E-01 -3.0253360600709E-01
    10  9.0000000000000E-02  9.0602121799987E-01 -3.3291008862001E-01
    11  1.0000000000000E-01  9.9598085544984E-01 -3.6063471675453E-01
    12  1.1000000000000E-01  1.0826100592867E+00 -3.8540695940003E-01
    13  1.2000000000000E-01  1.1656053732941E+00 -4.0693019266336E-01
    14  1.3000000000000E-01  1.2446740935762E+00 -4.2491454271872E-01
    15  1.4000000000000E-01  1.3195360857646E+00 -4.3908016608567E-01
    16  1.5000000000000E-01  1.3899257081723E+00 -4.4916090524801E-01
    17  1.6000000000000E-01  1.4555938108719E+00 -4.5490824102769E-01
    18  1.7000000000000E-01  1.5163097755134E+00 -4.5609544860128E-01
    19  1.8000000000000E-01  1.5718635564280E+00 -4.5252185207465E-01
    20  1.9000000000000E-01  1.6220676803438E+00 -4.4401706352657E-01
    21  2.0000000000000E-01  1.6667591599779E+00 -4.3044508672113E-01
    22  2.1000000000000E-01  1.7058012759561E+00 -4.1170816350711E-01
    23  2.2000000000000E-01  1.7390851819991E+00 -3.8775024239988E-01
    24  2.3000000000000E-01  1.7665312901081E+00 -3.5855995400605E-01
    25  2.4000000000000E-01  1.7880903955693E+00 -3.2417298671720E-01
    26  2.5000000000000E-01  1.8037445059041E+00 -2.8467376827959E-01
    27  2.6000000000000E-01  1.8135073433272E+00 -2.4019637414699E-01
    28  2.7000000000000E-01  1.8174244967069E+00 -1.9092460155699E-01
    29  2.8000000000000E-01  1.8155732062857E+00 -1.3709116856411E-01
    30  2.9000000000000E-01  1.8080617723304E+00 -7.8976019269990E-02
    31  3.0000000000000E-01  1.7950285872284E+00 -1.6903739608919E-02
    32  3.1000000000000E-01  1.7766407991106E+00  4.8759888369298E-02
    33  3.2000000000000E-01  1.7530926236229E+00  1.1761214239395E-01
    34  3.3000000000000E-01  1.7246033287583E+00  1.8921835221058E-01
    35  3.4000000000000E-01  1.6914149254646E+00  2.6311753334802E-01
    36  3.5000000000000E-01  1.6537896038412E+00  3.3882854877719E-01
    37  3.6000000000000E-01  1.6120069609239E+00  4.1585666872754E-01
    38  3.7000000000000E-01  1.5663610711538E+00  4.9370038605983E-01
    39  3.8000000000000E-01  1.5171574544741E+00  5.7185833537775E-01
    40  3.9000000000000E-01  1.4647099994866E+00  6.4983615881960E-01
    41  4.0000000000000E-01  1.4093379001309E+00  7.2715316041887E-01
    42  4.1000000000000E-01  1.3513626638910E+00  8.0334859416358E-01
    43  4.2000000000000E-01  1.2911052475690E+00  8.7798743839947E-01
    44  4.3000000000000E-01  1.2288833732440E+00  9.5066552087614E-01
    45  4.4000000000000E-01  1.1650090722207E+00  1.0210138742707E+00
    46  4.5000000000000E-01  1.0997864986904E+00  1.0887022210745E+00
    47  4.6000000000000E-01  1.0335100476294E+00  1.1534415088252E+00
    48  4.7000000000000E-01  9.6646280333009E-01  1.2149854412377E+00
    49  4.8000000000000E-01  8.9891533610828E-01  1.2731309772080E+00
    50  4.9000000000000E-01  8.3112485539892E-01  1.3277177972096E+00
    51  5.0000000000000E-01  7.6333471788537E-01  1.3786267645513E+00
    52  5.1000000000000E-01  6.9577427976861E-01  1.4257774365345E+00
    53  5.2000000000000E-01  6.2865907303391E-01  1.4691247069753E+00
    54  5.3000000000000E-01  5.6219127687060E-01  1.5086546860953E+00
    55  5.4000000000000E-01  4.9656044749108E-01  1.5443799457222E+00
    56  5.5000000000000E-01  4.3194446270407E-01  1.5763342764324E+00
    57  5.6000000000000E-01  3.6851063192560E-01  1.6045671181431E+00
    58  5.7000000000000E-01  3.0641691802735E-01  1.6291378362528E+00
    59  5.8000000000000E-01  2.4581321466055E-01  1.6501100213658E+00
    60  5.9000000000000E-01  1.8684262154639E-01  1.6675459916914E+00
    61  6.0000000000000E-01  1.2964266073968E-01  1.6815016732602E+00
    62  6.1000000000000E-01  7.4346379057133E-02  1.6920220241824E+00
    63  6.2000000000000E-01  2.1083285671334E-02  1.6991371554435E+00
    64  6.3000000000000E-01 -3.0019920779734E-02  1.7028592824917E+00
    65  6.4000000000000E-01 -7.8838874461077E-02  1.7031806195373E+00
    66  6.5000000000000E-01 -1.2525134488697E-01  1.7000723026095E+00
    67  6.6000000000000E-01 -1.6913734162254E-01  1.6934843986339E+00
    68  6.7000000000000E-01 -2.1037953320530E-01  1.6833470268621E+00
    69  6.8000000000000E-01 -2.4886398201175E-01  1.6695725866916E+00
    70  6.9000000000000E-01 -2.8448118621094E-01  1.6520590531346E+00
    71  7.0000000000000E-01 -3.1712740941140E-01  1.6306942688068E+00
    72  7.1000000000000E-01 -3.4670626841854E-01  1.6053611302057E+00
    73  7.2000000000000E-01 -3.7313053996421E-01  1.5759435371031E+00
    74  7.3000000000000E-01 -3.9632413863127E-01  1.5423329479216E+00
    75  7.4000000000000E-01 -4.1622421072654E-01  1.5044353617569E+00
    76  7.5000000000000E-01 -4.3278328279018E-01  1.4621785299247E+00
    77  7.6000000000000E-01 -4.4597139896027E-01  1.4155191871270E+00
    78  7.7000000000000E-01 -4.5577817869677E-01  1.3644500849880E+00
    79  7.8000000000000E-01 -4.6221472551731E-01  1.3090066091101E+00
    80  7.9000000000000E-01 -4.6531531847437E-01  1.2492727651267E+00
    81  8.0000000000000E-01 -4.6513882111756E-01  1.1853863294572E+00
    82  8.1000000000000E-01 -4.6176974759968E-01  1.1175429764881E+00
    83  8.2000000000000E-01 -4.5531893230703E-01  1.0459992153825E+00
    84  8.3000000000000E-01 -4.4592375778504E-01  9.7107399621929E-01
    85  8.4000000000000E-01 -4.3374790559961E-01  8.9314887609735E-01
    86  8.5000000000000E-01 -4.1898060589559E-01  8.1266667047697E-01
    87  8.6000000000000E-01 -4.0183537351792E-01  7.3012855256367E-01
    88  8.7000000000000E-01 -3.8254823135314E-01  6.4608960304046E-01
    89  8.8000000000000E-01 -3.6137543470797E-01  5.6115285295186E-01
    90  8.9000000000000E-01 -3.3859072373407E-01  4.7596190300940E-01
    91  9.0000000000000E-01 -3.1448214379219E-01  3.9119224198904E-01
    92  9.1000000000000E-01 -2.8934848588648E-01  3.0754142419660E-01
    93  9.2000000000000E-01 -2.6349541056283E-01  2.2571830019657E-01
    94  9.3000000000000E-01 -2.3723132864839E-01  1.4643152521131E-01
    95  9.4000000000000E-01 -2.1086312063037E-01  7.0377594953677E-02
    96  9.5000000000000E-01 -1.8469178309062E-01 -1.7713215639175E-03
    97  9.6000000000000E-01 -1.5900809522448E-01 -6.9379469100884E-02
    98  9.7000000000000E-01 -1.3408840092632E-01 -1.3185922302529E-01
    99  9.8000000000000E-01 -1.1019060211956E-01 -1.8868214574639E-01
   100  9.9000000000000E-01 -8.7550456920320E-02 -2.3938909947034E-01
   101  1.0000000000000E+00 -6.6378270761960E-02 -2.8359915056507E-01
   102  1.0100000000000E+00 -4.6856044888602E-02 -3.2101709526228E-01
   103  1.0200000000000E+00 -2.9134397513191E-02 -3.5144261622695E-01
   104  1.0300000000000E+00 -1.3329196763425E-02 -3.7478117188980E-01
   105  1.0400000000000E+00  4.8013685243814E-04 -3.9104826412853E-01
   106  1.0500000000000E+00  1.2251338724610E-02 -4.0037029467605E-01
   107  1.0600000000000E+00  2.1979294269674E-02 -4.0298325959290E-01
   108  1.0700000000000E+00  2.9695312333918E-02 -3.9922926739124E-01
   109  1.0800000000000E+00  3.5465686922290E-02 -3.8955091369075E-01
   110  1.0900000000000E+00  3.9389572115790E-02 -3.7448359350021E-01
   111  1.1000000000000E+00  4.1596210589019E-02 -3.5464587966514E-01
   112  1.1100000000000E+00  4.2241570923030E-02 -3.3072814104535E-01
   113  1.1200000000000E+00  4.1504462558121E-02 -3.0347961549519E-01
   114  1.1300000000000E+00  3.9582209484824E-02 -2.7369418991673E-01
   115  1.1400000000000E+00  3.6685974222271E-02 -2.4219517131020E-01
   116  1.1500000000000E+00  3.3035832131635E-02 -2.0981935840242E-01
   117  1.1600000000000E+00  2.8855702335132E-02 -1.7740074211682E-01
   118  1.1700000000000E+00  2.4368244690994E-02 -1.4575417337702E-01
   119  1.1800000000000E+00  1.9789840598485E-02 -1.1565935376392E-01
   120  1.1900000000000E+00  1.5325804190468E-02 -8.7845543654348E-02
   121  1.2000000000000E+00  1.1167987134725E-02 -6.2981204305463E-02
   122  1.2100000000000E+00  7.4866725437270E-03 -4.1653935014424E-02
   123  1.2200000000000E+00  4.4265681475583E-03 -2.4357719439704E-02
   124  1.2300000000000E+00  2.1061835146371E-03 -1.1488020250942E-02
   125  1.2400000000000E+00  6.1130656705052E-04 -3.3121550404769E-03
   126  1.2500000000000E+00  2.2117545691806E-05 -1.1919494480017E-04
   127  1.2600000000000E+00  1.7318504849149E-06 -9.3370800108608E-06
   128  1.2700000000000E+00 -6.7057508261945E-07  3.6250817519435E-06
   129  1.28  0.  0.
   130  1.29  0.  0.
   131  1.30  0.  0.
   132  1.31  0.  0.
   133  1.32  0.  0.
   134  1.33  0.  0.
   135  1.34  0.  0.
   136  1.35  0.  0.
   137  1.36  0.  0.
   138  1.37  0.  0.
   139  1.38  0.  0.
   140  1.39  0.  0.
   141  1.40  0.  0.
   142  1.41  0.  0.
   143  1.42  0.  0.
   144  1.43  0.  0.
   145  1.44  0.  0.
   146  1.45  0.  0.
   147  1.46  0.  0.
   148  1.47  0.  0.
   149  1.48  0.  0.
   150  1.49  0.  0.
   151  1.50  0.  0.
   152  1.51  0.  0.
   153  1.52  0.  0.
   154  1.53  0.  0.
   155  1.54  0.  0.
   156  1.55  0.  0.
   157  1.56  0.  0.
   158  1.57  0.  0.
   159  1.58  0.  0.
   160  1.59  0.  0.
   161  1.60  0.  0.
   162  1.61  0.  0.
   163  1.62  0.  0.
   164  1.63  0.  0.
   165  1.64  0.  0.
   166  1.65  0.  0.
   167  1.66  0.  0.
   168  1.67  0.  0.
   169  1.68  0.  0.
   170  1.69  0.  0.
   171  1.70  0.  0.
   172  1.71  0.  0.
   173  1.72  0.  0.
   174  1.73  0.  0.
   175  1.74  0.  0.
   176  1.75  0.  0.
   177  1.76  0.  0.
   178  1.77  0.  0.
   179  1.78  0.  0.
   180  1.79  0.  0.
   181  1.80  0.  0.
   182  1.81  0.  0.
   183  1.82  0.  0.
   184  1.83  0.  0.
   185  1.84  0.  0.
   186  1.85  0.  0.
   187  1.86  0.  0.
   188  1.87  0.  0.
   189  1.88  0.  0.
   190  1.89  0.  0.
   191  1.90  0.  0.
   192  1.91  0.  0.
   193  1.92  0.  0.
   194  1.93  0.  0.
   195  1.94  0.  0.
   196  1.95  0.  0.
   197  1.96  0.  0.
   198  1.97  0.  0.
   199  1.98  0.  0.
   200  1.99  0.  0.
   201  2.00  0.  0.
   202  2.01  0.  0.
   203  2.02  0.  0.
   204  2.03  0.  0.
   205  2.04  0.  0.
   206  2.05  0.  0.
   207  2.06  0.  0.
   208  2.07  0.  0.
   209  2.08  0.  0.
   210  2.09  0.  0.
   211  2.10  0.  0.
   212  2.11  0.  0.
   213  2.12  0.  0.
   214  2.13  0.  0.
   215  2.14  0.  0.
   216  2.15  0.  0.
   217  2.16  0.  0.
   218  2.17  0.  0.
   219  2.18  0.  0.
   220  2.19  0.  0.
   221  2.20  0.  0.
   222  2.21  0.  0.
   223  2.22  0.  0.
   224  2.23  0.  0.
   225  2.24  0.  0.
   226  2.25  0.  0.
   227  2.26  0.  0.
   228  2.27  0.  0.
   229  2.28  0.  0.
   230  2.29  0.  0.
   231  2.30  0.  0.
   232  2.31  0.  0.
   233  2.32  0.  0.
   234  2.33  0.  0.
   235  2.34  0.  0.
   236  2.35  0.  0.
   237  2.36  0.  0.
   238  2.37  0.  0.
   239  2.38  0.  0.
   240  2.39  0.  0.
   241  2.40  0.  0.
   242  2.41  0.  0.
   243  2.42  0.  0.
   244  2.43  0.  0.
   245  2.44  0.  0.
   246  2.45  0.  0.
   247  2.46  0.  0.
   248  2.47  0.  0.
   249  2.48  0.  0.
   250  2.49  0.  0.
   251  2.50  0.  0.
   252  2.51  0.  0.
   253  2.52  0.  0.
   254  2.53  0.  0.
   255  2.54  0.  0.
   256  2.55  0.  0.
   257  2.56  0.  0.
   258  2.57  0.  0.
   259  2.58  0.  0.
   260  2.59  0.  0.
   261  2.60  0.  0.
   262  2.61  0.  0.
   263  2.62  0.  0.
   264  2.63  0.  0.
   265  2.64  0.  0.
   266  2.65  0.  0.
   267  2.66  0.  0.
   268  2.67  0.  0.
   269  2.68  0.  0.
   270  2.69  0.  0.
   271  2.70  0.  0.
   272  2.71  0.  0.
   273  2.72  0.  0.
   274  2.73  0.  0.
   275  2.74  0.  0.
   276  2.75  0.  0.
   277  2.76  0.  0.
   278  2.77  0.  0.
   279  2.78  0.  0.
   280  2.79  0.  0.
   281  2.80  0.  0.
   282  2.81  0.  0.
   283  2.82  0.  0.
   284  2.83  0.  0.
   285  2.84  0.  0.
   286  2.85  0.  0.
   287  2.86  0.  0.
   288  2.87  0.  0.
   289  2.88  0.  0.
   290  2.89  0.  0.
   291  2.90  0.  0.
   292  2.91  0.  0.
   293  2.92  0.  0.
   294  2.93  0.  0.
   295  2.94  0.  0.
   296  2.95  0.  0.
   297  2.96  0.  0.
   298  2.97  0.  0.
   299  2.98  0.  0.
   300  2.99  0.  0.
   301  3.00  0.  0.
   302  3.01  0.  0.
   303  3.02  0.  0.
   304  3.03  0.  0.
   305  3.04  0.  0.
   306  3.05  0.  0.
   307  3.06  0.  0.
   308  3.07  0.  0.
   309  3.08  0.  0.
   310  3.09  0.  0.
   311  3.10  0.  0.
   312  3.11  0.  0.
   313  3.12  0.  0.
   314  3.13  0.  0.
   315  3.14  0.  0.
   316  3.15  0.  0.
   317  3.16  0.  0.
   318  3.17  0.  0.
   319  3.18  0.  0.
   320  3.19  0.  0.
   321  3.20  0.  0.
   322  3.21  0.  0.
   323  3.22  0.  0.
   324  3.23  0.  0.
   325  3.24  0.  0.
   326  3.25  0.  0.
   327  3.26  0.  0.
   328  3.27  0.  0.
   329  3.28  0.  0.
   330  3.29  0.  0.
   331  3.30  0.  0.
   332  3.31  0.  0.
   333  3.32  0.  0.
   334  3.33  0.  0.
   335  3.34  0.  0.
   336  3.35  0.  0.
   337  3.36  0.  0.
   338  3.37  0.  0.
   339  3.38  0.  0.
   340  3.39  0.  0.
   341  3.40  0.  0.
   342  3.41  0.  0.
   343  3.42  0.  0.
   344  3.43  0.  0.
   345  3.44  0.  0.
   346  3.45  0.  0.
   347  3.46  0.  0.
   348  3.47  0.  0.
   349  3.48  0.  0.
   350  3.49  0.  0.
   351  3.50  0.  0.
   352  3.51  0.  0.
   353  3.52  0.  0.
   354  3.53  0.  0.
   355  3.54  0.  0.
   356  3.55  0.  0.
   357  3.56  0.  0.
   358  3.57  0.  0.
   359  3.58  0.  0.
   360  3.59  0.  0.
   361  3.60  0.  0.
   362  3.61  0.  0.
   363  3.62  0.  0.
   364  3.63  0.  0.
   365  3.64  0.  0.
   366  3.65  0.  0.
   367  3.66  0.  0.
   368  3.67  0.  0.
   369  3.68  0.  0.
   370  3.69  0.  0.
   371  3.70  0.  0.
   372  3.71  0.  0.
   373  3.72  0.  0.
   374  3.73  0.  0.
   375  3.74  0.  0.
   376  3.75  0.  0.
   377  3.76  0.  0.
   378  3.77  0.  0.
   379  3.78  0.  0.
   380  3.79  0.  0.
   381  3.80  0.  0.
   382  3.81  0.  0.
   383  3.82  0.  0.
   384  3.83  0.  0.
   385  3.84  0.  0.
   386  3.85  0.  0.
   387  3.86  0.  0.
   388  3.87  0.  0.
   389  3.88  0.  0.
   390  3.89  0.  0.
   391  3.90  0.  0.
   392  3.91  0.  0.
   393  3.92  0.  0.
   394  3.93  0.  0.
   395  3.94  0.  0.
   396  3.95  0.  0.
   397  3.96  0.  0.
   398  3.97  0.  0.
   399  3.98  0.  0.
   400  3.99  0.  0.
   401  4.00  0.  0.
   402  4.01  0.  0.
   403  4.02  0.  0.
   404  4.03  0.  0.
   405  4.04  0.  0.
   406  4.05  0.  0.
   407  4.06  0.  0.
   408  4.07  0.  0.
   409  4.08  0.  0.
   410  4.09  0.  0.
   411  4.10  0.  0.
   412  4.11  0.  0.
   413  4.12  0.  0.
   414  4.13  0.  0.
   415  4.14  0.  0.
   416  4.15  0.  0.
   417  4.16  0.  0.
   418  4.17  0.  0.
   419  4.18  0.  0.
   420  4.19  0.  0.
   421  4.20  0.  0.
   422  4.21  0.  0.
   423  4.22  0.  0.
   424  4.23  0.  0.
   425  4.24  0.  0.
   426  4.25  0.  0.
   427  4.26  0.  0.
   428  4.27  0.  0.
   429  4.28  0.  0.
   430  4.29  0.  0.
   431  4.30  0.  0.
   432  4.31  0.  0.
   433  4.32  0.  0.
   434  4.33  0.  0.
   435  4.34  0.  0.
   436  4.35  0.  0.
   437  4.36  0.  0.
   438  4.37  0.  0.
   439  4.38  0.  0.
   440  4.39  0.  0.
   441  4.40  0.  0.
   442  4.41  0.  0.
   443  4.42  0.  0.
   444  4.43  0.  0.
   445  4.44  0.  0.
   446  4.45  0.  0.
   447  4.46  0.  0.
   448  4.47  0.  0.
   449  4.48  0.  0.
   450  4.49  0.  0.
   451  4.50  0.  0.
   452  4.51  0.  0.
   453  4.52  0.  0.
   454  4.53  0.  0.
   455  4.54  0.  0.
   456  4.55  0.  0.
   457  4.56  0.  0.
   458  4.57  0.  0.
   459  4.58  0.  0.
   460  4.59  0.  0.
   461  4.60  0.  0.
   462  4.61  0.  0.
   463  4.62  0.  0.
   464  4.63  0.  0.
   465  4.64  0.  0.
   466  4.65  0.  0.
   467  4.66  0.  0.
   468  4.67  0.  0.
   469  4.68  0.  0.
   470  4.69  0.  0.
   471  4.70  0.  0.
   472  4.71  0.  0.
   473  4.72  0.  0.
   474  4.73  0.  0.
   475  4.74  0.  0.
   476  4.75  0.  0.
   477  4.76  0.  0.
   478  4.77  0.  0.
   479  4.78  0.  0.
   480  4.79  0.  0.
   481  4.80  0.  0.
   482  4.81  0.  0.
   483  4.82  0.  0.
   484  4.83  0.  0.
   485  4.84  0.  0.
   486  4.85  0.  0.
   487  4.86  0.  0.
   488  4.87  0.  0.
   489  4.88  0.  0.
   490  4.89  0.  0.
   491  4.90  0.  0.
   492  4.91  0.  0.
   493  4.92  0.  0.
   494  4.93  0.  0.
   495  4.94  0.  0.
   496  4.95  0.  0.
   497  4.96  0.  0.
   498  4.97  0.  0.
   499  4.98  0.  0.
   500  4.99  0.  0.
   501  5.00  0.  0.
   502  5.01  0.  0.
   503  5.02  0.  0.
   504  5.03  0.  0.
   505  5.04  0.  0.
   506  5.05  0.  0.
   507  5.06  0.  0.
   508  5.07  0.  0.
   509  5.08  0.  0.
   510  5.09  0.  0.
   511  5.10  0.  0.
   512  5.11  0.  0.
   513  5.12  0.  0.
   514  5.13  0.  0.
   515  5.14  0.  0.
   516  5.15  0.  0.
   517  5.16  0.  0.
   518  5.17  0.  0.
   519  5.18  0.  0.
   520  5.19  0.  0.
   521  5.20  0.  0.
   522  5.21  0.  0.
   523  5.22  0.  0.
   524  5.23  0.  0.
   525  5.24  0.  0.
   526  5.25  0.  0.
   527  5.26  0.  0.
   528  5.27  0.  0.
   529  5.28  0.  0.
   530  5.29  0.  0.
   531  5.30  0.  0.
   532  5.31  0.  0.
   533  5.32  0.  0.
   534  5.33  0.  0.
   535  5.34  0.  0.
   536  5.35  0.  0.
   537  5.36  0.  0.
   538  5.37  0.  0.
   539  5.38  0.  0.
   540  5.39  0.  0.
   541  5.40  0.  0.
   542  5.41  0.  0.
   543  5.42  0.  0.
   544  5.43  0.  0.
   545  5.44  0.  0.
   546  5.45  0.  0.
   547  5.46  0.  0.
   548  5.47  0.  0.
   549  5.48  0.  0.
   550  5.49  0.  0.
   551  5.50  0.  0.
   552  5.51  0.  0.
   553  5.52  0.  0.
   554  5.53  0.  0.
   555  5.54  0.  0.
   556  5.55  0.  0.
   557  5.56  0.  0.
   558  5.57  0.  0.
   559  5.58  0.  0.
   560  5.59  0.  0.
   561  5.60  0.  0.
   562  5.61  0.  0.
   563  5.62  0.  0.
   564  5.63  0.  0.
   565  5.64  0.  0.
   566  5.65  0.  0.
   567  5.66  0.  0.
   568  5.67  0.  0.
   569  5.68  0.  0.
   570  5.69  0.  0.
   571  5.70  0.  0.
   572  5.71  0.  0.
   573  5.72  0.  0.
   574  5.73  0.  0.
   575  5.74  0.  0.
   576  5.75  0.  0.
   577  5.76  0.  0.
   578  5.77  0.  0.
   579  5.78  0.  0.
   580  5.79  0.  0.
   581  5.80  0.  0.
   582  5.81  0.  0.
   583  5.82  0.  0.
   584  5.83  0.  0.
   585  5.84  0.  0.
   586  5.85  0.  0.
   587  5.86  0.  0.
   588  5.87  0.  0.
   589  5.88  0.  0.
   590  5.89  0.  0.
   591  5.90  0.  0.
   592  5.91  0.  0.
   593  5.92  0.  0.
   594  5.93  0.  0.
   595  5.94  0.  0.
   596  5.95  0.  0.
   597  5.96  0.  0.
   598  5.97  0.  0.
   599  5.98  0.  0.
   600  5.99  0.  0.
   1                        -6.9593816714373E-01
     1  0.0000000000000E+00  5.3972221414345E-09
     2  1.0000000000000E-02  2.4422884820745E-03
     3  2.0000000000000E-02  9.7516112010271E-03
     4  3.0000000000000E-02  2.1875536314184E-02
     5  4.0000000000000E-02  3.8727328723914E-02
     6  5.0000000000000E-02  6.0186916046661E-02
     7  6.0000000000000E-02  8.6102219197584E-02
     8  7.0000000000000E-02  1.1629082630506E-01
     9  8.0000000000000E-02  1.5054198327211E-01
    10  9.0000000000000E-02  1.8861886939942E-01
    11  1.0000000000000E-01  2.3026112216827E-01
    12  1.1000000000000E-01  2.7518757162866E-01
    13  1.2000000000000E-01  3.2309914191691E-01
    14  1.3000000000000E-01  3.7368187528818E-01
    15  1.4000000000000E-01  4.2661003273063E-01
    16  1.5000000000000E-01  4.8154922475159E-01
    17  1.6000000000000E-01  5.3815952629572E-01
    18  1.7000000000000E-01  5.9609853096116E-01
    19  1.8000000000000E-01  6.5502430169424E-01
    20  1.9000000000000E-01  7.1459817792384E-01
    21  2.0000000000000E-01  7.7448740258560E-01
    22  2.1000000000000E-01  8.3436753661306E-01
    23  2.2000000000000E-01  8.9392463315371E-01
    24  2.3000000000000E-01  9.5285714890896E-01
    25  2.4000000000000E-01  1.0108775754960E+00
    26  2.5000000000000E-01  1.0677137794756E+00
    27  2.6000000000000E-01  1.1231100455696E+00
    28  2.7000000000000E-01  1.1768278234886E+00
    29  2.8000000000000E-01  1.2286461845852E+00
    30  2.9000000000000E-01  1.2783620001295E+00
    31  3.0000000000000E-01  1.3257898582550E+00
    32  3.1000000000000E-01  1.3707617414506E+00
    33  3.2000000000000E-01  1.4131264907666E+00
    34  3.3000000000000E-01  1.4527490865933E+00
    35  3.4000000000000E-01  1.4895097788718E+00
    36  3.5000000000000E-01  1.5233031018542E+00
    37  3.6000000000000E-01  1.5540368100045E+00
    38  3.7000000000000E-01  1.5816307722848E+00
    39  3.8000000000000E-01  1.6060158618988E+00
    40  3.9000000000000E-01  1.6271328775674E+00
    41  4.0000000000000E-01  1.6449315306112E+00
    42  4.1000000000000E-01  1.6593695295497E+00
    43  4.2000000000000E-01  1.6704117906507E+00
    44  4.3000000000000E-01  1.6780297989414E+00
    45  4.4000000000000E-01  1.6822011397116E+00
    46  4.5000000000000E-01  1.6829092155866E+00
    47  4.6000000000000E-01  1.6801431589300E+00
    48  4.7000000000000E-01  1.6738979437653E+00
    49  4.8000000000000E-01  1.6641746957009E+00
    50  4.9000000000000E-01  1.6509811926160E+00
    51  5.0000000000000E-01  1.6343325432561E+00
    52  5.1000000000000E-01  1.6142520254992E+00
    53  5.2000000000000E-01  1.5907720610175E+00
    54  5.3000000000000E-01  1.5639352984805E+00
    55  5.4000000000000E-01  1.5337957734332E+00
    56  5.5000000000000E-01  1.5004201096226E+00
    57  5.6000000000000E-01  1.4638887239273E+00
    58  5.7000000000000E-01  1.4242969952322E+00
    59  5.8000000000000E-01  1.3817563566318E+00
    60  5.9000000000000E-01  1.3363952702817E+00
    61  6.0000000000000E-01  1.2883600450658E+00
    62  6.1000000000000E-01  1.2378154590006E+00
    63  6.2000000000000E-01  1.1849451509476E+00
    64  6.3000000000000E-01  1.1299517497069E+00
    65  6.4000000000000E-01  1.0730567128666E+00
    66  6.5000000000000E-01  1.0144998528206E+00
    67  6.6000000000000E-01  9.5453853303823E-01
    68  6.7000000000000E-01  8.9344652389467E-01
    69  6.8000000000000E-01  8.3151251401927E-01
    70  6.9000000000000E-01  7.6903828007868E-01
    71  7.0000000000000E-01  7.0633652504863E-01
    72  7.1000000000000E-01  6.4372840220522E-01
    73  7.2000000000000E-01  5.8154074914737E-01
    74  7.3000000000000E-01  5.2010306300423E-01
    75  7.4000000000000E-01  4.5974425445012E-01
    76  7.5000000000000E-01  4.0078922411216E-01
    77  7.6000000000000E-01  3.4355531028689E-01
    78  7.7000000000000E-01  2.8834866146913E-01
    79  7.8000000000000E-01  2.3546059093583E-01
    80  7.9000000000000E-01  1.8516397343233E-01
    81  8.0000000000000E-01  1.3770974580740E-01
    82  8.1000000000000E-01  9.3323574182669E-02
    83  8.2000000000000E-01  5.2202749886922E-02
    84  8.3000000000000E-01  1.4513374921960E-02
    85  8.4000000000000E-01 -1.9612104840320E-02
    86  8.5000000000000E-01 -5.0076964174392E-02
    87  8.6000000000000E-01 -7.6821810850759E-02
    88  8.7000000000000E-01 -9.9825701578397E-02
    89  8.8000000000000E-01 -1.1910672382001E-01
    90  8.9000000000000E-01 -1.3472201305931E-01
    91  9.0000000000000E-01 -1.4676718306035E-01
    92  9.1000000000000E-01 -1.5537515515206E-01
    93  9.2000000000000E-01 -1.6071438145184E-01
    94  9.3000000000000E-01 -1.6298646606478E-01
    95  9.4000000000000E-01 -1.6242319749888E-01
    96  9.5000000000000E-01 -1.5928301466523E-01
    97  9.6000000000000E-01 -1.5384693772427E-01
    98  9.7000000000000E-01 -1.4641400353882E-01
    99  9.8000000000000E-01 -1.3729625344912E-01
   100  9.9000000000000E-01 -1.2681332824335E-01
   101  1.0000000000000E+00 -1.1528673723705E-01
   102  1.0100000000000E+00 -1.0303396378287E-01
   103  1.0200000000000E+00 -9.0366405488743E-02
   104  1.0300000000000E+00 -7.7591494995032E-02
   105  1.0400000000000E+00 -6.5009075968755E-02
   106  1.0500000000000E+00 -5.2906233368761E-02
   107  1.0600000000000E+00 -4.1552276775426E-02
   108  1.0700000000000E+00 -3.1193863151327E-02
   109  1.0800000000000E+00 -2.2056549939093E-02
   110  1.0900000000000E+00 -1.4345672610819E-02
   111  1.1000000000000E+00 -8.2006468225481E-03
   112  1.1100000000000E+00 -3.7243655746048E-03
   113  1.1200000000000E+00 -9.7770509236205E-04
   114  1.1300000000000E+00 -1.1211289678847E-05
   115  1.1400000000000E+00 -5.8367175970167E-06
   116  1.1500000000000E+00  4.5456185123065E-07
   117  1.16  0.
   118  1.17  0.
   119  1.18  0.
   120  1.19  0.
   121  1.20  0.
   122  1.21  0.
   123  1.22  0.
   124  1.23  0.
   125  1.24  0.
   126  1.25  0.
   127  1.26  0.
   128  1.27  0.
   129  1.28  0.
   130  1.29  0.
   131  1.30  0.
   132  1.31  0.
   133  1.32  0.
   134  1.33  0.
   135  1.34  0.
   136  1.35  0.
   137  1.36  0.
   138  1.37  0.
   139  1.38  0.
   140  1.39  0.
   141  1.40  0.
   142  1.41  0.
   143  1.42  0.
   144  1.43  0.
   145  1.44  0.
   146  1.45  0.
   147  1.46  0.
   148  1.47  0.
   149  1.48  0.
   150  1.49  0.
   151  1.50  0.
   152  1.51  0.
   153  1.52  0.
   154  1.53  0.
   155  1.54  0.
   156  1.55  0.
   157  1.56  0.
   158  1.57  0.
   159  1.58  0.
   160  1.59  0.
   161  1.60  0.
   162  1.61  0.
   163  1.62  0.
   164  1.63  0.
   165  1.64  0.
   166  1.65  0.
   167  1.66  0.
   168  1.67  0.
   169  1.68  0.
   170  1.69  0.
   171  1.70  0.
   172  1.71  0.
   173  1.72  0.
   174  1.73  0.
   175  1.74  0.
   176  1.75  0.
   177  1.76  0.
   178  1.77  0.
   179  1.78  0.
   180  1.79  0.
   181  1.80  0.
   182  1.81  0.
   183  1.82  0.
   184  1.83  0.
   185  1.84  0.
   186  1.85  0.
   187  1.86  0.
   188  1.87  0.
   189  1.88  0.
   190  1.89  0.
   191  1.90  0.
   192  1.91  0.
   193  1.92  0.
   194  1.93  0.
   195  1.94  0.
   196  1.95  0.
   197  1.96  0.
   198  1.97  0.
   199  1.98  0.
   200  1.99  0.
   201  2.00  0.
   202  2.01  0.
   203  2.02  0.
   204  2.03  0.
   205  2.04  0.
   206  2.05  0.
   207  2.06  0.
   208  2.07  0.
   209  2.08  0.
   210  2.09  0.
   211  2.10  0.
   212  2.11  0.
   213  2.12  0.
   214  2.13  0.
   215  2.14  0.
   216  2.15  0.
   217  2.16  0.
   218  2.17  0.
   219  2.18  0.
   220  2.19  0.
   221  2.20  0.
   222  2.21  0.
   223  2.22  0.
   224  2.23  0.
   225  2.24  0.
   226  2.25  0.
   227  2.26  0.
   228  2.27  0.
   229  2.28  0.
   230  2.29  0.
   231  2.30  0.
   232  2.31  0.
   233  2.32  0.
   234  2.33  0.
   235  2.34  0.
   236  2.35  0.
   237  2.36  0.
   238  2.37  0.
   239  2.38  0.
   240  2.39  0.
   241  2.40  0.
   242  2.41  0.
   243  2.42  0.
   244  2.43  0.
   245  2.44  0.
   246  2.45  0.
   247  2.46  0.
   248  2.47  0.
   249  2.48  0.
   250  2.49  0.
   251  2.50  0.
   252  2.51  0.
   253  2.52  0.
   254  2.53  0.
   255  2.54  0.
   256  2.55  0.
   257  2.56  0.
   258  2.57  0.
   259  2.58  0.
   260  2.59  0.
   261  2.60  0.
   262  2.61  0.
   263  2.62  0.
   264  2.63  0.
   265  2.64  0.
   266  2.65  0.
   267  2.66  0.
   268  2.67  0.
   269  2.68  0.
   270  2.69  0.
   271  2.70  0.
   272  2.71  0.
   273  2.72  0.
   274  2.73  0.
   275  2.74  0.
   276  2.75  0.
   277  2.76  0.
   278  2.77  0.
   279  2.78  0.
   280  2.79  0.
   281  2.80  0.
   282  2.81  0.
   283  2.82  0.
   284  2.83  0.
   285  2.84  0.
   286  2.85  0.
   287  2.86  0.
   288  2.87  0.
   289  2.88  0.
   290  2.89  0.
   291  2.90  0.
   292  2.91  0.
   293  2.92  0.
   294  2.93  0.
   295  2.94  0.
   296  2.95  0.
   297  2.96  0.
   298  2.97  0.
   299  2.98  0.
   300  2.99  0.
   301  3.00  0.
   302  3.01  0.
   303  3.02  0.
   304  3.03  0.
   305  3.04  0.
   306  3.05  0.
   307  3.06  0.
   308  3.07  0.
   309  3.08  0.
   310  3.09  0.
   311  3.10  0.
   312  3.11  0.
   313  3.12  0.
   314  3.13  0.
   315  3.14  0.
   316  3.15  0.
   317  3.16  0.
   318  3.17  0.
   319  3.18  0.
   320  3.19  0.
   321  3.20  0.
   322  3.21  0.
   323  3.22  0.
   324  3.23  0.
   325  3.24  0.
   326  3.25  0.
   327  3.26  0.
   328  3.27  0.
   329  3.28  0.
   330  3.29  0.
   331  3.30  0.
   332  3.31  0.
   333  3.32  0.
   334  3.33  0.
   335  3.34  0.
   336  3.35  0.
   337  3.36  0.
   338  3.37  0.
   339  3.38  0.
   340  3.39  0.
   341  3.40  0.
   342  3.41  0.
   343  3.42  0.
   344  3.43  0.
   345  3.44  0.
   346  3.45  0.
   347  3.46  0.
   348  3.47  0.
   349  3.48  0.
   350  3.49  0.
   351  3.50  0.
   352  3.51  0.
   353  3.52  0.
   354  3.53  0.
   355  3.54  0.
   356  3.55  0.
   357  3.56  0.
   358  3.57  0.
   359  3.58  0.
   360  3.59  0.
   361  3.60  0.
   362  3.61  0.
   363  3.62  0.
   364  3.63  0.
   365  3.64  0.
   366  3.65  0.
   367  3.66  0.
   368  3.67  0.
   369  3.68  0.
   370  3.69  0.
   371  3.70  0.
   372  3.71  0.
   373  3.72  0.
   374  3.73  0.
   375  3.74  0.
   376  3.75  0.
   377  3.76  0.
   378  3.77  0.
   379  3.78  0.
   380  3.79  0.
   381  3.80  0.
   382  3.81  0.
   383  3.82  0.
   384  3.83  0.
   385  3.84  0.
   386  3.85  0.
   387  3.86  0.
   388  3.87  0.
   389  3.88  0.
   390  3.89  0.
   391  3.90  0.
   392  3.91  0.
   393  3.92  0.
   394  3.93  0.
   395  3.94  0.
   396  3.95  0.
   397  3.96  0.
   398  3.97  0.
   399  3.98  0.
   400  3.99  0.
   401  4.00  0.
   402  4.01  0.
   403  4.02  0.
   404  4.03  0.
   405  4.04  0.
   406  4.05  0.
   407  4.06  0.
   408  4.07  0.
   409  4.08  0.