Ne    ONCVPSP-4.0.1  r_core=   1.30478   1.70784
     10.0000      8.0000      231019    zatom,zion,pspd
     8       2   1     4   400     0    pspcod,pspxc,lmax,lloc,mmax,r2well
  3.99000000  0.00000000  0.00000000    rchrg fchrg qchrg
     2     2     0     0     0    nproj
     1     1           extension_switch
   0                         2.1655645596604E+00 -4.5357760994649E-01
     1  0.0000000000000E+00 -5.1949796686657E-09 -1.1342815575688E-09
     2  1.0000000000000E-02  9.8361353820563E-02  1.7552787822973E-02
     3  2.0000000000000E-02  1.9624934757701E-01  3.5119008272633E-02
     4  3.0000000000000E-02  2.9319538866338E-01  5.2712496082292E-02
     5  4.0000000000000E-02  3.8874034348890E-01  7.0347876701905E-02
     6  5.0000000000000E-02  4.8243907859227E-01  8.8040928212978E-02
     7  6.0000000000000E-02  5.7386477946600E-01  1.0580890394019E-01
     8  7.0000000000000E-02  6.6261297922445E-01  1.2367080402251E-01
     9  8.0000000000000E-02  7.4830523444411E-01  1.4164758534077E-01
    10  9.0000000000000E-02  8.3059239181991E-01  1.5976230057426E-01
    11  1.0000000000000E-01  9.0915739660303E-01  1.7804015874742E-01
    12  1.1000000000000E-01  9.8371760198025E-01  1.9650850139960E-01
    13  1.2000000000000E-01  1.0540265474756E+00  2.1519669042858E-01
    14  1.3000000000000E-01  1.1198751839383E+00  2.3413590568578E-01
    15  1.4000000000000E-01  1.1810925325566E+00  2.5335885249622E-01
    16  1.5000000000000E-01  1.2375457754244E+00  2.7289938139700E-01
    17  1.6000000000000E-01  1.2891397853060E+00  2.9279202449255E-01
    18  1.7000000000000E-01  1.3358161122025E+00  3.1307145486870E-01
    19  1.8000000000000E-01  1.3775514539533E+00  3.3377187745034E-01
    20  1.9000000000000E-01  1.4143556472165E+00  3.5492636148722E-01
    21  2.0000000000000E-01  1.4462692236074E+00  3.7656612647284E-01
    22  2.1000000000000E-01  1.4733605833777E+00  3.9871979470663E-01
    23  2.2000000000000E-01  1.4957228456432E+00  4.2141262486916E-01
    24  2.3000000000000E-01  1.5134704397042E+00  4.4466574186811E-01
    25  2.4000000000000E-01  1.5267355063375E+00  4.6849537880705E-01
    26  2.5000000000000E-01  1.5356641809926E+00  4.9291214721410E-01
    27  2.6000000000000E-01  1.5404128325462E+00  5.1792035163370E-01
    28  2.7000000000000E-01  1.5411443316150E+00  5.4351736432649E-01
    29  2.8000000000000E-01  1.5380244213929E+00  5.6969307514387E-01
    30  2.9000000000000E-01  1.5312182615839E+00  5.9642943065086E-01
    31  3.0000000000000E-01  1.5208872122769E+00  6.2370007528034E-01
    32  3.1000000000000E-01  1.5071859196332E+00  6.5147010573129E-01
    33  3.2000000000000E-01  1.4902597591057E+00  6.7969594800136E-01
    34  3.3000000000000E-01  1.4702426847004E+00  7.0832536439834E-01
    35  3.4000000000000E-01  1.4472555246494E+00  7.3729759564382E-01
    36  3.5000000000000E-01  1.4214047549452E+00  7.6654364080265E-01
    37  3.6000000000000E-01  1.3927817726368E+00  7.9598667528783E-01
    38  3.7000000000000E-01  1.3614626808027E+00  8.2554260464706E-01
    39  3.8000000000000E-01  1.3275085868566E+00  8.5512074928083E-01
    40  3.9000000000000E-01  1.2909664055153E+00  8.8462465272096E-01
    41  4.0000000000000E-01  1.2518701475426E+00  9.1395300366071E-01
    42  4.1000000000000E-01  1.2102426654764E+00  9.4300065961908E-01
    43  4.2000000000000E-01  1.1660978181306E+00  9.7165975798937E-01
    44  4.3000000000000E-01  1.1194430069167E+00  9.9982089830606E-01
    45  4.4000000000000E-01  1.0702820291175E+00  1.0273743779059E+00
    46  4.5000000000000E-01  1.0186181863241E+00  1.0542114617918E+00
    47  4.6000000000000E-01  9.6445758044340E-01  1.0802256664625E+00
    48  4.7000000000000E-01  9.0781252512268E-01  1.1053140367732E+00
    49  4.8000000000000E-01  8.4870499720575E-01  1.1293783945575E+00
    50  4.9000000000000E-01  7.8717005100531E-01  1.1523265377854E+00
    51  5.0000000000000E-01  7.2325911779484E-01  1.1740733694576E+00
    52  5.1000000000000E-01  6.5704311400633E-01  1.1945419362455E+00
    53  5.2000000000000E-01  5.8861528416222E-01  1.2136643580665E+00
    54  5.3000000000000E-01  5.1809370853744E-01  1.2313826313235E+00
    55  5.4000000000000E-01  4.4562341087807E-01  1.2476492904144E+00
    56  5.5000000000000E-01  3.7137800811477E-01  1.2624279142991E+00
    57  5.6000000000000E-01  2.9556085178958E-01  1.2756934673713E+00
    58  5.7000000000000E-01  2.1840561973521E-01  1.2874324665718E+00
    59  5.8000000000000E-01  1.4017632625448E-01  1.2976429695646E+00
    60  5.9000000000000E-01  6.1166729475571E-02  1.3063343818193E+00
    61  6.0000000000000E-01 -1.8300874475286E-02  1.3135270835560E+00
    62  6.1000000000000E-01 -9.7877469533294E-02  1.3192518806624E+00
    63  6.2000000000000E-01 -1.7718973758545E-01  1.3235492868183E+00
    64  6.3000000000000E-01 -2.5584305240398E-01  1.3264686471240E+00
    65  6.4000000000000E-01 -3.3342501471950E-01  1.3280671164506E+00
    66  6.5000000000000E-01 -4.0950948288908E-01  1.3284085084749E+00
    67  6.6000000000000E-01 -4.8366104364462E-01  1.3275620338670E+00
    68  6.7000000000000E-01 -5.5543985829430E-01  1.3256009483258E+00
    69  6.8000000000000E-01 -6.2440681166843E-01  1.3226011330528E+00
    70  6.9000000000000E-01 -6.9012888420570E-01  1.3186396317927E+00
    71  7.0000000000000E-01 -7.5218466200340E-01  1.3137931697061E+00
    72  7.1000000000000E-01 -8.1016989551967E-01  1.3081366800548E+00
    73  7.2000000000000E-01 -8.6370301500516E-01  1.3017418649576E+00
    74  7.3000000000000E-01 -9.1243050972115E-01  1.2946758162951E+00
    75  7.4000000000000E-01 -9.5603207860313E-01  1.2869997222130E+00
    76  7.5000000000000E-01 -9.9422546226310E-01  1.2787676835850E+00
    77  7.6000000000000E-01 -1.0267708700659E+00  1.2700256632803E+00
    78  7.7000000000000E-01 -1.0534749214152E+00  1.2608105891332E+00
    79  7.8000000000000E-01 -1.0741940272648E+00  1.2511496291875E+00
    80  7.9000000000000E-01 -1.0888371461243E+00  1.2410596550949E+00
    81  8.0000000000000E-01 -1.0973678583241E+00  1.2305469065494E+00
    82  8.1000000000000E-01 -1.0998057128919E+00  1.2196068663671E+00
    83  8.2000000000000E-01 -1.0962268128929E+00  1.2082243523411E+00
    84  8.3000000000000E-01 -1.0867636173109E+00  1.1963738283579E+00
    85  8.4000000000000E-01 -1.0716039502899E+00  1.1840199335256E+00
    86  8.5000000000000E-01 -1.0509892215979E+00  1.1711182242935E+00
    87  8.6000000000000E-01 -1.0252118752931E+00  1.1576161207997E+00
    88  8.7000000000000E-01 -9.9461209654376E-01  1.1434540450383E+00
    89  8.8000000000000E-01 -9.5957381914208E-01  1.1285667349469E+00
    90  8.9000000000000E-01 -9.2052008824887E-01  1.1128847152482E+00
    91  9.0000000000000E-01 -8.7790784408784E-01  1.0963359028857E+00
    92  9.1000000000000E-01 -8.3222220248125E-01  1.0788473222341E+00
    93  9.2000000000000E-01 -7.8397031709533E-01  1.0603469029897E+00
    94  9.3000000000000E-01 -7.3367491588226E-01  1.0407653317891E+00
    95  9.4000000000000E-01 -6.8186761032062E-01  1.0200379272142E+00
    96  9.5000000000000E-01 -6.2908208055378E-01  9.9810650694028E-01
    97  9.6000000000000E-01 -5.7584724231376E-01  9.7492121539055E-01
    98  9.7000000000000E-01 -5.2268050253715E-01  9.5044228039452E-01
    99  9.8000000000000E-01 -4.7008120979975E-01  9.2464166800666E-01
   100  9.9000000000000E-01 -4.1852440311663E-01  8.9750460582339E-01
   101  1.0000000000000E+00 -3.6845495830707E-01  8.6903094682587E-01
   102  1.0100000000000E+00 -3.2028222507322E-01  8.3923634795048E-01
   103  1.0200000000000E+00 -2.7437524027861E-01  8.0815324021653E-01
   104  1.0300000000000E+00 -2.3105859375430E-01  7.7583157028490E-01
   105  1.0400000000000E+00 -1.9060901246520E-01  7.4233929673076E-01
   106  1.0500000000000E+00 -1.5325271719965E-01  7.0776262803910E-01
   107  1.0600000000000E+00 -1.1916359328391E-01  6.7220599331661E-01
   108  1.0700000000000E+00 -8.8462203420424E-02  6.3579174088242E-01
   109  1.0800000000000E+00 -6.1215656766394E-02  5.9865956420503E-01
   110  1.0900000000000E+00 -3.7438334104679E-02  5.6096565900404E-01
   111  1.1000000000000E+00 -1.7093454622550E-02  5.2288161967198E-01
   112  1.1100000000000E+00 -9.5455630629384E-05  4.8459308742687E-01
   113  1.1200000000000E+00  1.3686857159179E-02  4.4629816668808E-01
   114  1.1300000000000E+00  2.4426444309180E-02  4.0820563004310E-01
   115  1.1400000000000E+00  3.2333519960464E-02  3.7053293573099E-01
   116  1.1500000000000E+00  3.7650470608239E-02  3.3350408479945E-01
   117  1.1600000000000E+00  4.0646293976866E-02  2.9734734788930E-01
   118  1.1700000000000E+00  4.1610655038676E-02  2.6229289396313E-01
   119  1.1800000000000E+00  4.0847662961833E-02  2.2857035514066E-01
   120  1.1900000000000E+00  3.8669477839003E-02  1.9640636313088E-01
   121  1.2000000000000E+00  3.5389859268801E-02  1.6602209351362E-01
   122  1.2100000000000E+00  3.1317770223501E-02  1.3763085431969E-01
   123  1.2200000000000E+00  2.6751153184375E-02  1.1143575384084E-01
   124  1.2300000000000E+00  2.1970953444548E-02  8.7627491370141E-02
   125  1.2400000000000E+00  1.7235369505033E-02  6.6382357537368E-02
   126  1.2500000000000E+00  1.2762705727362E-02  4.7863417487550E-02
   127  1.2600000000000E+00  8.7480437970833E-03  3.2212525452404E-02
   128  1.2700000000000E+00  5.3648108097356E-03  1.9548635186379E-02
   129  1.2800000000000E+00  2.7446482720819E-03  9.9715424613300E-03
   130  1.2900000000000E+00  9.7476684923469E-04  3.5570140049869E-03
   131  1.3000000000000E+00  1.1137045480789E-04  4.1131973441697E-04
   132  1.3100000000000E+00 -9.1643250360161E-06 -3.4124723783695E-05
   133  1.3200000000000E+00  6.6015611923908E-07  2.4421948878412E-06
   134  1.33  0.  0.
   135  1.34  0.  0.
   136  1.35  0.  0.
   137  1.36  0.  0.
   138  1.37  0.  0.
   139  1.38  0.  0.
   140  1.39  0.  0.
   141  1.40  0.  0.
   142  1.41  0.  0.
   143  1.42  0.  0.
   144  1.43  0.  0.
   145  1.44  0.  0.
   146  1.45  0.  0.
   147  1.46  0.  0.
   148  1.47  0.  0.
   149  1.48  0.  0.
   150  1.49  0.  0.
   151  1.50  0.  0.
   152  1.51  0.  0.
   153  1.52  0.  0.
   154  1.53  0.  0.
   155  1.54  0.  0.
   156  1.55  0.  0.
   157  1.56  0.  0.
   158  1.57  0.  0.
   159  1.58  0.  0.
   160  1.59  0.  0.
   161  1.60  0.  0.
   162  1.61  0.  0.
   163  1.62  0.  0.
   164  1.63  0.  0.
   165  1.64  0.  0.
   166  1.65  0.  0.
   167  1.66  0.  0.
   168  1.67  0.  0.
   169  1.68  0.  0.
   170  1.69  0.  0.
   171  1.70  0.  0.
   172  1.71  0.  0.
   173  1.72  0.  0.
   174  1.73  0.  0.
   175  1.74  0.  0.
   176  1.75  0.  0.
   177  1.76  0.  0.
   178  1.77  0.  0.
   179  1.78  0.  0.
   180  1.79  0.  0.
   181  1.80  0.  0.
   182  1.81  0.  0.
   183  1.82  0.  0.
   184  1.83  0.  0.
   185  1.84  0.  0.
   186  1.85  0.  0.
   187  1.86  0.  0.
   188  1.87  0.  0.
   189  1.88  0.  0.
   190  1.89  0.  0.
   191  1.90  0.  0.
   192  1.91  0.  0.
   193  1.92  0.  0.
   194  1.93  0.  0.
   195  1.94  0.  0.
   196  1.95  0.  0.
   197  1.96  0.  0.
   198  1.97  0.  0.
   199  1.98  0.  0.
   200  1.99  0.  0.
   201  2.00  0.  0.
   202  2.01  0.  0.
   203  2.02  0.  0.
   204  2.03  0.  0.
   205  2.04  0.  0.
   206  2.05  0.  0.
   207  2.06  0.  0.
   208  2.07  0.  0.
   209  2.08  0.  0.
   210  2.09  0.  0.
   211  2.10  0.  0.
   212  2.11  0.  0.
   213  2.12  0.  0.
   214  2.13  0.  0.
   215  2.14  0.  0.
   216  2.15  0.  0.
   217  2.16  0.  0.
   218  2.17  0.  0.
   219  2.18  0.  0.
   220  2.19  0.  0.
   221  2.20  0.  0.
   222  2.21  0.  0.
   223  2.22  0.  0.
   224  2.23  0.  0.
   225  2.24  0.  0.
   226  2.25  0.  0.
   227  2.26  0.  0.
   228  2.27  0.  0.
   229  2.28  0.  0.
   230  2.29  0.  0.
   231  2.30  0.  0.
   232  2.31  0.  0.
   233  2.32  0.  0.
   234  2.33  0.  0.
   235  2.34  0.  0.
   236  2.35  0.  0.
   237  2.36  0.  0.
   238  2.37  0.  0.
   239  2.38  0.  0.
   240  2.39  0.  0.
   241  2.40  0.  0.
   242  2.41  0.  0.
   243  2.42  0.  0.
   244  2.43  0.  0.
   245  2.44  0.  0.
   246  2.45  0.  0.
   247  2.46  0.  0.
   248  2.47  0.  0.
   249  2.48  0.  0.
   250  2.49  0.  0.
   251  2.50  0.  0.
   252  2.51  0.  0.
   253  2.52  0.  0.
   254  2.53  0.  0.
   255  2.54  0.  0.
   256  2.55  0.  0.
   257  2.56  0.  0.
   258  2.57  0.  0.
   259  2.58  0.  0.
   260  2.59  0.  0.
   261  2.60  0.  0.
   262  2.61  0.  0.
   263  2.62  0.  0.
   264  2.63  0.  0.
   265  2.64  0.  0.
   266  2.65  0.  0.
   267  2.66  0.  0.
   268  2.67  0.  0.
   269  2.68  0.  0.
   270  2.69  0.  0.
   271  2.70  0.  0.
   272  2.71  0.  0.
   273  2.72  0.  0.
   274  2.73  0.  0.
   275  2.74  0.  0.
   276  2.75  0.  0.
   277  2.76  0.  0.
   278  2.77  0.  0.
   279  2.78  0.  0.
   280  2.79  0.  0.
   281  2.80  0.  0.
   282  2.81  0.  0.
   283  2.82  0.  0.
   284  2.83  0.  0.
   285  2.84  0.  0.
   286  2.85  0.  0.
   287  2.86  0.  0.
   288  2.87  0.  0.
   289  2.88  0.  0.
   290  2.89  0.  0.
   291  2.90  0.  0.
   292  2.91  0.  0.
   293  2.92  0.  0.
   294  2.93  0.  0.
   295  2.94  0.  0.
   296  2.95  0.  0.
   297  2.96  0.  0.
   298  2.97  0.  0.
   299  2.98  0.  0.
   300  2.99  0.  0.
   301  3.00  0.  0.
   302  3.01  0.  0.
   303  3.02  0.  0.
   304  3.03  0.  0.
   305  3.04  0.  0.
   306  3.05  0.  0.
   307  3.06  0.  0.
   308  3.07  0.  0.
   309  3.08  0.  0.
   310  3.09  0.  0.
   311  3.10  0.  0.
   312  3.11  0.  0.
   313  3.12  0.  0.
   314  3.13  0.  0.
   315  3.14  0.  0.
   316  3.15  0.  0.
   317  3.16  0.  0.
   318  3.17  0.  0.
   319  3.18  0.  0.
   320  3.19  0.  0.
   321  3.20  0.  0.
   322  3.21  0.  0.
   323  3.22  0.  0.
   324  3.23  0.  0.
   325  3.24  0.  0.
   326  3.25  0.  0.
   327  3.26  0.  0.
   328  3.27  0.  0.
   329  3.28  0.  0.
   330  3.29  0.  0.
   331  3.30  0.  0.
   332  3.31  0.  0.
   333  3.32  0.  0.
   334  3.33  0.  0.
   335  3.34  0.  0.
   336  3.35  0.  0.
   337  3.36  0.  0.
   338  3.37  0.  0.
   339  3.38  0.  0.
   340  3.39  0.  0.
   341  3.40  0.  0.
   342  3.41  0.  0.
   343  3.42  0.  0.
   344  3.43  0.  0.
   345  3.44  0.  0.
   346  3.45  0.  0.
   347  3.46  0.  0.
   348  3.47  0.  0.
   349  3.48  0.  0.
   350  3.49  0.  0.
   351  3.50  0.  0.
   352  3.51  0.  0.
   353  3.52  0.  0.
   354  3.53  0.  0.
   355  3.54  0.  0.
   356  3.55  0.  0.
   357  3.56  0.  0.
   358  3.57  0.  0.
   359  3.58  0.  0.
   360  3.59  0.  0.
   361  3.60  0.  0.
   362  3.61  0.  0.
   363  3.62  0.  0.
   364  3.63  0.  0.
   365  3.64  0.  0.
   366  3.65  0.  0.
   367  3.66  0.  0.
   368  3.67  0.  0.
   369  3.68  0.  0.
   370  3.69  0.  0.
   371  3.70  0.  0.
   372  3.71  0.  0.
   373  3.72  0.  0.
   374  3.73  0.  0.
   375  3.74  0.  0.
   376  3.75  0.  0.
   377  3.76  0.  0.
   378  3.77  0.  0.
   379  3.78  0.  0.
   380  3.79  0.  0.
   381  3.80  0.  0.
   382  3.81  0.  0.
   383  3.82  0.  0.
   384  3.83  0.  0.
   385  3.84  0.  0.
   386  3.85  0.  0.
   387  3.86  0.  0.
   388  3.87  0.  0.
   389  3.88  0.  0.
   390  3.89  0.  0.
   391  3.90  0.  0.
   392  3.91  0.  0.
   393  3.92  0.  0.
   394  3.93  0.  0.
   395  3.94  0.  0.
   396  3.95  0.  0.
   397  3.96  0.  0.
   398  3.97  0.  0.
   399  3.98  0.  0.
   400  3.99  0.  0.
   1                        -5.0349280373361E+00 -1.5569848431535E+00
     1  0.0000000000000E+00  6.7499150713246E-10 -1.3859168673802E-09
     2  1.0000000000000E-02  1.5683742938680E-03 -8.2699116463339E-04
     3  2.0000000000000E-02  6.2664918414716E-03 -3.3001334461057E-03
     4  3.0000000000000E-02  1.4073378542496E-02 -7.3960040743264E-03
     5  4.0000000000000E-02  2.4954216865442E-02 -1.3075800558623E-02
     6  5.0000000000000E-02  3.8860553510711E-02 -2.0285691210915E-02
     7  6.0000000000000E-02  5.5730587572684E-02 -2.8957300578281E-02
     8  7.0000000000000E-02  7.5489536669007E-02 -3.9008324561095E-02
     9  8.0000000000000E-02  9.8050077830372E-02 -5.0343268606985E-02
    10  9.0000000000000E-02  1.2331285930497E-01 -6.2854301064119E-02
    11  1.0000000000000E-01  1.5116707883530E-01 -7.6422212564150E-02
    12  1.1000000000000E-01  1.8149112341769E-01 -9.0917471200564E-02
    13  1.2000000000000E-01  2.1415326506281E-01 -1.0620136228469E-01
    14  1.3000000000000E-01  2.4901240664361E-01 -1.2212720061142E-01
    15  1.4000000000000E-01  2.8591887155056E-01 -1.3854160245876E-01
    16  1.5000000000000E-01  3.2471523057584E-01 -1.5528580398914E-01
    17  1.6000000000000E-01  3.6523715922214E-01 -1.7219701232068E-01
    18  1.7000000000000E-01  4.0731431847891E-01 -1.8910977529986E-01
    19  1.8000000000000E-01  4.5077125203179E-01 -2.0585735593315E-01
    20  1.9000000000000E-01  4.9542829286845E-01 -2.2227309752742E-01
    21  2.0000000000000E-01  5.4110247231712E-01 -2.3819176584306E-01
    22  2.1000000000000E-01  5.8760842469938E-01 -2.5345085497855E-01
    23  2.2000000000000E-01  6.3475928099610E-01 -2.6789184427307E-01
    24  2.3000000000000E-01  6.8236754520942E-01 -2.8136139422920E-01
    25  2.4000000000000E-01  7.3024594745197E-01 -2.9371247030993E-01
    26  2.5000000000000E-01  7.7820826820153E-01 -3.0480538444324E-01
    27  2.6000000000000E-01  8.2607012861971E-01 -3.1450874516050E-01
    28  2.7000000000000E-01  8.7364974234100E-01 -3.2270030848838E-01
    29  2.8000000000000E-01  9.2076862468705E-01 -3.2926772299180E-01
    30  2.9000000000000E-01  9.6725225584290E-01 -3.3410916371320E-01
    31  3.0000000000000E-01  1.0129306951399E+00 -3.3713385115187E-01
    32  3.1000000000000E-01  1.0576391442162E+00 -3.3826245286060E-01
    33  3.2000000000000E-01  1.1012184574626E+00 -3.3742736668619E-01
    34  3.3000000000000E-01  1.1435155987982E+00 -3.3457288612716E-01
    35  3.4000000000000E-01  1.1843840444563E+00 -3.2965524970846E-01
    36  3.5000000000000E-01  1.2236841320750E+00 -3.2264257766120E-01
    37  3.6000000000000E-01  1.2612833569877E+00 -3.1351470052649E-01
    38  3.7000000000000E-01  1.2970566171735E+00 -3.0226288556175E-01
    39  3.8000000000000E-01  1.3308864088602E+00 -2.8888946799721E-01
    40  3.9000000000000E-01  1.3626629752610E+00 -2.7340739525640E-01
    41  4.0000000000000E-01  1.3922844113635E+00 -2.5583969320292E-01
    42  4.1000000000000E-01  1.4196567280785E+00 -2.3621886429519E-01
    43  4.2000000000000E-01  1.4446938793793E+00 -2.1458622821047E-01
    44  4.3000000000000E-01  1.4673177563280E+00 -1.9099121603033E-01
    45  4.4000000000000E-01  1.4874581520843E+00 -1.6549062945669E-01
    46  4.5000000000000E-01  1.5050527021196E+00 -1.3814787674311E-01
    47  4.6000000000000E-01  1.5200468039275E+00 -1.0903219708119E-01
    48  4.7000000000000E-01  1.5323935205067E+00 -7.8217885072377E-02
    49  4.8000000000000E-01  1.5420534718241E+00 -4.5783526646092E-02
    50  4.9000000000000E-01  1.5489947183183E+00 -1.1811257357156E-02
    51  5.0000000000000E-01  1.5531926403000E+00  2.3613946583465E-02
    52  5.1000000000000E-01  1.5546298168374E+00  6.0404934913978E-02
    53  5.2000000000000E-01  1.5532959073901E+00  9.8472998789870E-02
    54  5.3000000000000E-01  1.5491875390814E+00  1.3772842732129E-01
    55  5.4000000000000E-01  1.5423082020746E+00  1.7808099847571E-01
    56  5.5000000000000E-01  1.5326681550631E+00  2.1944039882548E-01
    57  5.6000000000000E-01  1.5202843423853E+00  2.6171656788222E-01
    58  5.7000000000000E-01  1.5051803237642E+00  3.0481996408338E-01
    59  5.8000000000000E-01  1.4873862171331E+00  3.4866175086264E-01
    60  5.9000000000000E-01  1.4669386544682E+00  3.9315390262645E-01
    61  6.0000000000000E-01  1.4438807500052E+00  4.3820923185394E-01
    62  6.1000000000000E-01  1.4182620796829E+00  4.8374133991826E-01
    63  6.2000000000000E-01  1.3901386701396E+00  5.2966449557339E-01
    64  6.3000000000000E-01  1.3595729950932E+00  5.7589344634319E-01
    65  6.4000000000000E-01  1.3266339764784E+00  6.2234316927016E-01
    66  6.5000000000000E-01  1.2913969872937E+00  6.6892856861207E-01
    67  6.6000000000000E-01  1.2539438527402E+00  7.1556412909857E-01
    68  6.7000000000000E-01  1.2143628459161E+00  7.6216353426173E-01
    69  6.8000000000000E-01  1.1727486740746E+00  8.0863926011990E-01
    70  6.9000000000000E-01  1.1292024512604E+00  8.5490215511160E-01
    71  7.0000000000000E-01  1.0838316530181E+00  9.0086101763386E-01
    72  7.1000000000000E-01  1.0367500488166E+00  9.4642218283029E-01
    73  7.2000000000000E-01  9.8807760785766E-01  9.9148913039130E-01
    74  7.3000000000000E-01  9.3794037404205E-01  1.0359621250681E+00
    75  7.4000000000000E-01  8.8647030604241E-01  1.0797379013625E+00
    76  7.5000000000000E-01  8.3380507868973E-01  1.1227094034365E+00
    77  7.6000000000000E-01  7.8008784220831E-01  1.1647655906916E+00
    78  7.7000000000000E-01  7.2546693623530E-01  1.2057913187050E+00
    79  7.8000000000000E-01  6.7009555602882E-01  1.2456673042851E+00
    80  7.9000000000000E-01  6.1413136879905E-01  1.2842701823321E+00
    81  8.0000000000000E-01  5.5773607868364E-01  1.3214726609736E+00
    82  8.1000000000000E-01  5.0107493952524E-01  1.3571437801064E+00
    83  8.2000000000000E-01  4.4431621528774E-01  1.3911492770252E+00
    84  8.3000000000000E-01  3.8763058865990E-01  1.4233520612831E+00
    85  8.4000000000000E-01  3.3119051913215E-01  1.4536127993164E+00
    86  8.5000000000000E-01  2.7516955258467E-01  1.4817906077094E+00
    87  8.6000000000000E-01  2.1974158518228E-01  1.5077438522859E+00
    88  8.7000000000000E-01  1.6508008512429E-01  1.5313310485211E+00
    89  8.8000000000000E-01  1.1135727653528E-01  1.5524118570922E+00
    90  8.9000000000000E-01  5.8743290494220E-02  1.5708481667473E+00
    91  9.0000000000000E-01  7.4052888760257E-03  1.5865052551027E+00
    92  9.1000000000000E-01 -4.2493432690463E-02  1.5992530164878E+00
    93  9.2000000000000E-01 -9.0794355868708E-02  1.6089672445778E+00
    94  9.3000000000000E-01 -1.3734465727519E-01  1.6155309563013E+00
    95  9.4000000000000E-01 -1.8199812492710E-01  1.6188357424031E+00
    96  9.5000000000000E-01 -2.2461606529243E-01  1.6187831291022E+00
    97  9.6000000000000E-01 -2.6506819248805E-01  1.6152859345247E+00
    98  9.7000000000000E-01 -3.0323349099481E-01  1.6082696030227E+00
    99  9.8000000000000E-01 -3.3900104317993E-01  1.5976735001324E+00
   100  9.9000000000000E-01 -3.7227081293994E-01  1.5834521507775E+00
   101  1.0000000000000E+00 -4.0295437690392E-01  1.5655764033989E+00
   102  1.0100000000000E+00 -4.3097559486878E-01  1.5440345029945E+00
   103  1.0200000000000E+00 -4.5627121147485E-01  1.5188330565759E+00
   104  1.0300000000000E+00 -4.7879138157002E-01  1.4899978753009E+00
   105  1.0400000000000E+00 -4.9850011225129E-01  1.4575746785089E+00
   106  1.0500000000000E+00 -5.1537561520928E-01  1.4216296460664E+00
   107  1.0600000000000E+00 -5.2941056372978E-01  1.3822498068088E+00
   108  1.0700000000000E+00 -5.4061224951798E-01  1.3395432524337E+00
   109  1.0800000000000E+00 -5.4900263540076E-01  1.2936391679391E+00
   110  1.0900000000000E+00 -5.5461830091879E-01  1.2446876715920E+00
   111  1.1000000000000E+00 -5.5751027883430E-01  1.1928594594358E+00
   112  1.1100000000000E+00 -5.5774378164347E-01  1.1383452514834E+00
   113  1.1200000000000E+00 -5.5539781827713E-01  1.0813550389572E+00
   114  1.1300000000000E+00 -5.5056470229770E-01  1.0221171342250E+00
   115  1.1400000000000E+00 -5.4334945402737E-01  9.6087702738779E-01
   116  1.1500000000000E+00 -5.3386910017695E-01  8.9789605580256E-01
   117  1.1600000000000E+00 -5.2225187565346E-01  8.3344989511324E-01
   118  1.1700000000000E+00 -5.0863633331517E-01  7.6782688261861E-01
   119  1.1800000000000E+00 -4.9317036848235E-01  7.0132618596631E-01
   120  1.1900000000000E+00 -4.7601016600478E-01  6.3425583223211E-01
   121  1.2000000000000E+00 -4.5731907860842E-01  5.6693061436914E-01
   122  1.2100000000000E+00 -4.3726644608836E-01  4.9966989378540E-01
   123  1.2200000000000E+00 -4.1602636567219E-01  4.3279531940156E-01
   124  1.2300000000000E+00 -3.9377642453164E-01  3.6662848492281E-01
   125  1.2400000000000E+00 -3.7069640597107E-01  3.0148854722959E-01
   126  1.2500000000000E+00 -3.4696698125184E-01  2.3768982971173E-01
   127  1.2600000000000E+00 -3.2276839932129E-01  1.7553943504186E-01
   128  1.2700000000000E+00 -2.9827918689774E-01  1.1533489228764E-01
   129  1.2800000000000E+00 -2.7367487141201E-01  5.7361863389522E-02
   130  1.2900000000000E+00 -2.4912673928700E-01  1.8919340892790E-03
   131  1.3000000000000E+00 -2.2480064045511E-01 -5.0819490604065E-02
   132  1.3100000000000E+00 -2.0085585615499E-01 -1.0053514523282E-01
   133  1.3200000000000E+00 -1.7744382029288E-01 -1.4703843356428E-01
   134  1.3300000000000E+00 -1.5470654535654E-01 -1.9013698610675E-01
   135  1.3400000000000E+00 -1.3277545572122E-01 -2.2966487736078E-01
   136  1.3500000000000E+00 -1.1177050967958E-01 -2.6548398474193E-01
   137  1.3600000000000E+00 -9.1799427467942E-02 -2.9748513187644E-01
   138  1.3700000000000E+00 -7.2957037663237E-02 -3.2558898411041E-01
   139  1.3800000000000E+00 -5.5324746821632E-02 -3.4974668827377E-01
   140  1.3900000000000E+00 -3.8970137190573E-02 -3.6994024726393E-01
   141  1.4000000000000E+00 -2.3946696042550E-02 -3.8618262273878E-01
   142  1.4100000000000E+00 -1.0293678896755E-02 -3.9851756187773E-01
   143  1.4200000000000E+00  1.9638924207060E-03 -4.0701914691395E-01
   144  1.4300000000000E+00  1.2815097266137E-02 -4.1179106893914E-01
   145  1.4400000000000E+00  2.2262850940477E-02 -4.1296563027815E-01
   146  1.4500000000000E+00  3.0323509786161E-02 -4.1070248253617E-01
   147  1.4600000000000E+00  3.7026350984417E-02 -4.0518711015962E-01
   148  1.4700000000000E+00  4.2412932690500E-02 -3.9662907202303E-01
   149  1.4800000000000E+00  4.6536341363157E-02 -3.8526001611809E-01
   150  1.4900000000000E+00  4.9460334299802E-02 -3.7133148485138E-01
   151  1.5000000000000E+00  5.1258386463708E-02 -3.5511253072027E-01
   152  1.5100000000000E+00  5.2012651677600E-02 -3.3688716421640E-01
   153  1.5200000000000E+00  5.1812849145078E-02 -3.1695165767398E-01
   154  1.5300000000000E+00  5.0755087035397E-02 -2.9561173040826E-01
   155  1.5400000000000E+00  4.8940635524020E-02 -2.7317964187030E-01
   156  1.5500000000000E+00  4.6474662210184E-02 -2.4997122065267E-01
   157  1.5600000000000E+00  4.3464943228161E-02 -2.2630285800587E-01
   158  1.5700000000000E+00  4.0020563626141E-02 -2.0248849505708E-01
   159  1.5800000000000E+00  3.6250620702397E-02 -1.7883663315243E-01
   160  1.5900000000000E+00  3.2262943738862E-02 -1.5564739621902E-01
   161  1.6000000000000E+00  2.8162846452968E-02 -1.3320967983331E-01
   162  1.6100000000000E+00  2.4051913794940E-02 -1.1179839206908E-01
   163  1.6200000000000E+00  2.0026849819419E-02 -9.1671840438593E-02
   164  1.6300000000000E+00  1.6179652824776E-02 -7.3071839895345E-02
   165  1.6400000000000E+00  1.2596351485689E-02 -5.6220949834686E-02
   166  1.6500000000000E+00  9.3515202556457E-03 -4.1311136225530E-02
   167  1.6600000000000E+00  6.5111869452081E-03 -2.8509460518905E-02
   168  1.6700000000000E+00  4.1321581401073E-03 -1.7956580983070E-02
   169  1.6800000000000E+00  2.2619295092256E-03 -9.7675261121723E-03
   170  1.6900000000000E+00  9.3320154985062E-04 -4.0092862719602E-03
   171  1.7000000000000E+00  1.8886163047420E-04 -8.0805382278870E-04
   172  1.7100000000000E+00 -1.2499588500031E-05  5.3363221686690E-05
   173  1.7200000000000E+00  3.0007554519495E-06 -1.2817654703323E-05
   174  1.73 -0.  0.
   175  1.74 -0.  0.
   176  1.75  0.  0.
   177  1.76  0.  0.
   178  1.77  0.  0.
   179  1.78  0.  0.
   180  1.79  0.  0.
   181  1.80  0.  0.
   182  1.81  0.  0.
   183  1.82  0.  0.
   184  1.83  0.  0.
   185  1.84  0.  0.
   186  1.85  0.  0.
   187  1.86  0.  0.
   188  1.87  0.  0.
   189  1.88  0.  0.
   190  1.89  0.  0.
   191  1.90  0.  0.
   192  1.91  0.  0.
   193  1.92  0.  0.
   194  1.93  0.  0.
   195  1.94  0.  0.
   196  1.95  0.  0.
   197  1.96  0.  0.
   198  1.97  0.  0.
   199  1.98  0.  0.
   200  1.99  0.  0.
   201  2.00  0.  0.
   202  2.01  0.  0.
   203  2.02  0.  0.
   204  2.03  0.  0.
   205  2.04  0.  0.
   206  2.05  0.  0.
   207  2.06  0.  0.
   208  2.07  0.  0.
   209  2.08  0.  0.
   210  2.09  0.  0.
   211  2.10  0.  0.
   212  2.11  0.  0.
   213  2.12  0.  0.
   214  2.13  0.  0.
   215  2.14  0.  0.
   216  2.15  0.  0.
   217  2.16  0.  0.
   218  2.17  0.  0.
   219  2.18  0.  0.
   220  2.19  0.  0.
   221  2.20  0.  0.
   222  2.21  0.  0.
   223  2.22  0.  0.
   224  2.23  0.  0.
   225  2.24  0.  0.
   226  2.25  0.  0.
   227  2.26  0.  0.
   228  2.27  0.  0.
   229  2.28  0.  0.
   230  2.29  0.  0.
   231  2.30  0.  0.
   232  2.31  0.  0.
   233  2.32  0.  0.
   234  2.33  0.  0.
   235  2.34  0.  0.
   236  2.35  0.  0.
   237  2.36  0.  0.
   238  2.37  0.  0.
   239  2.38  0.  0.
   240  2.39  0.  0.
   241  2.40  0.  0.
   242  2.41  0.  0.
   243  2.42  0.  0.
   244  2.43  0.  0.
   245  2.44  0.  0.
   246  2.45  0.  0.
   247  2.46  0.  0.
   248  2.47  0.  0.
   249  2.48  0.  0.
   250  2.49  0.  0.
   251  2.50  0.  0.
   252  2.51  0.  0.
   253  2.52  0.  0.
   254  2.53  0.  0.
   255  2.54  0.  0.
   256  2.55  0.  0.
   257  2.56  0.  0.
   258  2.57  0.  0.
   259  2.58  0.  0.
   260  2.59  0.  0.
   261  2.60  0.  0.
   262  2.61  0.  0.
   263  2.62  0.  0.
   264  2.63  0.  0.
   265  2.64  0.  0.
   266  2.65  0.  0.
   267  2.66  0.  0.
   268  2.67  0.  0.
   269  2.68  0.  0.
   270  2.69  0.  0.
   271  2.70  0.  0.
   272  2.71  0.  0.
   273  2.72  0.  0.
   274  2.73  0.  0.
   275  2.74  0.  0.
   276  2.75  0.  0.
   277  2.76  0.  0.
   278  2.77  0.  0.
   279  2.78  0.  0.
   280  2.79  0.  0.
   281  2.80  0.  0.
   282  2.81  0.  0.
   283  2.82  0.  0.
   284  2.83  0.  0.
   285  2.84  0.  0.
   286  2.85  0.  0.
   287  2.86  0.  0.
   288  2.87  0.  0.
   289  2.88  0.  0.
   290  2.89  0.  0.
   291  2.90  0.  0.
   292  2.91  0.  0.