Ne    ONCVPSP-4.0.1  r_core=   1.30478   1.70784
     10.0000      8.0000      250217    zatom,zion,pspd
     8       2   1     4   400     0    pspcod,pspxc,lmax,lloc,mmax,r2well
  3.99000000  0.00000000  0.00000000    rchrg fchrg qchrg
     2     2     0     0    nproj
     3     1           extension_switch
     3     0     0    nprojso
   0                         2.1657524952705E+00 -4.5346034353432E-01
     1  0.0000000000000E+00 -5.1943974677116E-09 -1.1353268047909E-09
     2  1.0000000000000E-02  9.8360446237718E-02  1.7550455776609E-02
     3  2.0000000000000E-02  1.9624756300455E-01  3.5114320504278E-02
     4  3.0000000000000E-02  2.9319278778534E-01  5.2705405890742E-02
     5  4.0000000000000E-02  3.8873701608417E-01  7.0338315646916E-02
     6  5.0000000000000E-02  4.8243514206286E-01  8.8028808011408E-02
     7  6.0000000000000E-02  5.7386037691570E-01  1.0579411893210E-01
     8  7.0000000000000E-02  6.6260827712202E-01  1.2365323415554E-01
     9  8.0000000000000E-02  7.4830041991251E-01  1.4162709961024E-01
    10  9.0000000000000E-02  8.3058766959966E-01  1.5973876084638E-01
    11  1.0000000000000E-01  9.0915298574358E-01  1.7801342388511E-01
    12  1.1000000000000E-01  9.8371373231796E-01  1.9647843160324E-01
    13  1.2000000000000E-01  1.0540234559605E+00  2.1516315169920E-01
    14  1.3000000000000E-01  1.1198731108748E+00  2.3409877431504E-01
    15  1.4000000000000E-01  1.1810917178237E+00  2.5331801948604E-01
    16  1.5000000000000E-01  1.2375464547429E+00  2.7285475671253E-01
    17  1.6000000000000E-01  1.2891421866164E+00  2.9274354105467E-01
    18  1.7000000000000E-01  1.3358204522186E+00  3.1301907219670E-01
    19  1.8000000000000E-01  1.3775579349499E+00  3.3371558487160E-01
    20  1.9000000000000E-01  1.4143644541068E+00  3.5486618083892E-01
    21  2.0000000000000E-01  1.4462805213604E+00  3.7650211423006E-01
    22  2.1000000000000E-01  1.4733745148179E+00  3.9865204348212E-01
    23  2.2000000000000E-01  1.4957395296701E+00  4.2134126424231E-01
    24  2.3000000000000E-01  1.5134899699591E+00  4.4459093851359E-01
    25  2.4000000000000E-01  1.5267579503380E+00  4.6841733590731E-01
    26  2.5000000000000E-01  1.5356895797459E+00  4.9283110315427E-01
    27  2.6000000000000E-01  1.5404412006436E+00  5.1783657799171E-01
    28  2.7000000000000E-01  1.5411756578008E+00  5.4343116318556E-01
    29  2.8000000000000E-01  1.5380586695928E+00  5.6960477576840E-01
    30  2.9000000000000E-01  1.5312553723677E+00  5.9633938558020E-01
    31  3.0000000000000E-01  1.5209271047245E+00  6.2360865590696E-01
    32  3.1000000000000E-01  1.5072284935631E+00  6.5137769744140E-01
    33  3.2000000000000E-01  1.4903048976201E+00  6.7960294496571E-01
    34  3.3000000000000E-01  1.4702902569939E+00  7.0823216410919E-01
    35  3.4000000000000E-01  1.4473053890243E+00  7.3720459330060E-01
    36  3.5000000000000E-01  1.4214567619712E+00  7.6645122365335E-01
    37  3.6000000000000E-01  1.3928357683920E+00  7.9589521703588E-01
    38  3.7000000000000E-01  1.3615185101292E+00  8.2545246003375E-01
    39  3.8000000000000E-01  1.3275660965650E+00  8.5503224895190E-01
    40  3.9000000000000E-01  1.2910254474731E+00  8.8453809848215E-01
    41  4.0000000000000E-01  1.2519305815833E+00  9.1386866422125E-01
    42  4.1000000000000E-01  1.2103043620696E+00  9.4291876691437E-01
    43  4.2000000000000E-01  1.1661606607581E+00  9.7158050416438E-01
    44  4.3000000000000E-01  1.1195068941047E+00  9.9974443342980E-01
    45  4.4000000000000E-01  1.0703468760825E+00  1.0273008084741E+00
    46  4.5000000000000E-01  1.0186839261954E+00  1.0541408500612E+00
    47  4.6000000000000E-01  9.6452416503598E-01  1.0801580306446E+00
    48  4.7000000000000E-01  9.0787992524082E-01  1.1052493520996E+00
    49  4.8000000000000E-01  8.4877320246717E-01  1.1293165952121E+00
    50  4.9000000000000E-01  7.8723906918583E-01  1.1522675196829E+00
    51  5.0000000000000E-01  7.2332897370208E-01  1.1740169938299E+00
    52  5.1000000000000E-01  6.5711384790054E-01  1.1944880339829E+00
    53  5.2000000000000E-01  5.8868694975165E-01  1.2136127347438E+00
    54  5.3000000000000E-01  5.1816637058384E-01  1.2313330728288E+00
    55  5.4000000000000E-01  4.4569714245634E-01  1.2476015690824E+00
    56  5.5000000000000E-01  3.7145288757777E-01  1.2623817954423E+00
    57  5.6000000000000E-01  2.9563695949557E-01  1.2756487160903E+00
    58  5.7000000000000E-01  2.1848303460094E-01  1.2873888547204E+00
    59  5.8000000000000E-01  1.4025512220088E-01  1.2976002827380E+00
    60  5.9000000000000E-01  6.1246971836415E-02  1.3062924262313E+00
    61  6.0000000000000E-01 -1.8219132510013E-02  1.3134856926718E+00
    62  6.1000000000000E-01 -9.7794190366725E-02  1.3192109214513E+00
    63  6.2000000000000E-01 -1.7710490248444E-01  1.3235086654999E+00
    64  6.3000000000000E-01 -2.5575666452169E-01  1.3264283142837E+00
    65  6.4000000000000E-01 -3.3333710180407E-01  1.3280270714114E+00
    66  6.5000000000000E-01 -4.0942009961751E-01  1.3283688028231E+00
    67  6.6000000000000E-01 -4.8357027352669E-01  1.3275227740426E+00
    68  6.7000000000000E-01 -5.5534781509859E-01  1.3255622972028E+00
    69  6.8000000000000E-01 -6.2431364033030E-01  1.3225633104525E+00
    70  6.9000000000000E-01 -6.9003476118616E-01  1.3186029138904E+00
    71  7.0000000000000E-01 -7.5208979507711E-01  1.3137578873095E+00
    72  7.1000000000000E-01 -8.1007452298032E-01  1.3081032157545E+00
    73  7.2000000000000E-01 -8.6360740428710E-01  1.3017106491683E+00
    74  7.3000000000000E-01 -9.1233495544629E-01  1.2946473222273E+00
    75  7.4000000000000E-01 -9.5593690007288E-01  1.2869744598337E+00
    76  7.5000000000000E-01 -9.9413100042525E-01  1.2787461926466E+00
    77  7.6000000000000E-01 -1.0266774839962E+00  1.2700085055134E+00
    78  7.7000000000000E-01 -1.0533829843629E+00  1.2607983397173E+00
    79  7.8000000000000E-01 -1.0741039223193E+00  1.2511428676271E+00
    80  7.9000000000000E-01 -1.0887492615686E+00  1.2410589556433E+00
    81  8.0000000000000E-01 -1.0972825827465E+00  1.2305528283314E+00
    82  8.1000000000000E-01 -1.0997234301331E+00  1.2196199433627E+00
    83  8.2000000000000E-01 -1.0961478969092E+00  1.2082450833961E+00
    84  8.3000000000000E-01 -1.0866884270383E+00  1.1964026673909E+00
    85  8.4000000000000E-01 -1.0715328245935E+00  1.1840572801022E+00
    86  8.5000000000000E-01 -1.0509224743910E+00  1.1711644147340E+00
    87  8.6000000000000E-01 -1.0251497909109E+00  1.1576714199831E+00
    88  8.7000000000000E-01 -9.9455492544944E-01  1.1435186390547E+00
    89  8.8000000000000E-01 -9.5952177404273E-01  1.1286407247416E+00
    90  8.9000000000000E-01 -9.2047334068940E-01  1.1129681113855E+00
    91  9.0000000000000E-01 -8.7786652158594E-01  1.0964286215444E+00
    92  9.1000000000000E-01 -8.3218638625713E-01  1.0789491825299E+00
    93  9.2000000000000E-01 -7.8394004044094E-01  1.0604576256971E+00
    94  9.3000000000000E-01 -7.3365016320438E-01  1.0408845395163E+00
    95  9.4000000000000E-01 -6.8184831688146E-01  1.0201651460608E+00
    96  9.5000000000000E-01 -6.2906813292122E-01  9.9824116964266E-01
    97  9.6000000000000E-01 -5.7583847952168E-01  9.7506266593758E-01
    98  9.7000000000000E-01 -5.2267671794456E-01  9.5058978007134E-01
    99  9.8000000000000E-01 -4.7008215362567E-01  9.2479440280040E-01
   100  9.9000000000000E-01 -4.1852978561634E-01  8.9766169510190E-01
   101  1.0000000000000E+00 -3.6846445354432E-01  8.6919145317893E-01
   102  1.0100000000000E+00 -3.2029547523300E-01  8.3939928806233E-01
   103  1.0200000000000E+00 -2.7439186045556E-01  8.0831759662052E-01
   104  1.0300000000000E+00 -2.3107817714365E-01  7.7599630383477E-01
   105  1.0400000000000E+00 -1.9063113587599E-01  7.4250335960962E-01
   106  1.0500000000000E+00 -1.5327694680428E-01  7.0792497711604E-01
   107  1.0600000000000E+00 -1.1918949051375E-01  6.7236560365342E-01
   108  1.0700000000000E+00 -8.8489330914228E-02  6.3594761918779E-01
   109  1.0800000000000E+00 -6.1243584277196E-02  5.9881076203248E-01
   110  1.0900000000000E+00 -3.7466644271165E-02  5.6111128549129E-01
   111  1.1000000000000E+00 -1.7121748512816E-02  5.2302085362486E-01
   112  1.1100000000000E+00 -1.2335796979588E-04  4.8472518855922E-01
   113  1.1200000000000E+00  1.3659693160909E-02  4.4642248584036E-01
   114  1.1300000000000E+00  2.4400332604912E-02  4.0832161821721E-01
   115  1.1400000000000E+00  3.2308737860517E-02  3.7064015179572E-01
   116  1.1500000000000E+00  3.7627255579391E-02  3.3360220174107E-01
   117  1.1600000000000E+00  4.0624841096785E-02  2.9743615750322E-01
   118  1.1700000000000E+00  4.1591115144106E-02  2.6237230990687E-01
   119  1.1800000000000E+00  4.0830141517430E-02  2.2864041429324E-01
   120  1.1900000000000E+00  3.8654034541361E-02  1.9646722523018E-01
   121  1.2000000000000E+00  3.5376508387506E-02  1.6607403907031E-01
   122  1.2100000000000E+00  3.1306481668423E-02  1.3767428083337E-01
   123  1.2200000000000E+00  2.6741854275201E-02  1.1147117037146E-01
   124  1.2300000000000E+00  2.1963531350376E-02  8.7655511541769E-02
   125  1.2400000000000E+00  1.7229674326587E-02  6.6403691074933E-02
   126  1.2500000000000E+00  1.2758555535095E-02  4.7878859759379E-02
   127  1.2600000000000E+00  8.7452276251064E-03  3.2222946767237E-02
   128  1.2700000000000E+00  5.3630915451313E-03  1.9554969638909E-02
   129  1.2800000000000E+00  2.7437678990586E-03  9.9747751644773E-03
   130  1.2900000000000E+00  9.7445213843676E-04  3.5581665276373E-03
   131  1.3000000000000E+00  1.1133385708053E-04  4.1145300652617E-04
   132  1.3100000000000E+00 -9.1613775749630E-06 -3.4135653311321E-05
   133  1.3200000000000E+00  6.5994350154007E-07  2.4429799301566E-06
   134  1.33  0.  0.
   135  1.34  0.  0.
   136  1.35  0.  0.
   137  1.36  0.  0.
   138  1.37  0.  0.
   139  1.38  0.  0.
   140  1.39  0.  0.
   141  1.40  0.  0.
   142  1.41  0.  0.
   143  1.42  0.  0.
   144  1.43  0.  0.
   145  1.44  0.  0.
   146  1.45  0.  0.
   147  1.46  0.  0.
   148  1.47  0.  0.
   149  1.48  0.  0.
   150  1.49  0.  0.
   151  1.50  0.  0.
   152  1.51  0.  0.
   153  1.52  0.  0.
   154  1.53  0.  0.
   155  1.54  0.  0.
   156  1.55  0.  0.
   157  1.56  0.  0.
   158  1.57  0.  0.
   159  1.58  0.  0.
   160  1.59  0.  0.
   161  1.60  0.  0.
   162  1.61  0.  0.
   163  1.62  0.  0.
   164  1.63  0.  0.
   165  1.64  0.  0.
   166  1.65  0.  0.
   167  1.66  0.  0.
   168  1.67  0.  0.
   169  1.68  0.  0.
   170  1.69  0.  0.
   171  1.70  0.  0.
   172  1.71  0.  0.
   173  1.72  0.  0.
   174  1.73  0.  0.
   175  1.74  0.  0.
   176  1.75  0.  0.
   177  1.76  0.  0.
   178  1.77  0.  0.
   179  1.78  0.  0.
   180  1.79  0.  0.
   181  1.80  0.  0.
   182  1.81  0.  0.
   183  1.82  0.  0.
   184  1.83  0.  0.
   185  1.84  0.  0.
   186  1.85  0.  0.
   187  1.86  0.  0.
   188  1.87  0.  0.
   189  1.88  0.  0.
   190  1.89  0.  0.
   191  1.90  0.  0.
   192  1.91  0.  0.
   193  1.92  0.  0.
   194  1.93  0.  0.
   195  1.94  0.  0.
   196  1.95  0.  0.
   197  1.96  0.  0.
   198  1.97  0.  0.
   199  1.98  0.  0.
   200  1.99  0.  0.
   201  2.00  0.  0.
   202  2.01  0.  0.
   203  2.02  0.  0.
   204  2.03  0.  0.
   205  2.04  0.  0.
   206  2.05  0.  0.
   207  2.06  0.  0.
   208  2.07  0.  0.
   209  2.08  0.  0.
   210  2.09  0.  0.
   211  2.10  0.  0.
   212  2.11  0.  0.
   213  2.12  0.  0.
   214  2.13  0.  0.
   215  2.14  0.  0.
   216  2.15  0.  0.
   217  2.16  0.  0.
   218  2.17  0.  0.
   219  2.18  0.  0.
   220  2.19  0.  0.
   221  2.20  0.  0.
   222  2.21  0.  0.
   223  2.22  0.  0.
   224  2.23  0.  0.
   225  2.24  0.  0.
   226  2.25  0.  0.
   227  2.26  0.  0.
   228  2.27  0.  0.
   229  2.28  0.  0.
   230  2.29  0.  0.
   231  2.30  0.  0.
   232  2.31  0.  0.
   233  2.32  0.  0.
   234  2.33  0.  0.
   235  2.34  0.  0.
   236  2.35  0.  0.
   237  2.36  0.  0.
   238  2.37  0.  0.
   239  2.38  0.  0.
   240  2.39  0.  0.
   241  2.40  0.  0.
   242  2.41  0.  0.
   243  2.42  0.  0.
   244  2.43  0.  0.
   245  2.44  0.  0.
   246  2.45  0.  0.
   247  2.46  0.  0.
   248  2.47  0.  0.
   249  2.48  0.  0.
   250  2.49  0.  0.
   251  2.50  0.  0.
   252  2.51  0.  0.
   253  2.52  0.  0.
   254  2.53  0.  0.
   255  2.54  0.  0.
   256  2.55  0.  0.
   257  2.56  0.  0.
   258  2.57  0.  0.
   259  2.58  0.  0.
   260  2.59  0.  0.
   261  2.60  0.  0.
   262  2.61  0.  0.
   263  2.62  0.  0.
   264  2.63  0.  0.
   265  2.64  0.  0.
   266  2.65  0.  0.
   267  2.66  0.  0.
   268  2.67  0.  0.
   269  2.68  0.  0.
   270  2.69  0.  0.
   271  2.70  0.  0.
   272  2.71  0.  0.
   273  2.72  0.  0.
   274  2.73  0.  0.
   275  2.74  0.  0.
   276  2.75  0.  0.
   277  2.76  0.  0.
   278  2.77  0.  0.
   279  2.78  0.  0.
   280  2.79  0.  0.
   281  2.80  0.  0.
   282  2.81  0.  0.
   283  2.82  0.  0.
   284  2.83  0.  0.
   285  2.84  0.  0.
   286  2.85  0.  0.
   287  2.86  0.  0.
   288  2.87  0.  0.
   289  2.88  0.  0.
   290  2.89  0.  0.
   291  2.90  0.  0.
   292  2.91  0.  0.
   293  2.92  0.  0.
   294  2.93  0.  0.
   295  2.94  0.  0.
   296  2.95  0.  0.
   297  2.96  0.  0.
   298  2.97  0.  0.
   299  2.98  0.  0.
   300  2.99  0.  0.
   301  3.00  0.  0.
   302  3.01  0.  0.
   303  3.02  0.  0.
   304  3.03  0.  0.
   305  3.04  0.  0.
   306  3.05  0.  0.
   307  3.06  0.  0.
   308  3.07  0.  0.
   309  3.08  0.  0.
   310  3.09  0.  0.
   311  3.10  0.  0.
   312  3.11  0.  0.
   313  3.12  0.  0.
   314  3.13  0.  0.
   315  3.14  0.  0.
   316  3.15  0.  0.
   317  3.16  0.  0.
   318  3.17  0.  0.
   319  3.18  0.  0.
   320  3.19  0.  0.
   321  3.20  0.  0.
   322  3.21  0.  0.
   323  3.22  0.  0.
   324  3.23  0.  0.
   325  3.24  0.  0.
   326  3.25  0.  0.
   327  3.26  0.  0.
   328  3.27  0.  0.
   329  3.28  0.  0.
   330  3.29  0.  0.
   331  3.30  0.  0.
   332  3.31  0.  0.
   333  3.32  0.  0.
   334  3.33  0.  0.
   335  3.34  0.  0.
   336  3.35  0.  0.
   337  3.36  0.  0.
   338  3.37  0.  0.
   339  3.38  0.  0.
   340  3.39  0.  0.
   341  3.40  0.  0.
   342  3.41  0.  0.
   343  3.42  0.  0.
   344  3.43  0.  0.
   345  3.44  0.  0.
   346  3.45  0.  0.
   347  3.46  0.  0.
   348  3.47  0.  0.
   349  3.48  0.  0.
   350  3.49  0.  0.
   351  3.50  0.  0.
   352  3.51  0.  0.
   353  3.52  0.  0.
   354  3.53  0.  0.
   355  3.54  0.  0.
   356  3.55  0.  0.
   357  3.56  0.  0.
   358  3.57  0.  0.
   359  3.58  0.  0.
   360  3.59  0.  0.
   361  3.60  0.  0.
   362  3.61  0.  0.
   363  3.62  0.  0.
   364  3.63  0.  0.
   365  3.64  0.  0.
   366  3.65  0.  0.
   367  3.66  0.  0.
   368  3.67  0.  0.
   369  3.68  0.  0.
   370  3.69  0.  0.
   371  3.70  0.  0.
   372  3.71  0.  0.
   373  3.72  0.  0.
   374  3.73  0.  0.
   375  3.74  0.  0.
   376  3.75  0.  0.
   377  3.76  0.  0.
   378  3.77  0.  0.
   379  3.78  0.  0.
   380  3.79  0.  0.
   381  3.80  0.  0.
   382  3.81  0.  0.
   383  3.82  0.  0.
   384  3.83  0.  0.
   385  3.84  0.  0.
   386  3.85  0.  0.
   387  3.86  0.  0.
   388  3.87  0.  0.
   389  3.88  0.  0.
   390  3.89  0.  0.
   391  3.90  0.  0.
   392  3.91  0.  0.
   393  3.92  0.  0.
   394  3.93  0.  0.
   395  3.94  0.  0.
   396  3.95  0.  0.
   397  3.96  0.  0.
   398  3.97  0.  0.
   399  3.98  0.  0.
   400  3.99  0.  0.
   1                        -5.0347638005271E+00 -1.5569082017685E+00
     1  0.0000000000000E+00  6.7501117195778E-10 -1.3859585770715E-09
     2  1.0000000000000E-02  1.5683894251971E-03 -8.2697526899502E-04
     3  2.0000000000000E-02  6.2665521424401E-03 -3.3000697231401E-03
     4  3.0000000000000E-02  1.4073513381298E-02 -7.3958601745996E-03
     5  4.0000000000000E-02  2.4954454503167E-02 -1.3075543448272E-02
     6  5.0000000000000E-02  3.8860920678843E-02 -2.0285286922415E-02
     7  6.0000000000000E-02  5.5731109070629E-02 -2.8956713985341E-02
     8  7.0000000000000E-02  7.5490234986928E-02 -3.9007519183932E-02
     9  8.0000000000000E-02  9.8050972802262E-02 -5.0342206453773E-02
    10  9.0000000000000E-02  1.2331396779653E-01 -6.2852942513884E-02
    11  1.0000000000000E-01  1.5116841447074E-01 -7.6420516295735E-02
    12  1.1000000000000E-01  1.8149269634898E-01 -9.0915394171578E-02
    13  1.2000000000000E-01  2.1415508178453E-01 -1.0619885976366E-01
    14  1.3000000000000E-01  2.4901446985577E-01 -1.2212422626534E-01
    15  1.4000000000000E-01  2.8592118007122E-01 -1.3853810849772E-01
    16  1.5000000000000E-01  3.2471777930476E-01 -1.5528174136835E-01
    17  1.6000000000000E-01  3.6523993915589E-01 -1.7219233099975E-01
    18  1.7000000000000E-01  4.0731731677734E-01 -1.8910442455794E-01
    19  1.8000000000000E-01  4.5077445213492E-01 -2.0585128473777E-01
    20  1.9000000000000E-01  4.9543167466242E-01 -2.2226625495388E-01
    21  2.0000000000000E-01  5.4110601234689E-01 -2.3818410154044E-01
    22  2.1000000000000E-01  5.8761209642547E-01 -2.5344231967744E-01
    23  2.2000000000000E-01  6.3476305509202E-01 -2.6788239032950E-01
    24  2.3000000000000E-01  6.8237138989580E-01 -2.8135097619837E-01
    25  2.4000000000000E-01  7.3024982886311E-01 -2.9370104554281E-01
    26  2.5000000000000E-01  7.7821215077934E-01 -3.0479291369845E-01
    27  2.6000000000000E-01  8.2607397553001E-01 -3.1449519322358E-01
    28  2.7000000000000E-01  8.7365351590647E-01 -3.2268564478989E-01
    29  2.8000000000000E-01  9.2077228683114E-01 -3.2925192221590E-01
    30  2.9000000000000E-01  9.6725576853872E-01 -3.3409220638761E-01
    31  3.0000000000000E-01  1.0129340208581E+00 -3.3711572421055E-01
    32  3.1000000000000E-01  1.0576422463656E+00 -3.3824315017052E-01
    33  3.2000000000000E-01  1.1012213008180E+00 -3.3740688952934E-01
    34  3.3000000000000E-01  1.1435181499090E+00 -3.3455124362984E-01
    35  3.4000000000000E-01  1.1843862720308E+00 -3.2963245920993E-01
    36  3.5000000000000E-01  1.2236860073346E+00 -3.2261866501442E-01
    37  3.6000000000000E-01  1.2612848539868E+00 -3.1348970032434E-01
    38  3.7000000000000E-01  1.2970577130796E+00 -3.0223684128290E-01
    39  3.8000000000000E-01  1.3308870841912E+00 -2.8886243206648E-01
    40  3.9000000000000E-01  1.3626632140754E+00 -2.7337942901562E-01
    41  4.0000000000000E-01  1.3922842014014E+00 -2.5581086678905E-01
    42  4.1000000000000E-01  1.4196560608507E+00 -2.3618925642366E-01
    43  4.2000000000000E-01  1.4446927502034E+00 -2.1455592586275E-01
    44  4.3000000000000E-01  1.4673161643103E+00 -1.9096031404587E-01
    45  4.4000000000000E-01  1.4874561000476E+00 -1.6545923003048E-01
    46  4.5000000000000E-01  1.5050501964783E+00 -1.3811608883148E-01
    47  4.6000000000000E-01  1.5200438545096E+00 -1.0900013571928E-01
    48  4.7000000000000E-01  1.5323901403270E+00 -7.8185670608226E-02
    49  4.8000000000000E-01  1.5420496768098E+00 -4.5751283897064E-02
    50  4.9000000000000E-01  1.5489905269911E+00 -1.1779114695778E-02
    51  5.0000000000000E-01  1.5531880734193E+00  2.3645858206439E-02
    52  5.1000000000000E-01  1.5546248970081E+00  6.0436483000371E-02
    53  5.2000000000000E-01  1.5532906586412E+00  9.8504050369092E-02
    54  5.3000000000000E-01  1.5491819864211E+00  1.3775885005914E-01
    55  5.4000000000000E-01  1.5423023710274E+00  1.7811066180597E-01
    56  5.5000000000000E-01  1.5326620711955E+00  2.1946917509266E-01
    57  5.6000000000000E-01  1.5202780308270E+00  2.6174433348370E-01
    58  5.7000000000000E-01  1.5051738087317E+00  3.0484660059859E-01
    59  5.8000000000000E-01  1.4873795214618E+00  3.4868714615720E-01
    60  5.9000000000000E-01  1.4669317991608E+00  3.9317795191885E-01
    61  6.0000000000000E-01  1.4438737538025E+00  4.3823183873284E-01
    62  6.1000000000000E-01  1.4182549586636E+00  4.8376241729859E-01
    63  6.2000000000000E-01  1.3901314373558E+00  5.2968396657997E-01
    64  6.3000000000000E-01  1.3595656602468E+00  5.7591124511122E-01
    65  6.4000000000000E-01  1.3266265456442E+00  6.2235924165264E-01
    66  6.5000000000000E-01  1.2913894626942E+00  6.6894287278497E-01
    67  6.6000000000000E-01  1.2539362325763E+00  7.1557663605573E-01
    68  6.7000000000000E-01  1.2143551242566E+00  7.6217422819238E-01
    69  6.8000000000000E-01  1.1727408408086E+00  8.0864813866304E-01
    70  6.9000000000000E-01  1.1291944921138E+00  8.5490922948257E-01
    71  7.0000000000000E-01  1.0838235496357E+00  9.0086631261984E-01
    72  7.1000000000000E-01  1.0367417789107E+00  9.4642573665297E-01
    73  7.2000000000000E-01  9.8806914542200E-01  9.9149099443618E-01
    74  7.3000000000000E-01  9.3793168963047E-01  1.0359623634815E+00
    75  7.4000000000000E-01  8.8646136710963E-01  1.0797365905189E+00
    76  7.5000000000000E-01  8.3379584999155E-01  1.1227066312798E+00
    77  7.6000000000000E-01  7.8007828625724E-01  1.1647614559562E+00
    78  7.7000000000000E-01  7.2545701380709E-01  1.2057859300229E+00
    79  7.8000000000000E-01  6.7008522671447E-01  1.2456607791877E+00
    80  7.9000000000000E-01  6.1412059159625E-01  1.2842626461556E+00
    81  8.0000000000000E-01  5.5772481262093E-01  1.3214642456787E+00
    82  8.1000000000000E-01  5.0106314431168E-01  1.3571346230237E+00
    83  8.2000000000000E-01  4.4430385198032E-01  1.3911395195394E+00
    84  8.3000000000000E-01  3.8761762034063E-01  1.4233418474684E+00
    85  8.4000000000000E-01  3.3117691158638E-01  1.4536022745376E+00
    86  8.5000000000000E-01  2.7515527497210E-01  1.4817799172035E+00
    87  8.6000000000000E-01  2.1972661069190E-01  1.5077331397383E+00
    88  8.7000000000000E-01  1.6506439160470E-01  1.5313204546524E+00
    89  8.8000000000000E-01  1.1134084709168E-01  1.5524015182694E+00
    90  8.9000000000000E-01  5.8726114043978E-02  1.5708382136358E+00
    91  9.0000000000000E-01  7.3873606546264E-03  1.5864958113729E+00
    92  9.1000000000000E-01 -4.2512110680487E-02  1.5992441975903E+00
    93  9.2000000000000E-01 -9.0813774472927E-02  1.6089591566017E+00
    94  9.3000000000000E-01 -1.3736479987286E-01  1.6155236949268E+00
    95  9.4000000000000E-01 -1.8201896719285E-01  1.6188293919619E+00
    96  9.5000000000000E-01 -2.2463757503888E-01  1.6187777617555E+00
    97  9.6000000000000E-01 -2.6509032959340E-01  1.6152816095678E+00
    98  9.7000000000000E-01 -3.0325620741838E-01  1.6082663663256E+00
    99  9.8000000000000E-01 -3.3902428306787E-01  1.5976713837223E+00
   100  9.9000000000000E-01 -3.7229451282193E-01  1.5834511725685E+00
   101  1.0000000000000E+00 -4.0297846598110E-01  1.5655765670731E+00
   102  1.0100000000000E+00 -4.3099999539176E-01  1.5440357980357E+00
   103  1.0200000000000E+00 -4.5629583920953E-01  1.5188354584565E+00
   104  1.0300000000000E+00 -4.7881614634825E-01  1.4900013458210E+00
   105  1.0400000000000E+00 -4.9852491860196E-01  1.4575791662844E+00
   106  1.0500000000000E+00 -5.1540036306457E-01  1.4216350871607E+00
   107  1.0600000000000E+00 -5.2943514920050E-01  1.3822561255027E+00
   108  1.0700000000000E+00 -5.4063656573070E-01  1.3395503621249E+00
   109  1.0800000000000E+00 -5.4902657338880E-01  1.2936469721622E+00
   110  1.0900000000000E+00 -5.5464175055843E-01  1.2446960651477E+00
   111  1.1000000000000E+00 -5.5753312981661E-01  1.1928683296180E+00
   112  1.1100000000000E+00 -5.5776592447195E-01  1.1383544793895E+00
   113  1.1200000000000E+00 -5.5541914528053E-01  1.0813645008682E+00
   114  1.1300000000000E+00 -5.5058510864721E-01  1.0221267030403E+00
   115  1.1400000000000E+00 -5.4336883874716E-01  9.6088657409728E-01
   116  1.1500000000000E+00 -5.3388736713668E-01  8.9790545098032E-01
   117  1.1600000000000E+00 -5.2226893453154E-01  8.3345901041556E-01
   118  1.1700000000000E+00 -5.0865210052162E-01  7.6783559226851E-01
   119  1.1800000000000E+00 -4.9318476803022E-01  7.0133436820734E-01
   120  1.1900000000000E+00 -4.7602313031957E-01  6.3426337073371E-01
   121  1.2000000000000E+00 -4.5733054926526E-01  5.6693739956645E-01
   122  1.2100000000000E+00 -4.3727637446727E-01  4.9967582413651E-01
   123  1.2200000000000E+00 -4.1603471352247E-01  4.3280030254588E-01
   124  1.2300000000000E+00 -3.9378316443702E-01  3.6663243872483E-01
   125  1.2400000000000E+00 -3.7070152170832E-01  3.0149140069330E-01
   126  1.2500000000000E+00 -3.4697046803605E-01  2.3769152375150E-01
   127  1.2600000000000E+00 -3.2277026393244E-01  1.7553992309722E-01
   128  1.2700000000000E+00 -2.9827944768371E-01  1.1533414076984E-01
   129  1.2800000000000E+00 -2.7367355816465E-01  5.7359851949566E-02
   130  1.2900000000000E+00 -2.4912389298856E-01  1.8886556980781E-03
   131  1.3000000000000E+00 -2.2479631289387E-01 -5.0824029771119E-02
   132  1.3100000000000E+00 -2.0085010940900E-01 -1.0054092611465E-01
   133  1.3200000000000E+00 -1.7743672611350E-01 -1.4704542467121E-01
   134  1.3300000000000E+00 -1.5469818451395E-01 -1.9014514398067E-01
   135  1.3400000000000E+00 -1.3276591728206E-01 -2.2967414711269E-01
   136  1.3500000000000E+00 -1.1175989019955E-01 -2.6549430071572E-01
   137  1.3600000000000E+00 -9.1787830107578E-02 -2.9749641842998E-01
   138  1.3700000000000E+00 -7.2944571235572E-02 -3.2560115650530E-01
   139  1.3800000000000E+00 -5.5311524781294E-02 -3.4975965366363E-01
   140  1.3900000000000E+00 -3.8956276574435E-02 -3.6995390577002E-01
   141  1.4000000000000E+00 -2.3932316372698E-02 -3.8619686860091E-01
   142  1.4100000000000E+00 -1.0278901057001E-02 -3.9853228466737E-01
   143  1.4200000000000E+00  1.9789473233317E-03 -4.0703423279613E-01
   144  1.4300000000000E+00  1.2830309043118E-02 -4.1180640196894E-01
   145  1.4400000000000E+00  2.2278101455084E-02 -4.1298109371746E-01
   146  1.4500000000000E+00  3.0338684066458E-02 -4.1071796017616E-01
   147  1.4600000000000E+00  3.7041338304572E-02 -4.0520248763428E-01
   148  1.4700000000000E+00  4.2427627609114E-02 -3.9664423809947E-01
   149  1.4800000000000E+00  4.6550644707921E-02 -3.8527486394955E-01
   150  1.4900000000000E+00  4.9474154088240E-02 -3.7134591317945E-01
   151  1.5000000000000E+00  5.1271638750518E-02 -3.5512644501327E-01
   152  1.5100000000000E+00  5.2025261319871E-02 -3.3690047773211E-01
   153  1.5200000000000E+00  5.1824750477537E-02 -3.1696429243533E-01
   154  1.5300000000000E+00  5.0766224448806E-02 -2.9562361808210E-01
   155  1.5400000000000E+00  4.8950963940946E-02 -2.7319072454032E-01
   156  1.5500000000000E+00  4.6484147453440E-02 -2.4998145147885E-01
   157  1.5600000000000E+00  4.3473562278393E-02 -2.2631220176430E-01
   158  1.5700000000000E+00  4.0028304766283E-02 -2.0249692855536E-01
   159  1.5800000000000E+00  3.6257483547942E-02 -1.7884414551734E-01
   160  1.5900000000000E+00  3.2268939153876E-02 -1.5565398905419E-01
   161  1.6000000000000E+00  2.8167996356395E-02 -1.3321536725309E-01
   162  1.6100000000000E+00  2.4056250849441E-02 -1.1180320058793E-01
   163  1.6200000000000E+00  2.0030417012466E-02 -9.1675808731010E-02
   164  1.6300000000000E+00  1.6182504421161E-02 -7.3075021535404E-02
   165  1.6400000000000E+00  1.2598553582196E-02 -5.6223415281346E-02
   166  1.6500000000000E+00  9.3531458944405E-03 -4.1312963422671E-02
   167  1.6600000000000E+00  6.5123154986991E-03 -2.8510734558579E-02
   168  1.6700000000000E+00  4.1328746640327E-03 -1.7957393758719E-02
   169  1.6800000000000E+00  2.2623241578164E-03 -9.7679760628332E-03
   170  1.6900000000000E+00  9.3336796264746E-04 -4.0094769375378E-03
   171  1.7000000000000E+00  1.8890040090716E-04 -8.0809820006071E-04
   172  1.7100000000000E+00 -1.2497074889932E-05  5.3360709643113E-05
   173  1.7200000000000E+00  3.0008545253912E-06 -1.2817805484709E-05
   174  1.73  0.  0.
   175  1.74  0.  0.
   176  1.75  0.  0.
   177  1.76  0.  0.
   178  1.77  0.  0.
   179  1.78  0.  0.
   180  1.79  0.  0.
   181  1.80  0.  0.
   182  1.81  0.  0.
   183  1.82  0.  0.
   184  1.83  0.  0.
   185  1.84  0.  0.
   186  1.85  0.  0.
   187  1.86  0.  0.
   188  1.87  0.  0.
   189  1.88  0.  0.
   190  1.89  0.  0.
   191  1.90  0.  0.
   192  1.91  0.  0.
   193  1.92  0.  0.
   194  1.93  0.  0.
   195  1.94  0.  0.
   196  1.95  0.  0.
   197  1.96  0.  0.
   198  1.97  0.  0.
   199  1.98  0.  0.
   200  1.99  0.  0.
   201  2.00  0.  0.
   202  2.01  0.  0.
   203  2.02  0.  0.
   204  2.03  0.  0.
   205  2.04  0.  0.
   206  2.05  0.  0.
   207  2.06  0.  0.
   208  2.07  0.  0.
   209  2.08  0.  0.
   210  2.09  0.  0.
   211  2.10  0.  0.
   212  2.11  0.  0.
   213  2.12  0.  0.
   214  2.13  0.  0.
   215  2.14  0.  0.
   216  2.15  0.  0.
   217  2.16  0.  0.
   218  2.17  0.  0.
   219  2.18  0.  0.
   220  2.19  0.  0.
   221  2.20  0.  0.
   222  2.21  0.  0.
   223  2.22  0.  0.
   224  2.23  0.  0.
   225  2.24  0.  0.
   226  2.25  0.  0.
   227  2.26  0.  0.
   228  2.27  0.  0.
   229  2.28  0.  0.
   230  2.29  0.  0.
   231  2.30  0.  0.
   232  2.31  0.  0.
   233  2.32  0.  0.
   234  2.33  0.  0.
   235  2.34  0.  0.
   236  2.35  0.  0.
   237  2.36  0.  0.
   238  2.37  0.  0.
   239  2.38  0.  0.
   240  2.39  0.  0.
   241  2.40  0.  0.
   242  2.41  0.  0.
   243  2.42  0.  0.
   244  2.43  0.  0.
   245  2.44  0.  0.
   246  2.45  0.  0.
   247  2.46  0.  0.
   248  2.47  0.  0.
   249  2.48  0.  0.
   250  2.49  0.  0.
   251  2.50  0.  0.
   252  2.51  0.  0.
   253  2.52  0.  0.
   254  2.53  0.  0.
   255  2.54  0.  0.
   256  2.55  0.  0.
   257  2.56  0.  0.
   258  2.57  0.  0.
   259  2.58  0.  0.
   260  2.59  0.  0.
   261  2.60  0.  0.
   262  2.61  0.  0.
   263  2.62  0.  0.
   264  2.63  0.  0.
   265  2.64  0.  0.
   266  2.65  0.  0.
   267  2.66  0.  0.
   268  2.67  0.  0.
   269  2.68  0.  0.
   270  2.69  0.  0.
   271  2.70  0.  0.
   272  2.71  0.  0.
   273  2.72  0.  0.
   274  2.73  0.  0.
   275  2.74  0.  0.
   276  2.75  0.  0.
   277  2.76  0.  0.
   278  2.77  0.  0.
   279  2.78  0.  0.
   280  2.79  0.  0.
   281  2.80  0.  0.
   282  2.81  0.  0.
   283  2.82  0.  0.
   284  2.83  0.  0.
   285  2.84  0.  0.
   286  2.85  0.  0.
   287  2.86  0.  0.
   288  2.87  0.  0.
   289  2.88  0.  0.
   290  2.89  0.  0.
   291  2.90  0.  0.