<UPF version="2.0.1">
  <PP_INFO>

 This pseudopotential file has been produced using the code
 ONCVPSP  (Optimized Norm-Conservinng Vanderbilt PSeudopotential)
 fully-relativistic version 4.0.1 06/04/2019 by D. R. Hamann
 The code is available through a link at URL www.mat-simresearch.com.
 Documentation with the package provides a full discription of the
 input data below.


 While it is not required under the terms of the GNU GPL, it is
 suggested that you cite D. R. Hamann, Phys. Rev. B 88, 085117 (2013)
 in any publication using these pseudopotentials.

    <PP_INPUTFILE>
# ATOM AND REFERENCE CONFIGURATION
# atsym  z   nc   nv     iexc    psfile
  Ne 10.00    1    2   -1012      both
#
#   n    l    f        energy (Ha)
    1    0    2.00
    2    0    2.00
    2    1    6.00
#
# PSEUDOPOTENTIAL AND OPTIMIZATION
# lmax
    1
#
#   l,   rc,     ep,   ncon, nbas, qcut
    0   1.30000   0.00000    4    7   8.00000
    1   1.70000   0.00000    4    7   8.00000
#
# LOCAL POTENTIAL
# lloc, lpopt,  rc(5),   dvloc0
    4    5   1.30000      0.00000
#
# VANDERBILT-KLEINMAN-BYLANDER PROJECTORs
# l, nproj, debl
    0    2   1.50000
    1    2   1.50000
#
# MODEL CORE CHARGE
# icmod, fcfact, rcfact
    0   0.00000   0.00000
#
# LOG DERIVATIVE ANALYSIS
# epsh1, epsh2, depsh
  -12.00   12.00    0.02
#
# OUTPUT GRID
# rlmax, drl
    4.00    0.01
#
# TEST CONFIGURATIONS
# ncnf
    0
# nvcnf
#   n    l    f
    </PP_INPUTFILE>
  </PP_INFO>
  <!--                               -->
  <!-- END OF HUMAN READABLE SECTION -->
  <!--                               -->
    <PP_HEADER
       generated="Generated using ONCVPSP code by D. R. Hamann"
       author="anonymous"
       date="250925"
       comment=""
       element="Ne"
       pseudo_type="NC"
       relativistic="full"
       is_ultrasoft="F"
       is_paw="F"
       is_coulomb="F"
       has_so="T"
       has_wfc="F"
       has_gipaw="F"
       core_correction="F"
       functional="SLA  PW   NOGX NOGC"
       z_valence="    8.00"
       total_psenergy="  -6.65357069695E+01"
       rho_cutoff="   7.49000000000E+00"
       l_max="1"
       l_local="-1"
       mesh_size="   750"
       number_of_wfc="3"
       number_of_proj="6"/>
 <PP_MESH>
   <PP_R type="real"  size=" 750" columns="8">
    0.0000    0.0100    0.0200    0.0300    0.0400    0.0500    0.0600    0.0700
    0.0800    0.0900    0.1000    0.1100    0.1200    0.1300    0.1400    0.1500
    0.1600    0.1700    0.1800    0.1900    0.2000    0.2100    0.2200    0.2300
    0.2400    0.2500    0.2600    0.2700    0.2800    0.2900    0.3000    0.3100
    0.3200    0.3300    0.3400    0.3500    0.3600    0.3700    0.3800    0.3900
    0.4000    0.4100    0.4200    0.4300    0.4400    0.4500    0.4600    0.4700
    0.4800    0.4900    0.5000    0.5100    0.5200    0.5300    0.5400    0.5500
    0.5600    0.5700    0.5800    0.5900    0.6000    0.6100    0.6200    0.6300
    0.6400    0.6500    0.6600    0.6700    0.6800    0.6900    0.7000    0.7100
    0.7200    0.7300    0.7400    0.7500    0.7600    0.7700    0.7800    0.7900
    0.8000    0.8100    0.8200    0.8300    0.8400    0.8500    0.8600    0.8700
    0.8800    0.8900    0.9000    0.9100    0.9200    0.9300    0.9400    0.9500
    0.9600    0.9700    0.9800    0.9900    1.0000    1.0100    1.0200    1.0300
    1.0400    1.0500    1.0600    1.0700    1.0800    1.0900    1.1000    1.1100
    1.1200    1.1300    1.1400    1.1500    1.1600    1.1700    1.1800    1.1900
    1.2000    1.2100    1.2200    1.2300    1.2400    1.2500    1.2600    1.2700
    1.2800    1.2900    1.3000    1.3100    1.3200    1.3300    1.3400    1.3500
    1.3600    1.3700    1.3800    1.3900    1.4000    1.4100    1.4200    1.4300
    1.4400    1.4500    1.4600    1.4700    1.4800    1.4900    1.5000    1.5100
    1.5200    1.5300    1.5400    1.5500    1.5600    1.5700    1.5800    1.5900
    1.6000    1.6100    1.6200    1.6300    1.6400    1.6500    1.6600    1.6700
    1.6800    1.6900    1.7000    1.7100    1.7200    1.7300    1.7400    1.7500
    1.7600    1.7700    1.7800    1.7900    1.8000    1.8100    1.8200    1.8300
    1.8400    1.8500    1.8600    1.8700    1.8800    1.8900    1.9000    1.9100
    1.9200    1.9300    1.9400    1.9500    1.9600    1.9700    1.9800    1.9900
    2.0000    2.0100    2.0200    2.0300    2.0400    2.0500    2.0600    2.0700
    2.0800    2.0900    2.1000    2.1100    2.1200    2.1300    2.1400    2.1500
    2.1600    2.1700    2.1800    2.1900    2.2000    2.2100    2.2200    2.2300
    2.2400    2.2500    2.2600    2.2700    2.2800    2.2900    2.3000    2.3100
    2.3200    2.3300    2.3400    2.3500    2.3600    2.3700    2.3800    2.3900
    2.4000    2.4100    2.4200    2.4300    2.4400    2.4500    2.4600    2.4700
    2.4800    2.4900    2.5000    2.5100    2.5200    2.5300    2.5400    2.5500
    2.5600    2.5700    2.5800    2.5900    2.6000    2.6100    2.6200    2.6300
    2.6400    2.6500    2.6600    2.6700    2.6800    2.6900    2.7000    2.7100
    2.7200    2.7300    2.7400    2.7500    2.7600    2.7700    2.7800    2.7900
    2.8000    2.8100    2.8200    2.8300    2.8400    2.8500    2.8600    2.8700
    2.8800    2.8900    2.9000    2.9100    2.9200    2.9300    2.9400    2.9500
    2.9600    2.9700    2.9800    2.9900    3.0000    3.0100    3.0200    3.0300
    3.0400    3.0500    3.0600    3.0700    3.0800    3.0900    3.1000    3.1100
    3.1200    3.1300    3.1400    3.1500    3.1600    3.1700    3.1800    3.1900
    3.2000    3.2100    3.2200    3.2300    3.2400    3.2500    3.2600    3.2700
    3.2800    3.2900    3.3000    3.3100    3.3200    3.3300    3.3400    3.3500
    3.3600    3.3700    3.3800    3.3900    3.4000    3.4100    3.4200    3.4300
    3.4400    3.4500    3.4600    3.4700    3.4800    3.4900    3.5000    3.5100
    3.5200    3.5300    3.5400    3.5500    3.5600    3.5700    3.5800    3.5900
    3.6000    3.6100    3.6200    3.6300    3.6400    3.6500    3.6600    3.6700
    3.6800    3.6900    3.7000    3.7100    3.7200    3.7300    3.7400    3.7500
    3.7600    3.7700    3.7800    3.7900    3.8000    3.8100    3.8200    3.8300
    3.8400    3.8500    3.8600    3.8700    3.8800    3.8900    3.9000    3.9100
    3.9200    3.9300    3.9400    3.9500    3.9600    3.9700    3.9800    3.9900
    4.0000    4.0100    4.0200    4.0300    4.0400    4.0500    4.0600    4.0700
    4.0800    4.0900    4.1000    4.1100    4.1200    4.1300    4.1400    4.1500
    4.1600    4.1700    4.1800    4.1900    4.2000    4.2100    4.2200    4.2300
    4.2400    4.2500    4.2600    4.2700    4.2800    4.2900    4.3000    4.3100
    4.3200    4.3300    4.3400    4.3500    4.3600    4.3700    4.3800    4.3900
    4.4000    4.4100    4.4200    4.4300    4.4400    4.4500    4.4600    4.4700
    4.4800    4.4900    4.5000    4.5100    4.5200    4.5300    4.5400    4.5500
    4.5600    4.5700    4.5800    4.5900    4.6000    4.6100    4.6200    4.6300
    4.6400    4.6500    4.6600    4.6700    4.6800    4.6900    4.7000    4.7100
    4.7200    4.7300    4.7400    4.7500    4.7600    4.7700    4.7800    4.7900
    4.8000    4.8100    4.8200    4.8300    4.8400    4.8500    4.8600    4.8700
    4.8800    4.8900    4.9000    4.9100    4.9200    4.9300    4.9400    4.9500
    4.9600    4.9700    4.9800    4.9900    5.0000    5.0100    5.0200    5.0300
    5.0400    5.0500    5.0600    5.0700    5.0800    5.0900    5.1000    5.1100
    5.1200    5.1300    5.1400    5.1500    5.1600    5.1700    5.1800    5.1900
    5.2000    5.2100    5.2200    5.2300    5.2400    5.2500    5.2600    5.2700
    5.2800    5.2900    5.3000    5.3100    5.3200    5.3300    5.3400    5.3500
    5.3600    5.3700    5.3800    5.3900    5.4000    5.4100    5.4200    5.4300
    5.4400    5.4500    5.4600    5.4700    5.4800    5.4900    5.5000    5.5100
    5.5200    5.5300    5.5400    5.5500    5.5600    5.5700    5.5800    5.5900
    5.6000    5.6100    5.6200    5.6300    5.6400    5.6500    5.6600    5.6700
    5.6800    5.6900    5.7000    5.7100    5.7200    5.7300    5.7400    5.7500
    5.7600    5.7700    5.7800    5.7900    5.8000    5.8100    5.8200    5.8300
    5.8400    5.8500    5.8600    5.8700    5.8800    5.8900    5.9000    5.9100
    5.9200    5.9300    5.9400    5.9500    5.9600    5.9700    5.9800    5.9900
    6.0000    6.0100    6.0200    6.0300    6.0400    6.0500    6.0600    6.0700
    6.0800    6.0900    6.1000    6.1100    6.1200    6.1300    6.1400    6.1500
    6.1600    6.1700    6.1800    6.1900    6.2000    6.2100    6.2200    6.2300
    6.2400    6.2500    6.2600    6.2700    6.2800    6.2900    6.3000    6.3100
    6.3200    6.3300    6.3400    6.3500    6.3600    6.3700    6.3800    6.3900
    6.4000    6.4100    6.4200    6.4300    6.4400    6.4500    6.4600    6.4700
    6.4800    6.4900    6.5000    6.5100    6.5200    6.5300    6.5400    6.5500
    6.5600    6.5700    6.5800    6.5900    6.6000    6.6100    6.6200    6.6300
    6.6400    6.6500    6.6600    6.6700    6.6800    6.6900    6.7000    6.7100
    6.7200    6.7300    6.7400    6.7500    6.7600    6.7700    6.7800    6.7900
    6.8000    6.8100    6.8200    6.8300    6.8400    6.8500    6.8600    6.8700
    6.8800    6.8900    6.9000    6.9100    6.9200    6.9300    6.9400    6.9500
    6.9600    6.9700    6.9800    6.9900    7.0000    7.0100    7.0200    7.0300
    7.0400    7.0500    7.0600    7.0700    7.0800    7.0900    7.1000    7.1100
    7.1200    7.1300    7.1400    7.1500    7.1600    7.1700    7.1800    7.1900
    7.2000    7.2100    7.2200    7.2300    7.2400    7.2500    7.2600    7.2700
    7.2800    7.2900    7.3000    7.3100    7.3200    7.3300    7.3400    7.3500
    7.3600    7.3700    7.3800    7.3900    7.4000    7.4100    7.4200    7.4300
    7.4400    7.4500    7.4600    7.4700    7.4800    7.4900
   </PP_R>
   <PP_RAB type="real"  size=" 750" columns="8">
    0.0100    0.0100    0.0100    0.0100    0.0100    0.0100    0.0100    0.0100
    0.0100    0.0100    0.0100    0.0100    0.0100    0.0100    0.0100    0.0100
    0.0100    0.0100    0.0100    0.0100    0.0100    0.0100    0.0100    0.0100
    0.0100    0.0100    0.0100    0.0100    0.0100    0.0100    0.0100    0.0100
    0.0100    0.0100    0.0100    0.0100    0.0100    0.0100    0.0100    0.0100
    0.0100    0.0100    0.0100    0.0100    0.0100    0.0100    0.0100    0.0100
    0.0100    0.0100    0.0100    0.0100    0.0100    0.0100    0.0100    0.0100
    0.0100    0.0100    0.0100    0.0100    0.0100    0.0100    0.0100    0.0100
    0.0100    0.0100    0.0100    0.0100    0.0100    0.0100    0.0100    0.0100
    0.0100    0.0100    0.0100    0.0100    0.0100    0.0100    0.0100    0.0100
    0.0100    0.0100    0.0100    0.0100    0.0100    0.0100    0.0100    0.0100
    0.0100    0.0100    0.0100    0.0100    0.0100    0.0100    0.0100    0.0100
    0.0100    0.0100    0.0100    0.0100    0.0100    0.0100    0.0100    0.0100
    0.0100    0.0100    0.0100    0.0100    0.0100    0.0100    0.0100    0.0100
    0.0100    0.0100    0.0100    0.0100    0.0100    0.0100    0.0100    0.0100
    0.0100    0.0100    0.0100    0.0100    0.0100    0.0100    0.0100    0.0100
    0.0100    0.0100    0.0100    0.0100    0.0100    0.0100    0.0100    0.0100
    0.0100    0.0100    0.0100    0.0100    0.0100    0.0100    0.0100    0.0100
    0.0100    0.0100    0.0100    0.0100    0.0100    0.0100    0.0100    0.0100
    0.0100    0.0100    0.0100    0.0100    0.0100    0.0100    0.0100    0.0100
    0.0100    0.0100    0.0100    0.0100    0.0100    0.0100    0.0100    0.0100
    0.0100    0.0100    0.0100    0.0100    0.0100    0.0100    0.0100    0.0100
    0.0100    0.0100    0.0100    0.0100    0.0100    0.0100    0.0100    0.0100
    0.0100    0.0100    0.0100    0.0100    0.0100    0.0100    0.0100    0.0100
    0.0100    0.0100    0.0100    0.0100    0.0100    0.0100    0.0100    0.0100
    0.0100    0.0100    0.0100    0.0100    0.0100    0.0100    0.0100    0.0100
    0.0100    0.0100    0.0100    0.0100    0.0100    0.0100    0.0100    0.0100
    0.0100    0.0100    0.0100    0.0100    0.0100    0.0100    0.0100    0.0100
    0.0100    0.0100    0.0100    0.0100    0.0100    0.0100    0.0100    0.0100
    0.0100    0.0100    0.0100    0.0100    0.0100    0.0100    0.0100    0.0100
    0.0100    0.0100    0.0100    0.0100    0.0100    0.0100    0.0100    0.0100
    0.0100    0.0100    0.0100    0.0100    0.0100    0.0100    0.0100    0.0100
    0.0100    0.0100    0.0100    0.0100    0.0100    0.0100    0.0100    0.0100
    0.0100    0.0100    0.0100    0.0100    0.0100    0.0100    0.0100    0.0100
    0.0100    0.0100    0.0100    0.0100    0.0100    0.0100    0.0100    0.0100
    0.0100    0.0100    0.0100    0.0100    0.0100    0.0100    0.0100    0.0100
    0.0100    0.0100    0.0100    0.0100    0.0100    0.0100    0.0100    0.0100
    0.0100    0.0100    0.0100    0.0100    0.0100    0.0100    0.0100    0.0100
    0.0100    0.0100    0.0100    0.0100    0.0100    0.0100    0.0100    0.0100
    0.0100    0.0100    0.0100    0.0100    0.0100    0.0100    0.0100    0.0100
    0.0100    0.0100    0.0100    0.0100    0.0100    0.0100    0.0100    0.0100
    0.0100    0.0100    0.0100    0.0100    0.0100    0.0100    0.0100    0.0100
    0.0100    0.0100    0.0100    0.0100    0.0100    0.0100    0.0100    0.0100
    0.0100    0.0100    0.0100    0.0100    0.0100    0.0100    0.0100    0.0100
    0.0100    0.0100    0.0100    0.0100    0.0100    0.0100    0.0100    0.0100
    0.0100    0.0100    0.0100    0.0100    0.0100    0.0100    0.0100    0.0100
    0.0100    0.0100    0.0100    0.0100    0.0100    0.0100    0.0100    0.0100
    0.0100    0.0100    0.0100    0.0100    0.0100    0.0100    0.0100    0.0100
    0.0100    0.0100    0.0100    0.0100    0.0100    0.0100    0.0100    0.0100
    0.0100    0.0100    0.0100    0.0100    0.0100    0.0100    0.0100    0.0100
    0.0100    0.0100    0.0100    0.0100    0.0100    0.0100    0.0100    0.0100
    0.0100    0.0100    0.0100    0.0100    0.0100    0.0100    0.0100    0.0100
    0.0100    0.0100    0.0100    0.0100    0.0100    0.0100    0.0100    0.0100
    0.0100    0.0100    0.0100    0.0100    0.0100    0.0100    0.0100    0.0100
    0.0100    0.0100    0.0100    0.0100    0.0100    0.0100    0.0100    0.0100
    0.0100    0.0100    0.0100    0.0100    0.0100    0.0100    0.0100    0.0100
    0.0100    0.0100    0.0100    0.0100    0.0100    0.0100    0.0100    0.0100
    0.0100    0.0100    0.0100    0.0100    0.0100    0.0100    0.0100    0.0100
    0.0100    0.0100    0.0100    0.0100    0.0100    0.0100    0.0100    0.0100
    0.0100    0.0100    0.0100    0.0100    0.0100    0.0100    0.0100    0.0100
    0.0100    0.0100    0.0100    0.0100    0.0100    0.0100    0.0100    0.0100
    0.0100    0.0100    0.0100    0.0100    0.0100    0.0100    0.0100    0.0100
    0.0100    0.0100    0.0100    0.0100    0.0100    0.0100    0.0100    0.0100
    0.0100    0.0100    0.0100    0.0100    0.0100    0.0100    0.0100    0.0100
    0.0100    0.0100    0.0100    0.0100    0.0100    0.0100    0.0100    0.0100
    0.0100    0.0100    0.0100    0.0100    0.0100    0.0100    0.0100    0.0100
    0.0100    0.0100    0.0100    0.0100    0.0100    0.0100    0.0100    0.0100
    0.0100    0.0100    0.0100    0.0100    0.0100    0.0100    0.0100    0.0100
    0.0100    0.0100    0.0100    0.0100    0.0100    0.0100    0.0100    0.0100
    0.0100    0.0100    0.0100    0.0100    0.0100    0.0100    0.0100    0.0100
    0.0100    0.0100    0.0100    0.0100    0.0100    0.0100    0.0100    0.0100
    0.0100    0.0100    0.0100    0.0100    0.0100    0.0100    0.0100    0.0100
    0.0100    0.0100    0.0100    0.0100    0.0100    0.0100    0.0100    0.0100
    0.0100    0.0100    0.0100    0.0100    0.0100    0.0100    0.0100    0.0100
    0.0100    0.0100    0.0100    0.0100    0.0100    0.0100    0.0100    0.0100
    0.0100    0.0100    0.0100    0.0100    0.0100    0.0100    0.0100    0.0100
    0.0100    0.0100    0.0100    0.0100    0.0100    0.0100    0.0100    0.0100
    0.0100    0.0100    0.0100    0.0100    0.0100    0.0100    0.0100    0.0100
    0.0100    0.0100    0.0100    0.0100    0.0100    0.0100    0.0100    0.0100
    0.0100    0.0100    0.0100    0.0100    0.0100    0.0100    0.0100    0.0100
    0.0100    0.0100    0.0100    0.0100    0.0100    0.0100    0.0100    0.0100
    0.0100    0.0100    0.0100    0.0100    0.0100    0.0100    0.0100    0.0100
    0.0100    0.0100    0.0100    0.0100    0.0100    0.0100    0.0100    0.0100
    0.0100    0.0100    0.0100    0.0100    0.0100    0.0100    0.0100    0.0100
    0.0100    0.0100    0.0100    0.0100    0.0100    0.0100    0.0100    0.0100
    0.0100    0.0100    0.0100    0.0100    0.0100    0.0100    0.0100    0.0100
    0.0100    0.0100    0.0100    0.0100    0.0100    0.0100    0.0100    0.0100
    0.0100    0.0100    0.0100    0.0100    0.0100    0.0100    0.0100    0.0100
    0.0100    0.0100    0.0100    0.0100    0.0100    0.0100    0.0100    0.0100
    0.0100    0.0100    0.0100    0.0100    0.0100    0.0100    0.0100    0.0100
    0.0100    0.0100    0.0100    0.0100    0.0100    0.0100    0.0100    0.0100
    0.0100    0.0100    0.0100    0.0100    0.0100    0.0100    0.0100    0.0100
    0.0100    0.0100    0.0100    0.0100    0.0100    0.0100    0.0100    0.0100
    0.0100    0.0100    0.0100    0.0100    0.0100    0.0100
   </PP_RAB>
 </PP_MESH>
  <PP_LOCAL type="real"  size=" 750" columns="4">
   -2.6960890582E+01   -2.6958933374E+01   -2.6953067723E+01   -2.6943311463E+01
   -2.6929693775E+01   -2.6912254415E+01   -2.6891042704E+01   -2.6866116306E+01
   -2.6837539883E+01   -2.6805383671E+01   -2.6769722042E+01   -2.6730632106E+01
   -2.6688192399E+01   -2.6642481683E+01   -2.6593577896E+01   -2.6541557254E+01
   -2.6486493521E+01   -2.6428457431E+01   -2.6367516276E+01   -2.6303733622E+01
   -2.6237169164E+01   -2.6167878683E+01   -2.6095914106E+01   -2.6021323643E+01
   -2.5944151985E+01   -2.5864440555E+01   -2.5782227802E+01   -2.5697549514E+01
   -2.5610439157E+01   -2.5520928217E+01   -2.5429046548E+01   -2.5334822720E+01
   -2.5238284356E+01   -2.5139458456E+01   -2.5038371716E+01   -2.4935050822E+01
   -2.4829522726E+01   -2.4721814910E+01   -2.4611955622E+01   -2.4499974092E+01
   -2.4385900734E+01   -2.4269767315E+01   -2.4151607112E+01   -2.4031455043E+01
   -2.3909347779E+01   -2.3785323836E+01   -2.3659423645E+01   -2.3531689606E+01
   -2.3402166124E+01   -2.3270899621E+01   -2.3137938544E+01   -2.3003333341E+01
   -2.2867136438E+01   -2.2729402193E+01   -2.2590186837E+01   -2.2449548410E+01
   -2.2307546676E+01   -2.2164243039E+01   -2.2019700442E+01   -2.1873983264E+01
   -2.1727157204E+01   -2.1579289163E+01   -2.1430447123E+01   -2.1280700017E+01
   -2.1130117601E+01   -2.0978770318E+01   -2.0826729165E+01   -2.0674065562E+01
   -2.0520851209E+01   -2.0367157962E+01   -2.0213057691E+01   -2.0058622158E+01
   -1.9903922885E+01   -1.9749031029E+01   -1.9594017264E+01   -1.9438951663E+01
   -1.9283903586E+01   -1.9128941573E+01   -1.8974133240E+01   -1.8819545184E+01
   -1.8665242888E+01   -1.8511290640E+01   -1.8357751446E+01   -1.8204686961E+01
   -1.8052157415E+01   -1.7900221552E+01   -1.7748936572E+01   -1.7598358074E+01
   -1.7448540014E+01   -1.7299534661E+01   -1.7151392558E+01   -1.7004162489E+01
   -1.6857891453E+01   -1.6712624638E+01   -1.6568405404E+01   -1.6425275262E+01
   -1.6283273864E+01   -1.6142438992E+01   -1.6002806552E+01   -1.5864410569E+01
   -1.5727283183E+01   -1.5591454651E+01   -1.5456953347E+01   -1.5323805763E+01
   -1.5192036515E+01   -1.5061668345E+01   -1.4932722125E+01   -1.4805216865E+01
   -1.4679169716E+01   -1.4554595972E+01   -1.4431509078E+01   -1.4309920630E+01
   -1.4189840380E+01   -1.4071276232E+01   -1.3954234249E+01   -1.3838718646E+01
   -1.3724731786E+01   -1.3612274180E+01   -1.3501344476E+01   -1.3391939449E+01
   -1.3284053995E+01   -1.3177681112E+01   -1.3072811889E+01   -1.2969435486E+01
   -1.2867539113E+01   -1.2767108010E+01   -1.2668125423E+01   -1.2570572574E+01
   -1.2474428631E+01   -1.2379670680E+01   -1.2286273690E+01   -1.2194210472E+01
   -1.2103452363E+01   -1.2013971101E+01   -1.1925739441E+01   -1.1838731107E+01
   -1.1752920757E+01   -1.1668283948E+01   -1.1584797092E+01   -1.1502437428E+01
   -1.1421182981E+01   -1.1341012528E+01   -1.1261905562E+01   -1.1183842261E+01
   -1.1106803450E+01   -1.1030770576E+01   -1.0955725665E+01   -1.0881651301E+01
   -1.0808530587E+01   -1.0736347123E+01   -1.0665084969E+01   -1.0594728621E+01
   -1.0525262984E+01   -1.0456673342E+01   -1.0388945334E+01   -1.0322064930E+01
   -1.0256018405E+01   -1.0190792316E+01   -1.0126373481E+01   -1.0062748956E+01
   -9.9999060161E+00   -9.9378321363E+00   -9.8765149722E+00   -9.8159423434E+00
   -9.7561022174E+00   -9.6969826946E+00   -9.6385719939E+00   -9.5808584404E+00
   -9.5238304529E+00   -9.4674765337E+00   -9.4117852587E+00   -9.3567452695E+00
   -9.3023452906E+00   -9.2485742176E+00   -9.1954212096E+00   -9.1428756708E+00
   -9.0909272465E+00   -9.0395658160E+00   -8.9887814859E+00   -8.9385645840E+00
   -8.8889056530E+00   -8.8397954446E+00   -8.7912249139E+00   -8.7431852134E+00
   -8.6956676884E+00   -8.6486638708E+00   -8.6021654751E+00   -8.5561643926E+00
   -8.5106526875E+00   -8.4656225918E+00   -8.4210665009E+00   -8.3769769697E+00
   -8.3333467081E+00   -8.2901685772E+00   -8.2474355850E+00   -8.2051408832E+00
   -8.1632777633E+00   -8.1218396528E+00   -8.0808201120E+00   -8.0402128310E+00
   -8.0000116256E+00   -7.9602104349E+00   -7.9208033182E+00   -7.8817844515E+00
   -7.8431481252E+00   -7.8048887412E+00   -7.7670008100E+00   -7.7294789480E+00
   -7.6923178754E+00   -7.6555124133E+00   -7.6190574816E+00   -7.5829480963E+00
   -7.5471793677E+00   -7.5117464975E+00   -7.4766447777E+00   -7.4418695872E+00
   -7.4074163911E+00   -7.3732807377E+00   -7.3394582572E+00   -7.3059446594E+00
   -7.2727357322E+00   -7.2398273399E+00   -7.2072154212E+00   -7.1748959875E+00
   -7.1428651216E+00   -7.1111189759E+00   -7.0796537709E+00   -7.0484657937E+00
   -7.0175513966E+00   -6.9869069955E+00   -6.9565290686E+00   -6.9264141553E+00
   -6.8965588545E+00   -6.8669598235E+00   -6.8376137768E+00   -6.8085174847E+00
   -6.7796677724E+00   -6.7510615187E+00   -6.7226956546E+00   -6.6945671627E+00
   -6.6666730759E+00   -6.6390104762E+00   -6.6115764939E+00   -6.5843683066E+00
   -6.5573831381E+00   -6.5306182575E+00   -6.5040709784E+00   -6.4777386578E+00
   -6.4516186954E+00   -6.4257085326E+00   -6.4000056519E+00   -6.3745075757E+00
   -6.3492118660E+00   -6.3241161230E+00   -6.2992179849E+00   -6.2745151270E+00
   -6.2500052608E+00   -6.2256861335E+00   -6.2015555272E+00   -6.1776112582E+00
   -6.1538511765E+00   -6.1302731649E+00   -6.1068751387E+00   -6.0836550448E+00
   -6.0606108612E+00   -6.0377405965E+00   -6.0150422892E+00   -5.9925140072E+00
   -5.9701538471E+00   -5.9479599341E+00   -5.9259304209E+00   -5.9040634875E+00
   -5.8823573409E+00   -5.8608102141E+00   -5.8394203660E+00   -5.8181860809E+00
   -5.7971056678E+00   -5.7761774602E+00   -5.7553998156E+00   -5.7347711152E+00
   -5.7142897629E+00   -5.6939541858E+00   -5.6737628330E+00   -5.6537141755E+00
   -5.6338067062E+00   -5.6140389387E+00   -5.5944094077E+00   -5.5749166681E+00
   -5.5555592951E+00   -5.5363358835E+00   -5.5172450474E+00   -5.4982854201E+00
   -5.4794556536E+00   -5.4607544181E+00   -5.4421804022E+00   -5.4237323122E+00
   -5.4054088716E+00   -5.3872088215E+00   -5.3691309196E+00   -5.3511739403E+00
   -5.3333366745E+00   -5.3156179290E+00   -5.2980165264E+00   -5.2805313049E+00
   -5.2631611179E+00   -5.2459048341E+00   -5.2287613366E+00   -5.2117295234E+00
   -5.1948083065E+00   -5.1779966123E+00   -5.1612933808E+00   -5.1446975658E+00
   -5.1282081344E+00   -5.1118240670E+00   -5.0955443569E+00   -5.0793680102E+00
   -5.0632940456E+00   -5.0473214942E+00   -5.0314493992E+00   -5.0156768160E+00
   -5.0000028116E+00   -4.9844264648E+00   -4.9689468655E+00   -4.9535631153E+00
   -4.9382743267E+00   -4.9230796231E+00   -4.9079781387E+00   -4.8929690182E+00
   -4.8780514169E+00   -4.8632245002E+00   -4.8484874438E+00   -4.8338394331E+00
   -4.8192796637E+00   -4.8048073404E+00   -4.7904216778E+00   -4.7761218999E+00
   -4.7619072398E+00   -4.7477769399E+00   -4.7337302513E+00   -4.7197664342E+00
   -4.7058847572E+00   -4.6920844979E+00   -4.6783649419E+00   -4.6647253834E+00
   -4.6511651248E+00   -4.6376834764E+00   -4.6242797568E+00   -4.6109532921E+00
   -4.5977034164E+00   -4.5845294713E+00   -4.5714308060E+00   -4.5584067771E+00
   -4.5454567484E+00   -4.5325800910E+00   -4.5197761832E+00   -4.5070444102E+00
   -4.4943841641E+00   -4.4817948438E+00   -4.4692758550E+00   -4.4568266099E+00
   -4.4444465274E+00   -4.4321350327E+00   -4.4198915573E+00   -4.4077155392E+00
   -4.3956064224E+00   -4.3835636569E+00   -4.3715866990E+00   -4.3596750106E+00
   -4.3478280598E+00   -4.3360453201E+00   -4.3243262710E+00   -4.3126703975E+00
   -4.3010771899E+00   -4.2895461444E+00   -4.2780767623E+00   -4.2666685503E+00
   -4.2553210203E+00   -4.2440336895E+00   -4.2328060801E+00   -4.2216377193E+00
   -4.2105281394E+00   -4.1994768776E+00   -4.1884834758E+00   -4.1775474809E+00
   -4.1666684443E+00   -4.1558459223E+00   -4.1450794755E+00   -4.1343686693E+00
   -4.1237130736E+00   -4.1131122624E+00   -4.1025658144E+00   -4.0920733125E+00
   -4.0816343438E+00   -4.0712484996E+00   -4.0609153755E+00   -4.0506345711E+00
   -4.0404056900E+00   -4.0302283398E+00   -4.0201021320E+00   -4.0100266823E+00
   -4.0000016099E+00   -3.9900265378E+00   -3.9801010930E+00   -3.9702249060E+00
   -3.9603976111E+00   -3.9506188461E+00   -3.9408882523E+00   -3.9312054748E+00
   -3.9215701619E+00   -3.9119819655E+00   -3.9024405408E+00   -3.8929455464E+00
   -3.8834966443E+00   -3.8740934996E+00   -3.8647357807E+00   -3.8554231593E+00
   -3.8461553101E+00   -3.8369319111E+00   -3.8277526432E+00   -3.8186171905E+00
   -3.8095252399E+00   -3.8004764816E+00   -3.7914706084E+00   -3.7825073161E+00
   -3.7735863036E+00   -3.7647072723E+00   -3.7558699266E+00   -3.7470739737E+00
   -3.7383191234E+00   -3.7296050883E+00   -3.7209315836E+00   -3.7122983271E+00
   -3.7037050395E+00   -3.6951514438E+00   -3.6866372656E+00   -3.6781622330E+00
   -3.6697260768E+00   -3.6613285300E+00   -3.6529693282E+00   -3.6446482093E+00
   -3.6363649137E+00   -3.6281191841E+00   -3.6199107656E+00   -3.6117394053E+00
   -3.6036048530E+00   -3.5955068605E+00   -3.5874451819E+00   -3.5794195735E+00
   -3.5714297937E+00   -3.5634756031E+00   -3.5555567645E+00   -3.5476730427E+00
   -3.5398242046E+00   -3.5320100193E+00   -3.5242302578E+00   -3.5164846929E+00
   -3.5087730999E+00   -3.5010952557E+00   -3.4934509392E+00   -3.4858399312E+00
   -3.4782620147E+00   -3.4707169741E+00   -3.4632045960E+00   -3.4557246689E+00
   -3.4482769828E+00   -3.4408613298E+00   -3.4334775037E+00   -3.4261252999E+00
   -3.4188045158E+00   -3.4115149505E+00   -3.4042564046E+00   -3.3970286805E+00
   -3.3898315824E+00   -3.3826649161E+00   -3.3755284888E+00   -3.3684221097E+00
   -3.3613455893E+00   -3.3542987398E+00   -3.3472813752E+00   -3.3402933105E+00
   -3.3333343629E+00   -3.3264043505E+00   -3.3195030935E+00   -3.3126304130E+00
   -3.3057861321E+00   -3.2989700751E+00   -3.2921820676E+00   -3.2854219370E+00
   -3.2786895119E+00   -3.2719846223E+00   -3.2653070995E+00   -3.2586567765E+00
   -3.2520334873E+00   -3.2454370674E+00   -3.2388673538E+00   -3.2323241844E+00
   -3.2258073988E+00   -3.2193168376E+00   -3.2128523430E+00   -3.2064137582E+00
   -3.2000009278E+00   -3.1936136975E+00   -3.1872519143E+00   -3.1809154265E+00
   -3.1746040835E+00   -3.1683177359E+00   -3.1620562356E+00   -3.1558194354E+00
   -3.1496071897E+00   -3.1434193535E+00   -3.1372557833E+00   -3.1311163368E+00
   -3.1250008724E+00   -3.1189092501E+00   -3.1128413305E+00   -3.1067969757E+00
   -3.1007760487E+00   -3.0947784134E+00   -3.0888039350E+00   -3.0828524797E+00
   -3.0769239146E+00   -3.0710181079E+00   -3.0651349289E+00   -3.0592742476E+00
   -3.0534359354E+00   -3.0476198644E+00   -3.0418259077E+00   -3.0360539395E+00
   -3.0303038349E+00   -3.0245754697E+00   -3.0188687210E+00   -3.0131834667E+00
   -3.0075195856E+00   -3.0018769572E+00   -2.9962554624E+00   -2.9906549824E+00
   -2.9850753998E+00   -2.9795165978E+00   -2.9739784604E+00   -2.9684608728E+00
   -2.9629637207E+00   -2.9574868907E+00   -2.9520302705E+00   -2.9465937483E+00
   -2.9411772134E+00   -2.9357805556E+00   -2.9304036659E+00   -2.9250464357E+00
   -2.9197087575E+00   -2.9143905243E+00   -2.9090916302E+00   -2.9038119698E+00
   -2.8985514387E+00   -2.8933099330E+00   -2.8880873497E+00   -2.8828835865E+00
   -2.8776985419E+00   -2.8725321151E+00   -2.8673842059E+00   -2.8622547150E+00
   -2.8571435438E+00   -2.8520505942E+00   -2.8469757690E+00   -2.8419189716E+00
   -2.8368801061E+00   -2.8318590773E+00   -2.8268557906E+00   -2.8218701523E+00
   -2.8169020690E+00   -2.8119514482E+00   -2.8070181981E+00   -2.8021022273E+00
   -2.7972034452E+00   -2.7923217618E+00   -2.7874570878E+00   -2.7826093344E+00
   -2.7777784135E+00   -2.7729642375E+00   -2.7681667196E+00   -2.7633857735E+00
   -2.7586213134E+00   -2.7538732542E+00   -2.7491415113E+00   -2.7444260009E+00
   -2.7397266395E+00   -2.7350433442E+00   -2.7303760330E+00   -2.7257246240E+00
   -2.7210890361E+00   -2.7164691887E+00   -2.7118650019E+00   -2.7072763961E+00
   -2.7027032923E+00   -2.6981456122E+00   -2.6936032778E+00   -2.6890762118E+00
   -2.6845643373E+00   -2.6800675779E+00   -2.6755858579E+00   -2.6711191019E+00
   -2.6666672350E+00   -2.6622301831E+00   -2.6578078722E+00   -2.6534002290E+00
   -2.6490071807E+00   -2.6446286549E+00   -2.6402645796E+00   -2.6359148835E+00
   -2.6315794956E+00   -2.6272583455E+00   -2.6229513631E+00   -2.6186584788E+00