Ne    ONCVPSP-4.0.1  r_core=   1.30478   1.70784
     10.0000      8.0000      250925    zatom,zion,pspd
     8   -1012   1     4   400     0    pspcod,pspxc,lmax,lloc,mmax,r2well
  3.99000000  0.00000000  0.00000000    rchrg fchrg qchrg
     2     2     0     0    nproj
     3     1           extension_switch
     3     0     0    nprojso
   0                         2.1671237096175E+00 -4.5148295588084E-01
     1  0.0000000000000E+00 -5.1877538931322E-09 -1.1475999595056E-09
     2  1.0000000000000E-02  9.8349965322901E-02  1.7539127004555E-02
     3  2.0000000000000E-02  1.9622689197758E-01  3.5091316272342E-02
     4  3.0000000000000E-02  2.9316250335701E-01  5.2670041057764E-02
     5  4.0000000000000E-02  3.8869797117550E-01  7.0289582920640E-02
     6  5.0000000000000E-02  4.8238845148431E-01  8.7965401988192E-02
     7  6.0000000000000E-02  5.7380739868989E-01  1.0571446738663E-01
     8  7.0000000000000E-02  6.6255058979755E-01  1.2355553594530E-01
     9  8.0000000000000E-02  7.4823979629050E-01  1.4150936842398E-01
    10  9.0000000000000E-02  8.3052604736139E-01  1.5959887390525E-01
    11  1.0000000000000E-01  9.0909243552442E-01  1.7784917460144E-01
    12  1.1000000000000E-01  9.8365642381996E-01  1.9628758511821E-01
    13  1.2000000000000E-01  1.0539716227314E+00  2.1494350215713E-01
    14  1.3000000000000E-01  1.1198290144046E+00  2.3384820269114E-01
    15  1.4000000000000E-01  1.1810576116227E+00  2.5303455076650E-01
    16  1.5000000000000E-01  1.2375245490614E+00  2.7253661523169E-01
    17  1.6000000000000E-01  1.2891346144553E+00  2.9238920282262E-01
    18  1.7000000000000E-01  1.3358292372508E+00  3.1262731310331E-01
    19  1.8000000000000E-01  1.3775849619371E+00  3.3328552372707E-01
    20  1.9000000000000E-01  1.4144114423457E+00  3.5439731630594E-01
    21  2.0000000000000E-01  1.4463490016325E+00  3.7599435481725E-01
    22  2.1000000000000E-01  1.4734658102488E+00  3.9810572989951E-01
    23  2.2000000000000E-01  1.4958547408278E+00  4.2075718356560E-01
    24  2.3000000000000E-01  1.5136299644378E+00  4.4397032976194E-01
    25  2.4000000000000E-01  1.5269233569847E+00  4.6776188680605E-01
    26  2.5000000000000E-01  1.5358807875978E+00  4.9214293802692E-01
    27  2.6000000000000E-01  1.5406583625507E+00  5.1711823690078E-01
    28  2.7000000000000E-01  1.5414186986156E+00  5.4268557261646E-01
    29  2.8000000000000E-01  1.5383272987182E+00  5.6883521132117E-01
    30  2.9000000000000E-01  1.5315491003693E+00  5.9554942729706E-01
    31  3.0000000000000E-01  1.5212452636298E+00  6.2280213701642E-01
    32  3.1000000000000E-01  1.5075702603983E+00  6.5055864743891E-01
    33  3.2000000000000E-01  1.4906693206673E+00  6.7877552807366E-01
    34  3.3000000000000E-01  1.4706762841972E+00  7.0740061426338E-01
    35  3.4000000000000E-01  1.4477118979267E+00  7.3637314689350E-01
    36  3.5000000000000E-01  1.4218825905321E+00  7.6562405132525E-01
    37  3.6000000000000E-01  1.3932797460134E+00  7.9507635584119E-01
    38  3.7000000000000E-01  1.3619794882106E+00  8.2464574732175E-01
    39  3.8000000000000E-01  1.3280429779142E+00  8.5424125928673E-01
    40  3.9000000000000E-01  1.2915172139162E+00  8.8376608488791E-01
    41  4.0000000000000E-01  1.2524363191499E+00  9.1311850497311E-01
    42  4.1000000000000E-01  1.2108232831749E+00  9.4219291900835E-01
    43  4.2000000000000E-01  1.1666921228561E+00  9.7088096448690E-01
    44  4.3000000000000E-01  1.1200504143559E+00  9.9907270851586E-01
    45  4.4000000000000E-01  1.0709021416554E+00  1.0266578935922E+00
    46  4.5000000000000E-01  1.0192507999040E+00  1.0535272181958E+00
    47  4.6000000000000E-01  9.6510268610912E-01  1.0795736317668E+00
    48  4.7000000000000E-01  9.0847030511302E-01  1.1046936229266E+00
    49  4.8000000000000E-01  8.4937581558264E-01  1.1287884794593E+00
    50  4.9000000000000E-01  7.8785443890656E-01  1.1517654986113E+00
    51  5.0000000000000E-01  7.2395775351276E-01  1.1735391266950E+00
    52  5.1000000000000E-01  6.5775679820096E-01  1.1940320077931E+00
    53  5.2000000000000E-01  5.8934491062163E-01  1.2131759225521E+00
    54  5.3000000000000E-01  5.1884023099389E-01  1.2309125996038E+00
    55  5.4000000000000E-01  4.4638780647774E-01  1.2471943840458E+00
    56  5.5000000000000E-01  3.7216123821698E-01  1.2619847496170E+00
    57  5.6000000000000E-01  2.9636382083842E-01  1.2752586436810E+00
    58  5.7000000000000E-01  2.1922913300020E-01  1.2870026568501E+00
    59  5.8000000000000E-01  1.4102104727653E-01  1.2972150119931E+00
    60  5.9000000000000E-01  6.2033138079105E-02  1.3059053704197E+00
    61  6.0000000000000E-01 -1.7412522734448E-02  1.3130944561820E+00
    62  6.1000000000000E-01 -9.6967181621915E-02  1.3188135026146E+00
    63  6.2000000000000E-01 -1.7625781810983E-01  1.3231035283953E+00
    64  6.3000000000000E-01 -2.5489013479033E-01  1.3260144534981E+00
    65  6.4000000000000E-01 -3.3245208771324E-01  1.3276040683650E+00
    66  6.5000000000000E-01 -4.0851791169774E-01  1.3279368723951E+00
    67  6.6000000000000E-01 -4.8265258513237E-01  1.3270828003817E+00
    68  6.7000000000000E-01 -5.5441666973144E-01  1.3251158577808E+00
    69  6.8000000000000E-01 -6.2337145264508E-01  1.3221126876106E+00
    70  6.9000000000000E-01 -6.8908431143413E-01  1.3181510933360E+00
    71  7.0000000000000E-01 -7.5113421685532E-01  1.3133085432467E+00
    72  7.1000000000000E-01 -8.0911728427159E-01  1.3076606825593E+00
    73  7.2000000000000E-01 -8.6265228189496E-01  1.3012798797583E+00
    74  7.3000000000000E-01 -9.1138600304841E-01  1.2942338335147E+00
    75  7.4000000000000E-01 -9.5499841023452E-01  1.2865842658850E+00
    76  7.5000000000000E-01 -9.9320746102779E-01  1.2783857264016E+00
    77  7.6000000000000E-01 -1.0257735296436E+00  1.2696845301324E+00
    78  7.7000000000000E-01 -1.0525033434287E+00  1.2605178508295E+00
    79  7.8000000000000E-01 -1.0732533603866E+00  1.2509129879353E+00
    80  7.9000000000000E-01 -1.0879325220939E+00  1.2408868235016E+00
    81  8.0000000000000E-01 -1.0965043258432E+00  1.2304454820490E+00
    82  8.1000000000000E-01 -1.0989881704220E+00  1.2195842030935E+00
    83  8.2000000000000E-01 -1.0954599414186E+00  1.2082874325519E+00
    84  8.3000000000000E-01 -1.0860518141539E+00  1.1965291355619E+00
    85  8.4000000000000E-01 -1.0709512650630E+00  1.1842733294788E+00
    86  8.5000000000000E-01 -1.0503992953731E+00  1.1714748320035E+00
    87  8.6000000000000E-01 -1.0246878840236E+00  1.1580802156191E+00
    88  8.7000000000000E-01 -9.9415669972957E-01  1.1440289558262E+00
    89  8.8000000000000E-01 -9.5918911465842E-01  1.1292547571500E+00
    90  8.9000000000000E-01 -9.2020757417184E-01  1.1136870375826E+00
    91  9.0000000000000E-01 -8.7766838825070E-01  1.0972525491061E+00
    92  9.1000000000000E-01 -8.3205602038018E-01  1.0798771092540E+00
    93  9.2000000000000E-01 -7.8387695863727E-01  1.0614874163644E+00
    94  9.3000000000000E-01 -7.3365326133083E-01  1.0420129193078E+00
    95  9.4000000000000E-01 -6.8191587565277E-01  1.0213877110610E+00
    96  9.5000000000000E-01 -6.2919783229000E-01  9.9955241458824E-01
    97  9.6000000000000E-01 -5.7602742173306E-01  9.7645602909057E-01
    98  9.7000000000000E-01 -5.2292145903541E-01  9.5205770481728E-01
    99  9.8000000000000E-01 -4.7037874299998E-01  9.2632841529584E-01
   100  9.9000000000000E-01 -4.1887381319451E-01  8.9925249702712E-01
   101  1.0000000000000E+00 -3.6885110385691E-01  8.7082902839649E-01
   102  1.0100000000000E+00 -3.2071958771127E-01  8.4107302174408E-01
   103  1.0200000000000E+00 -2.7484799506430E-01  8.1001640518850E-01
   104  1.0300000000000E+00 -2.3156068440728E-01  7.7770877386982E-01
   105  1.0400000000000E+00 -1.9113423026961E-01  7.4421789371825E-01
   106  1.0500000000000E+00 -1.5379478241753E-01  7.0962994461484E-01
   107  1.0600000000000E+00 -1.1971623784924E-01  6.7404949383233E-01
   108  1.0700000000000E+00 -8.9019253654114E-02  6.3759919485261E-01
   109  1.0800000000000E+00 -6.1771114841731E-02  6.0041921100219E-01
   110  1.0900000000000E+00 -3.7986457003201E-02  5.6266636774016E-01
   111  1.1000000000000E+00 -1.7628829350406E-02  5.2451304181074E-01
   112  1.1100000000000E+00 -6.1306951665658E-04  4.8614579976910E-01
   113  1.1200000000000E+00  1.3191552191977E-02  4.4776380250971E-01
   114  1.1300000000000E+00  2.3957474518131E-02  4.0957699634000E-01
   115  1.1400000000000E+00  3.1894340516803E-02  3.7180411473393E-01
   116  1.1500000000000E+00  3.7243925081019E-02  3.3467051816381E-01
   117  1.1600000000000E+00  4.0274583223192E-02  2.9840590223249E-01
   118  1.1700000000000E+00  4.1275316009081E-02  2.6324190671515E-01
   119  1.1800000000000E+00  4.0549557773692E-02  2.2940965998432E-01
   120  1.1900000000000E+00  3.8408793307963E-02  1.9713729463273E-01
   121  1.2000000000000E+00  3.5166116921446E-02  1.6664747088049E-01
   122  1.2100000000000E+00  3.1129846646320E-02  1.3815494455189E-01
   123  1.2200000000000E+00  2.6597310395457E-02  1.1186421488620E-01
   124  1.2300000000000E+00  2.1848878829631E-02  8.7967296213660E-02
   125  1.2400000000000E+00  1.7142224740302E-02  6.6641700607448E-02
   126  1.2500000000000E+00  1.2695189721124E-02  4.8051607105023E-02
   127  1.2600000000000E+00  8.7024537074984E-03  3.2339852906332E-02
   128  1.2700000000000E+00  5.3371053052049E-03  1.9626236197668E-02
   129  1.2800000000000E+00  2.7305233339648E-03  1.0011254915869E-02
   130  1.2900000000000E+00  9.6974031929996E-04  3.5712122519961E-03
   131  1.3000000000000E+00  1.1079160642299E-04  4.1296402621320E-04
   132  1.3100000000000E+00 -9.1165080397968E-06 -3.4261131670681E-05
   133  1.3200000000000E+00  6.5672543805489E-07  2.4519568721159E-06
   134  1.33  0.  0.
   135  1.34  0.  0.
   136  1.35  0.  0.
   137  1.36  0.  0.
   138  1.37  0.  0.
   139  1.38  0.  0.
   140  1.39  0.  0.
   141  1.40  0.  0.
   142  1.41  0.  0.
   143  1.42  0.  0.
   144  1.43  0.  0.
   145  1.44  0.  0.
   146  1.45  0.  0.
   147  1.46  0.  0.
   148  1.47  0.  0.
   149  1.48  0.  0.
   150  1.49  0.  0.
   151  1.50  0.  0.
   152  1.51  0.  0.
   153  1.52  0.  0.
   154  1.53  0.  0.
   155  1.54  0.  0.
   156  1.55  0.  0.
   157  1.56  0.  0.
   158  1.57  0.  0.
   159  1.58  0.  0.
   160  1.59  0.  0.
   161  1.60  0.  0.
   162  1.61  0.  0.
   163  1.62  0.  0.
   164  1.63  0.  0.
   165  1.64  0.  0.
   166  1.65  0.  0.
   167  1.66  0.  0.
   168  1.67  0.  0.
   169  1.68  0.  0.
   170  1.69  0.  0.
   171  1.70  0.  0.
   172  1.71  0.  0.
   173  1.72  0.  0.
   174  1.73  0.  0.
   175  1.74  0.  0.
   176  1.75  0.  0.
   177  1.76  0.  0.
   178  1.77  0.  0.
   179  1.78  0.  0.
   180  1.79  0.  0.
   181  1.80  0.  0.
   182  1.81  0.  0.
   183  1.82  0.  0.
   184  1.83  0.  0.
   185  1.84  0.  0.
   186  1.85  0.  0.
   187  1.86  0.  0.
   188  1.87  0.  0.
   189  1.88  0.  0.
   190  1.89  0.  0.
   191  1.90  0.  0.
   192  1.91  0.  0.
   193  1.92  0.  0.
   194  1.93  0.  0.
   195  1.94  0.  0.
   196  1.95  0.  0.
   197  1.96  0.  0.
   198  1.97  0.  0.
   199  1.98  0.  0.
   200  1.99  0.  0.
   201  2.00  0.  0.
   202  2.01  0.  0.
   203  2.02  0.  0.
   204  2.03  0.  0.
   205  2.04  0.  0.
   206  2.05  0.  0.
   207  2.06  0.  0.
   208  2.07  0.  0.
   209  2.08  0.  0.
   210  2.09  0.  0.
   211  2.10  0.  0.
   212  2.11  0.  0.
   213  2.12  0.  0.
   214  2.13  0.  0.
   215  2.14  0.  0.
   216  2.15  0.  0.
   217  2.16  0.  0.
   218  2.17  0.  0.
   219  2.18  0.  0.
   220  2.19  0.  0.
   221  2.20  0.  0.
   222  2.21  0.  0.
   223  2.22  0.  0.
   224  2.23  0.  0.
   225  2.24  0.  0.
   226  2.25  0.  0.
   227  2.26  0.  0.
   228  2.27  0.  0.
   229  2.28  0.  0.
   230  2.29  0.  0.
   231  2.30  0.  0.
   232  2.31  0.  0.
   233  2.32  0.  0.
   234  2.33  0.  0.
   235  2.34  0.  0.
   236  2.35  0.  0.
   237  2.36  0.  0.
   238  2.37  0.  0.
   239  2.38  0.  0.
   240  2.39  0.  0.
   241  2.40  0.  0.
   242  2.41  0.  0.
   243  2.42  0.  0.
   244  2.43  0.  0.
   245  2.44  0.  0.
   246  2.45  0.  0.
   247  2.46  0.  0.
   248  2.47  0.  0.
   249  2.48  0.  0.
   250  2.49  0.  0.
   251  2.50  0.  0.
   252  2.51  0.  0.
   253  2.52  0.  0.
   254  2.53  0.  0.
   255  2.54  0.  0.
   256  2.55  0.  0.
   257  2.56  0.  0.
   258  2.57  0.  0.
   259  2.58  0.  0.
   260  2.59  0.  0.
   261  2.60  0.  0.
   262  2.61  0.  0.
   263  2.62  0.  0.
   264  2.63  0.  0.
   265  2.64  0.  0.
   266  2.65  0.  0.
   267  2.66  0.  0.
   268  2.67  0.  0.
   269  2.68  0.  0.
   270  2.69  0.  0.
   271  2.70  0.  0.
   272  2.71  0.  0.
   273  2.72  0.  0.
   274  2.73  0.  0.
   275  2.74  0.  0.
   276  2.75  0.  0.
   277  2.76  0.  0.
   278  2.77  0.  0.
   279  2.78  0.  0.
   280  2.79  0.  0.
   281  2.80  0.  0.
   282  2.81  0.  0.
   283  2.82  0.  0.
   284  2.83  0.  0.
   285  2.84  0.  0.
   286  2.85  0.  0.
   287  2.86  0.  0.
   288  2.87  0.  0.
   289  2.88  0.  0.
   290  2.89  0.  0.
   291  2.90  0.  0.
   292  2.91  0.  0.
   293  2.92  0.  0.
   294  2.93  0.  0.
   295  2.94  0.  0.
   296  2.95  0.  0.
   297  2.96  0.  0.
   298  2.97  0.  0.
   299  2.98  0.  0.
   300  2.99  0.  0.
   301  3.00  0.  0.
   302  3.01  0.  0.
   303  3.02  0.  0.
   304  3.03  0.  0.
   305  3.04  0.  0.
   306  3.05  0.  0.
   307  3.06  0.  0.
   308  3.07  0.  0.
   309  3.08  0.  0.
   310  3.09  0.  0.
   311  3.10  0.  0.
   312  3.11  0.  0.
   313  3.12  0.  0.
   314  3.13  0.  0.
   315  3.14  0.  0.
   316  3.15  0.  0.
   317  3.16  0.  0.
   318  3.17  0.  0.
   319  3.18  0.  0.
   320  3.19  0.  0.
   321  3.20  0.  0.
   322  3.21  0.  0.
   323  3.22  0.  0.
   324  3.23  0.  0.
   325  3.24  0.  0.
   326  3.25  0.  0.
   327  3.26  0.  0.
   328  3.27  0.  0.
   329  3.28  0.  0.
   330  3.29  0.  0.
   331  3.30  0.  0.
   332  3.31  0.  0.
   333  3.32  0.  0.
   334  3.33  0.  0.
   335  3.34  0.  0.
   336  3.35  0.  0.
   337  3.36  0.  0.
   338  3.37  0.  0.
   339  3.38  0.  0.
   340  3.39  0.  0.
   341  3.40  0.  0.
   342  3.41  0.  0.
   343  3.42  0.  0.
   344  3.43  0.  0.
   345  3.44  0.  0.
   346  3.45  0.  0.
   347  3.46  0.  0.
   348  3.47  0.  0.
   349  3.48  0.  0.
   350  3.49  0.  0.
   351  3.50  0.  0.
   352  3.51  0.  0.
   353  3.52  0.  0.
   354  3.53  0.  0.
   355  3.54  0.  0.
   356  3.55  0.  0.
   357  3.56  0.  0.
   358  3.57  0.  0.
   359  3.58  0.  0.
   360  3.59  0.  0.
   361  3.60  0.  0.
   362  3.61  0.  0.
   363  3.62  0.  0.
   364  3.63  0.  0.
   365  3.64  0.  0.
   366  3.65  0.  0.
   367  3.66  0.  0.
   368  3.67  0.  0.
   369  3.68  0.  0.
   370  3.69  0.  0.
   371  3.70  0.  0.
   372  3.71  0.  0.
   373  3.72  0.  0.
   374  3.73  0.  0.
   375  3.74  0.  0.
   376  3.75  0.  0.
   377  3.76  0.  0.
   378  3.77  0.  0.
   379  3.78  0.  0.
   380  3.79  0.  0.
   381  3.80  0.  0.
   382  3.81  0.  0.
   383  3.82  0.  0.
   384  3.83  0.  0.
   385  3.84  0.  0.
   386  3.85  0.  0.
   387  3.86  0.  0.
   388  3.87  0.  0.
   389  3.88  0.  0.
   390  3.89  0.  0.
   391  3.90  0.  0.
   392  3.91  0.  0.
   393  3.92  0.  0.
   394  3.93  0.  0.
   395  3.94  0.  0.
   396  3.95  0.  0.
   397  3.96  0.  0.
   398  3.97  0.  0.
   399  3.98  0.  0.
   400  3.99  0.  0.
   1                        -5.0323213359221E+00 -1.5561969272533E+00
     1  0.0000000000000E+00  6.7502672895792E-10 -1.3858207359441E-09
     2  1.0000000000000E-02  1.5683318676344E-03 -8.2673414327136E-04
     3  2.0000000000000E-02  6.2663220648564E-03 -3.2991061700371E-03
     4  3.0000000000000E-02  1.4072996281833E-02 -7.3936957406060E-03
     5  4.0000000000000E-02  2.4953536656262E-02 -1.3071704422636E-02
     6  5.0000000000000E-02  3.8859489463614E-02 -2.0279306225400E-02
     7  6.0000000000000E-02  5.5729053316499E-02 -2.8948133047325E-02
     8  7.0000000000000E-02  7.5487445340544E-02 -3.8995889812182E-02
     9  8.0000000000000E-02  9.8047342119122E-02 -5.0327092683492E-02
    10  9.0000000000000E-02  1.2330939156000E-01 -6.2833922439643E-02
    11  1.0000000000000E-01  1.5116279124024E-01 -7.6397183878977E-02
    12  1.1000000000000E-01  1.8148592823821E-01 -9.0887361019294E-02
    13  1.2000000000000E-01  2.1414707496953E-01 -1.0616575687285E-01
    14  1.3000000000000E-01  2.4900513511156E-01 -1.2208570572732E-01
    15  1.4000000000000E-01  2.8591043333464E-01 -1.3849384515558E-01
    16  1.5000000000000E-01  3.2470554225990E-01 -1.5523143442049E-01
    17  1.6000000000000E-01  3.6522613983752E-01 -1.7213570554170E-01
    18  1.7000000000000E-01  4.0730189018636E-01 -1.8904123305405E-01
    19  1.8000000000000E-01  4.5075734085915E-01 -2.0578130841405E-01
    20  1.9000000000000E-01  4.9541282949456E-01 -2.2218930510260E-01
    21  2.0000000000000E-01  5.4108539289099E-01 -2.3810002072681E-01
    22  2.1000000000000E-01  5.8758967168211E-01 -2.5335098283828E-01
    23  2.2000000000000E-01  6.3473880401185E-01 -2.6778370575371E-01
    24  2.3000000000000E-01  6.8234530189046E-01 -2.8124488637874E-01
    25  2.4000000000000E-01  7.3022190426212E-01 -2.9358752788886E-01
    26  2.5000000000000E-01  7.7818240122143E-01 -3.0467198110000E-01
    27  2.6000000000000E-01  8.2604242427709E-01 -3.1436689445502E-01
    28  2.7000000000000E-01  8.7362019806880E-01 -3.2255006474564E-01
    29  2.8000000000000E-01  9.2073724949237E-01 -3.2910918196790E-01
    30  2.9000000000000E-01  9.6721907077021E-01 -3.3394246305665E-01
    31  3.0000000000000E-01  1.0128957336124E+00 -3.3695917064389E-01
    32  3.1000000000000E-01  1.0576024522404E+00 -3.3808001441927E-01
    33  3.2000000000000E-01  1.1011800936820E+00 -3.3723743412061E-01
    34  3.3000000000000E-01  1.1434756343841E+00 -3.3437576462941E-01
    35  3.4000000000000E-01  1.1843425628242E+00 -3.2945128507318E-01
    36  3.5000000000000E-01  1.2236412284191E+00 -3.2243215522454E-01
    37  3.6000000000000E-01  1.2612391376259E+00 -3.1329824381873E-01
    38  3.7000000000000E-01  1.2970111986990E+00 -3.0204085467045E-01
    39  3.8000000000000E-01  1.3308399170988E+00 -2.8866235764037E-01
    40  3.9000000000000E-01  1.3626155440341E+00 -2.7317573256818E-01
    41  4.0000000000000E-01  1.3922361810614E+00 -2.5560403523748E-01
    42  4.1000000000000E-01  1.4196078440509E+00 -2.3597979525733E-01
    43  4.2000000000000E-01  1.4446444901519E+00 -2.1434435642490E-01
    44  4.3000000000000E-01  1.4672680116591E+00 -1.9074717066481E-01
    45  4.4000000000000E-01  1.4874082008752E+00 -1.6524505701714E-01
    46  4.5000000000000E-01  1.5050026901991E+00 -1.3790143736242E-01
    47  4.6000000000000E-01  1.5199968717292E+00 -1.0878556062594E-01
    48  4.7000000000000E-01  1.5323438006646E+00 -7.7971727095033E-02
    49  4.8000000000000E-01  1.5420040867106E+00 -4.5538524212722E-02
    50  4.9000000000000E-01  1.5489457775538E+00 -1.1568084783241E-02
    51  5.0000000000000E-01  1.5531442382622E+00  2.3854622054321E-02
    52  5.1000000000000E-01  1.5545820302027E+00  6.0642457451736E-02
    53  5.2000000000000E-01  1.5532487927382E+00  9.8706728301807E-02
    54  5.3000000000000E-01  1.5491411305966E+00  1.3795774371838E-01
    55  5.4000000000000E-01  1.5422625093773E+00  1.7830530584128E-01
    56  5.5000000000000E-01  1.5326231612034E+00  2.1965912944555E-01
    57  5.6000000000000E-01  1.5202400020334E+00  2.6192918609678E-01
    58  5.7000000000000E-01  1.5051365616280E+00  3.0502596991871E-01
    59  5.8000000000000E-01  1.4873429266340E+00  3.4886068340542E-01
    60  5.9000000000000E-01  1.4668956967041E+00  3.9334534310217E-01
    61  6.0000000000000E-01  1.4438379530266E+00  4.3839280637391E-01
    62  6.1000000000000E-01  1.4182192381073E+00  4.8391672186206E-01
    63  6.2000000000000E-01  1.3900955451235E+00  5.2983140757626E-01
    64  6.3000000000000E-01  1.3595293146806E+00  5.7605166186150E-01
    65  6.4000000000000E-01  1.3265894363394E+00  6.2249251370150E-01
    66  6.5000000000000E-01  1.2913512518625E+00  6.6906891995082E-01
    67  6.6000000000000E-01  1.2538965567589E+00  7.1569541811207E-01
    68  6.7000000000000E-01  1.2143135963849E+00  7.6228574417710E-01
    69  6.8000000000000E-01  1.1726970526045E+00  8.0875242581648E-01
    70  6.9000000000000E-01  1.1291480168213E+00  8.5500636181902E-01
    71  7.0000000000000E-01  1.0837739450677E+00  9.0095639914132E-01
    72  7.1000000000000E-01  1.0366885907924E+00  9.4650891921795E-01
    73  7.2000000000000E-01  9.8801191101040E-01  9.9156744530003E-01
    74  7.3000000000000E-01  9.3786994158075E-01  1.0360322825294E+00
    75  7.4000000000000E-01  8.8639463756102E-01  1.0798002022157E+00
    76  7.5000000000000E-01  8.3372367483779E-01  1.1227641813651E+00
    77  7.6000000000000E-01  7.8000020956571E-01  1.1648132079156E+00
    78  7.7000000000000E-01  7.2537259234695E-01  1.2058321613719E+00
    79  7.8000000000000E-01  6.6999403455197E-01  1.2457017776035E+00
    80  7.9000000000000E-01  6.1402222471311E-01  1.2842987054990E+00
    81  8.0000000000000E-01  5.5761889351017E-01  1.3214956619476E+00
    82  8.1000000000000E-01  5.0094932650382E-01  1.3571616902816E+00
    83  8.2000000000000E-01  4.4418182445245E-01  1.3911625258651E+00
    84  8.3000000000000E-01  3.8748711176027E-01  1.4233610709720E+00
    85  8.4000000000000E-01  3.3103769434279E-01  1.4536179794895E+00
    86  8.5000000000000E-01  2.7500716894812E-01  1.4817923503212E+00
    87  8.6000000000000E-01  2.1956948673115E-01  1.5077425266774E+00
    88  8.7000000000000E-01  1.6489817463069E-01  1.5313269967438E+00
    89  8.8000000000000E-01  1.1116551883800E-01  1.5524053895450E+00
    90  8.9000000000000E-01  5.8541715357537E-02  1.5708395581817E+00
    91  9.0000000000000E-01  7.1939933376047E-03  1.5864947410459E+00
    92  9.1000000000000E-01 -4.2714282520464E-02  1.5992407901307E+00
    93  9.2000000000000E-01 -9.1024523590526E-02  1.6089534541698E+00
    94  9.3000000000000E-01 -1.3758383559200E-01  1.6155157030891E+00
    95  9.4000000000000E-01 -1.8224593566909E-01  1.6188190791448E+00
    96  9.5000000000000E-01 -2.2487206008809E-01  1.6187650591816E+00
    97  9.6000000000000E-01 -2.6533185409178E-01  1.6152664116838E+00
    98  9.7000000000000E-01 -3.0350423527330E-01  1.6082485317248E+00
    99  9.8000000000000E-01 -3.3927822175283E-01  1.5976507365600E+00
   100  9.9000000000000E-01 -3.7255371646320E-01  1.5834275044613E+00
   101  1.0000000000000E+00 -4.0324223897743E-01  1.5655496394688E+00
   102  1.0100000000000E+00 -4.3126759654285E-01  1.5440053450342E+00
   103  1.0200000000000E+00 -4.5656648632328E-01  1.5188011900558E+00
   104  1.0300000000000E+00 -4.7908902129110E-01  1.4899629515579E+00
   105  1.0400000000000E+00 -4.9879917275183E-01  1.4575363192345E+00
   106  1.0500000000000E+00 -5.1567512312085E-01  1.4215874482561E+00
   107  1.0600000000000E+00 -5.2970952330125E-01  1.3822033481232E+00
   108  1.0700000000000E+00 -5.4090964982338E-01  1.3394920969140E+00
   109  1.0800000000000E+00 -5.4929745779752E-01  1.2935828720151E+00
   110  1.0900000000000E+00 -5.5490952668777E-01  1.2446257903169E+00
   111  1.1000000000000E+00 -5.5779689693033E-01  1.1927915528794E+00
   112  1.1100000000000E+00 -5.5802479648290E-01  1.1382708912109E+00
   113  1.1200000000000E+00 -5.5567225748792E-01  1.0812738145208E+00
   114  1.1300000000000E+00 -5.5083162435687E-01  1.0220286595943E+00
   115  1.1400000000000E+00 -5.4360795571122E-01  9.6078094724344E-01
   116  1.1500000000000E+00 -5.3411832375065E-01  8.9779205162120E-01
   117  1.1600000000000E+00 -5.2249101572872E-01  8.3333769097109E-01
   118  1.1700000000000E+00 -5.0886464330761E-01  7.6770625064557E-01
   119  1.1800000000000E+00 -4.9338716660389E-01  7.0119695138522E-01
   120  1.1900000000000E+00 -4.7621484073093E-01  6.3411787792246E-01
   121  1.2000000000000E+00 -4.5751109356544E-01  5.6678388489991E-01
   122  1.2100000000000E+00 -4.3744534431123E-01  4.9951439886758E-01
   123  1.2200000000000E+00 -4.1619177319086E-01  4.3263113671772E-01
   124  1.2300000000000E+00 -3.9392805324992E-01  3.6645576229826E-01
   125  1.2400000000000E+00 -3.7083405581022E-01  3.0130750411760E-01
   126  1.2500000000000E+00 -3.4709054153851E-01  2.3750075797341E-01
   127  1.2600000000000E+00 -3.2287784940811E-01  1.7534269900996E-01
   128  1.2700000000000E+00 -2.9837459601259E-01  1.1513092811213E-01
   129  1.2800000000000E+00 -2.7375639774113E-01  5.7151177671960E-02
   130  1.2900000000000E+00 -2.4919462830520E-01  1.6751018218666E-03
   131  1.3000000000000E+00 -2.2485522252360E-01 -5.1041828773514E-02
   132  1.3100000000000E+00 -2.0089754342094E-01 -1.0076228636630E-01
   133  1.3200000000000E+00 -1.7747310269749E-01 -1.4726961695543E-01
   134  1.3300000000000E+00 -1.5472398540450E-01 -1.9037139982682E-01
   135  1.3400000000000E+00 -1.3278168241515E-01 -2.2990166583733E-01
   136  1.3500000000000E+00 -1.1176621188370E-01 -2.6572225679024E-01
   137  1.3600000000000E+00 -9.1785346764709E-02 -2.9772396912087E-01
   138  1.3700000000000E+00 -7.2933960777536E-02 -3.2582744971326E-01
   139  1.3800000000000E+00 -5.5293497690505E-02 -3.4998383588812E-01
   140  1.3900000000000E+00 -3.8931568759850E-02 -3.7017513012341E-01
   141  1.4000000000000E+00 -2.3901681874645E-02 -3.8641430279468E-01
   142  1.4100000000000E+00 -1.0243104675697E-02 -3.9874511889236E-01
   143  1.4200000000000E+00  2.0191374000853E-03 -4.0724168741881E-01
   144  1.4300000000000E+00  1.2874128537749E-02 -4.1200773496663E-01
   145  1.4400000000000E+00  2.2324797149261E-02 -4.1317560777733E-01
   146  1.4500000000000E+00  3.0387520728742E-02 -4.1090500938543E-01
   147  1.4600000000000E+00  3.7091605326706E-02 -4.0538148369250E-01
   148  1.4700000000000E+00  4.2478645284219E-02 -3.9681465598799E-01
   149  1.4800000000000E+00  4.6601770087902E-02 -3.8543624699821E-01
   150  1.4900000000000E+00  4.9524786362379E-02 -3.7149787747621E-01
   151  1.5000000000000E+00  5.1321224092550E-02 -3.5526868310893E-01
   152  1.5100000000000E+00  5.2073297156689E-02 -3.3703276159874E-01
   153  1.5200000000000E+00  5.1870789139123E-02 -3.1708647564483E-01
   154  1.5300000000000E+00  5.0809876165750E-02 -2.9573563717881E-01
   155  1.5400000000000E+00  4.8991899163154E-02 -2.7329259958978E-01
   156  1.5500000000000E+00  4.6522098471089E-02 -2.5007328578317E-01
   157  1.5600000000000E+00  4.3508324133901E-02 -2.2639418074319E-01
   158  1.5700000000000E+00  4.0059735453867E-02 -2.0256931780031E-01
   159  1.5800000000000E+00  3.6285503505181E-02 -1.7890728803525E-01
   160  1.5900000000000E+00  3.2293530057469E-02 -1.5570830172501E-01
   161  1.6000000000000E+00  2.8189199242750E-02 -1.3326133653350E-01
   162  1.6100000000000E+00  2.4074163584398E-02 -1.1184137750421E-01
   163  1.6200000000000E+00  2.0045191149976E-02 -9.1706803213078E-02
   164  1.6300000000000E+00  1.6194341815916E-02 -7.3099495666173E-02
   165  1.6400000000000E+00  1.2607702323994E-02 -5.6242075980243E-02
   166  1.6500000000000E+00  9.3598946005837E-03 -4.1326556405108E-02
   167  1.6600000000000E+00  6.5169883258901E-03 -2.8520036711328E-02
   168  1.6700000000000E+00  4.1358259490613E-03 -1.7963205134710E-02
   169  1.6800000000000E+00  2.2639330961411E-03 -9.7711122216984E-03
   170  1.6900000000000E+00  9.3402951608754E-04 -4.0107543987787E-03
   171  1.7000000000000E+00  1.8903390249566E-04 -8.0835366492605E-04
   172  1.7100000000000E+00 -1.2505899715583E-05  5.3377505623081E-05
   173  1.7200000000000E+00  3.0029735997345E-06 -1.2821846604254E-05
   174  1.73  0.  0.
   175  1.74  0.  0.
   176  1.75  0.  0.
   177  1.76  0.  0.
   178  1.77  0.  0.
   179  1.78  0.  0.
   180  1.79  0.  0.
   181  1.80  0.  0.
   182  1.81  0.  0.
   183  1.82  0.  0.
   184  1.83  0.  0.
   185  1.84  0.  0.
   186  1.85  0.  0.
   187  1.86  0.  0.
   188  1.87  0.  0.
   189  1.88  0.  0.
   190  1.89  0.  0.
   191  1.90  0.  0.
   192  1.91  0.  0.
   193  1.92  0.  0.
   194  1.93  0.  0.
   195  1.94  0.  0.
   196  1.95  0.  0.
   197  1.96  0.  0.
   198  1.97  0.  0.
   199  1.98  0.  0.
   200  1.99  0.  0.
   201  2.00  0.  0.
   202  2.01  0.  0.
   203  2.02  0.  0.
   204  2.03  0.  0.
   205  2.04  0.  0.
   206  2.05  0.  0.
   207  2.06  0.  0.
   208  2.07  0.  0.
   209  2.08  0.  0.
   210  2.09  0.  0.
   211  2.10  0.  0.
   212  2.11  0.  0.
   213  2.12  0.  0.
   214  2.13  0.  0.
   215  2.14  0.  0.
   216  2.15  0.  0.
   217  2.16  0.  0.
   218  2.17  0.  0.
   219  2.18  0.  0.
   220  2.19  0.  0.
   221  2.20  0.  0.
   222  2.21  0.  0.
   223  2.22  0.  0.
   224  2.23  0.  0.
   225  2.24  0.  0.
   226  2.25  0.  0.
   227  2.26  0.  0.
   228  2.27  0.  0.
   229  2.28  0.  0.
   230  2.29  0.  0.
   231  2.30  0.  0.
   232  2.31  0.  0.
   233  2.32  0.  0.
   234  2.33  0.  0.
   235  2.34  0.  0.
   236  2.35  0.  0.
   237  2.36  0.  0.
   238  2.37  0.  0.
   239  2.38  0.  0.
   240  2.39  0.  0.
   241  2.40  0.  0.
   242  2.41  0.  0.
   243  2.42  0.  0.
   244  2.43  0.  0.
   245  2.44  0.  0.
   246  2.45  0.  0.
   247  2.46  0.  0.
   248  2.47  0.  0.
   249  2.48  0.  0.
   250  2.49  0.  0.
   251  2.50  0.  0.
   252  2.51  0.  0.
   253  2.52  0.  0.
   254  2.53  0.  0.
   255  2.54  0.  0.
   256  2.55  0.  0.
   257  2.56  0.  0.
   258  2.57  0.  0.
   259  2.58  0.  0.
   260  2.59  0.  0.
   261  2.60  0.  0.
   262  2.61  0.  0.
   263  2.62  0.  0.
   264  2.63  0.  0.
   265  2.64  0.  0.
   266  2.65  0.  0.
   267  2.66  0.  0.
   268  2.67  0.  0.
   269  2.68  0.  0.
   270  2.69  0.  0.
   271  2.70  0.  0.
   272  2.71  0.  0.
   273  2.72  0.  0.
   274  2.73  0.  0.
   275  2.74  0.  0.
   276  2.75  0.  0.
   277  2.76  0.  0.
   278  2.77  0.  0.
   279  2.78  0.  0.
   280  2.79  0.  0.
   281  2.80  0.  0.
   282  2.81  0.  0.
   283  2.82  0.  0.
   284  2.83  0.  0.
   285  2.84  0.  0.
   286  2.85  0.  0.
   287  2.86  0.  0.
   288  2.87  0.  0.
   289  2.88  0.  0.
   290  2.89  0.  0.
   291  2.90  0.  0.