Kr    ONCVPSP-4.0.1  r_core=   1.75834   1.50506   1.80092
     36.0000      8.0000      231019    zatom,zion,pspd
     8       2   2     4   600     0    pspcod,pspxc,lmax,lloc,mmax,r2well
  5.99000000  7.00000000  0.00000000    rchrg fchrg qchrg
     2     2     2     0     0    nproj
     1     1           extension_switch
   0                         8.4477397696746E+00  8.1739963184032E-01
     1  0.0000000000000E+00  3.4643893309649E-10 -1.0990446330794E-09
     2  1.0000000000000E-02  3.6850419969364E-02 -1.0177395422923E-02
     3  2.0000000000000E-02  7.3707146095339E-02 -2.0418570570536E-02
     4  3.0000000000000E-02  1.1057600028376E-01 -3.0785926114734E-02
     5  4.0000000000000E-02  1.4746184260809E-01 -4.1339124786209E-02
     6  5.0000000000000E-02  1.8436810697658E-01 -5.2133772530306E-02
     7  6.0000000000000E-02  2.2129635644977E-01 -6.3220159021918E-02
     8  7.0000000000000E-02  2.5824586434592E-01 -7.4642076016327E-02
     9  8.0000000000000E-02  2.9521322692561E-01 -8.6435730913881E-02
    10  9.0000000000000E-02  3.3219201302226E-01 -9.8628771571292E-02
    11  1.0000000000000E-01  3.6917245548937E-01 -1.1123943682008E-01
    12  1.1000000000000E-01  4.0614118877305E-01 -1.2427584537455E-01
    13  1.2000000000000E-01  4.4308103629923E-01 -1.3773543385302E-01
    14  1.3000000000000E-01  4.7997085069550E-01 -1.5160455252310E-01
    15  1.4000000000000E-01  5.1678540915794E-01 -1.6585822514509E-01
    16  1.5000000000000E-01  5.5349536553279E-01 -1.8046007695702E-01
    17  1.6000000000000E-01  5.9006725992124E-01 -1.9536243245396E-01
    18  1.7000000000000E-01  6.2646358584319E-01 -2.1050658219564E-01
    19  1.8000000000000E-01  6.6264291422387E-01 -2.2582321546428E-01
    20  1.9000000000000E-01  6.9856007270441E-01 -2.4123301322297E-01
    21  2.0000000000000E-01  7.3416637803632E-01 -2.5664739352639E-01
    22  2.1000000000000E-01  7.6940991860854E-01 -2.7196939934364E-01
    23  2.2000000000000E-01  8.0423588348501E-01 -2.8709471669795E-01
    24  2.3000000000000E-01  8.3858693370963E-01 -3.0191280913881E-01
    25  2.4000000000000E-01  8.7240361107178E-01 -3.1630815286702E-01
    26  2.5000000000000E-01  9.0562477902818E-01 -3.3016155535514E-01
    27  2.6000000000000E-01  9.3818809005133E-01 -3.4335153906749E-01
    28  2.7000000000000E-01  9.7003047332815E-01 -3.5575577090278E-01
    29  2.8000000000000E-01  1.0010886364683E+00 -3.6725251727375E-01
    30  2.9000000000000E-01  1.0312995747051E+00 -3.7772210431285E-01
    31  3.0000000000000E-01  1.0606010809847E+00 -3.8704836255778E-01
    32  3.1000000000000E-01  1.0889322503414E+00 -3.9512003562907E-01
    33  3.2000000000000E-01  1.1162339720520E+00 -4.0183213286304E-01
    34  3.3000000000000E-01  1.1424494032457E+00 -4.0708720660155E-01
    35  3.4000000000000E-01  1.1675244179158E+00 -4.1079653585704E-01
    36  3.5000000000000E-01  1.1914080256355E+00 -4.1288119935336E-01
    37  3.6000000000000E-01  1.2140527547121E+00 -4.1327302247366E-01
    38  3.7000000000000E-01  1.2354149950217E+00 -4.1191538440557E-01
    39  3.8000000000000E-01  1.2554552963382E+00 -4.0876387373778E-01
    40  3.9000000000000E-01  1.2741386186024E+00 -4.0378678290319E-01
    41  4.0000000000000E-01  1.2914345312567E+00 -3.9696543415432E-01
    42  4.1000000000000E-01  1.3073173594942E+00 -3.8829433216379E-01
    43  4.2000000000000E-01  1.3217662760204E+00 -3.7778114083346E-01
    44  4.3000000000000E-01  1.3347653377007E+00 -3.6544648443542E-01
    45  4.4000000000000E-01  1.3463034672450E+00 -3.5132357576137E-01
    46  4.5000000000000E-01  1.3563743808631E+00 -3.3545767648584E-01
    47  4.6000000000000E-01  1.3649764635903E+00 -3.1790539742011E-01
    48  4.7000000000000E-01  1.3721125947284E+00 -2.9873384870917E-01
    49  4.8000000000000E-01  1.3777899265551E+00 -2.7801965227091E-01
    50  4.9000000000000E-01  1.3820196201238E+00 -2.5584783086139E-01
    51  5.0000000000000E-01  1.3848165425862E+00 -2.3231059004187E-01
    52  5.1000000000000E-01  1.3861989310223E+00 -2.0750601099299E-01
    53  5.2000000000000E-01  1.3861880282410E+00 -1.8153667354496E-01
    54  5.3000000000000E-01  1.3848076964173E+00 -1.5450822994594E-01
    55  5.4000000000000E-01  1.3820840147505E+00 -1.2652795075662E-01
    56  5.5000000000000E-01  1.3780448675575E+00 -9.7703264820865E-02
    57  5.6000000000000E-01  1.3727195293532E+00 -6.8140315511477E-02
    58  5.7000000000000E-01  1.3661382535110E+00 -3.7942555378226E-02
    59  5.8000000000000E-01  1.3583318710449E+00 -7.2094009314922E-03
    60  5.9000000000000E-01  1.3493314059032E+00  2.3965031418626E-02
    61  6.0000000000000E-01  1.3391677129198E+00  5.5493088274007E-02
    62  6.1000000000000E-01  1.3278711442344E+00  8.7294622345076E-02
    63  6.2000000000000E-01  1.3154712495679E+00  1.1929789867854E-01
    64  6.3000000000000E-01  1.3019965152349E+00  1.5144034884152E-01
    65  6.4000000000000E-01  1.2874741461937E+00  1.8366916000626E-01
    66  6.5000000000000E-01  1.2719298947841E+00  2.1594168821376E-01
    67  6.6000000000000E-01  1.2553879390975E+00  2.4822568761071E-01
    68  6.7000000000000E-01  1.2378708131629E+00  2.8049935012079E-01
    69  6.8000000000000E-01  1.2193993903378E+00  3.1275115278918E-01
    70  6.9000000000000E-01  1.1999929204665E+00  3.4497951289426E-01
    71  7.0000000000000E-01  1.1796691205270E+00  3.7719225380865E-01
    72  7.1000000000000E-01  1.1584443176410E+00  4.0940588747562E-01
    73  7.2000000000000E-01  1.1363336424822E+00  4.4164472220477E-01
    74  7.3000000000000E-01  1.1133512702977E+00  4.7393980723993E-01
    75  7.4000000000000E-01  1.0895107059690E+00  5.0632772817631E-01
    76  7.5000000000000E-01  1.0648251087929E+00  5.3884926976033E-01
    77  7.6000000000000E-01  1.0393076519697E+00  5.7154796485973E-01
    78  7.7000000000000E-01  1.0129719111600E+00  6.0446855040856E-01
    79  7.8000000000000E-01  9.8583227591462E-01  6.3765535287992E-01
    80  7.9000000000000E-01  9.5790437731434E-01  6.7115062728978E-01
    81  8.0000000000000E-01  9.2920552477231E-01  7.0499287486531E-01
    82  8.1000000000000E-01  8.9975514466956E-01  7.3921516529871E-01
    83  8.2000000000000E-01  8.6957521331147E-01  7.7384348993825E-01
    84  8.3000000000000E-01  8.3869067661658E-01  8.0889517233072E-01
    85  8.4000000000000E-01  8.0712984898141E-01  8.4437736221714E-01
    86  8.5000000000000E-01  7.7492478390560E-01  8.8028563839726E-01
    87  8.6000000000000E-01  7.4211160921164E-01  9.1660274482067E-01
    88  8.7000000000000E-01  7.0873082004897E-01  9.5329748284377E-01
    89  8.8000000000000E-01  6.7482752333146E-01  9.9032378082685E-01
    90  8.9000000000000E-01  6.4045162781323E-01  1.0276199601545E+00
    91  9.0000000000000E-01  6.0565797465601E-01  1.0651082143679E+00
    92  9.1000000000000E-01  5.7050640407177E-01  1.1026943154309E+00
    93  9.2000000000000E-01  5.3506175443038E-01  1.1402675582448E+00
    94  9.3000000000000E-01  4.9939379109117E-01  1.1777009514127E+00
    95  9.4000000000000E-01  4.6357706314018E-01  1.2148516589853E+00
    96  9.5000000000000E-01  4.2769068717832E-01  1.2515616945167E+00
    97  9.6000000000000E-01  3.9181805829727E-01  1.2876588652950E+00
    98  9.7000000000000E-01  3.5604648938706E-01  1.3229579611047E+00
    99  9.8000000000000E-01  3.2046678092664E-01  1.3572621784010E+00
   100  9.9000000000000E-01  2.8517272440497E-01  1.3903647673546E+00
   101  1.0000000000000E+00  2.5026054348919E-01  1.4220508859243E+00
   102  1.0100000000000E+00  2.1582827798644E-01  1.4520996419699E+00
   103  1.0200000000000E+00  1.8197511652205E-01  1.4802863014821E+00
   104  1.0300000000000E+00  1.4880068466907E-01  1.5063846383080E+00
   105  1.0400000000000E+00  1.1640429599768E-01  1.5301693983550E+00
   106  1.0500000000000E+00  8.4884174158862E-02  1.5514188491676E+00
   107  1.0600000000000E+00  5.4336654665717E-02  1.5699173840509E+00
   108  1.0700000000000E+00  2.4855375476578E-02  1.5854581485725E+00
   109  1.0800000000000E+00 -3.4695341871438E-03  1.5978456563374E+00
   110  1.0900000000000E+00 -3.0552257146969E-02  1.6068983604243E+00
   111  1.1000000000000E+00 -5.6312073970302E-02  1.6124511467929E+00
   112  1.1100000000000E+00 -8.0674121384408E-02  1.6143577163455E+00
   113  1.1200000000000E+00 -1.0357011388246E-01  1.6124928231351E+00
   114  1.1300000000000E+00 -1.2493901929709E-01  1.6067543374661E+00
   115  1.1400000000000E+00 -1.4472767953267E-01  1.5970651043063E+00
   116  1.1500000000000E+00 -1.6289136818493E-01  1.5833745695209E+00
   117  1.1600000000000E+00 -1.7939427742399E-01  1.5656601489051E+00
   118  1.1700000000000E+00 -1.9420992727454E-01  1.5439283178291E+00
   119  1.1800000000000E+00 -2.0732149127494E-01  1.5182154024552E+00
   120  1.1900000000000E+00 -2.1872203343973E-01  1.4885880569392E+00
   121  1.2000000000000E+00 -2.2841465245840E-01  1.4551434146977E+00
   122  1.2100000000000E+00 -2.3641253014201E-01  1.4180089057180E+00
   123  1.2200000000000E+00 -2.4273888225152E-01  1.3773417359133E+00
   124  1.2300000000000E+00 -2.4742681099773E-01  1.3333280286447E+00
   125  1.2400000000000E+00 -2.5051905968412E-01  1.2861816327232E+00
   126  1.2500000000000E+00 -2.5206767113907E-01  1.2361426053394E+00
   127  1.2600000000000E+00 -2.5213355275741E-01  1.1834753824854E+00
   128  1.2700000000000E+00 -2.5078595211295E-01  1.1284666534012E+00
   129  1.2800000000000E+00 -2.4810184820035E-01  1.0714229593729E+00
   130  1.2900000000000E+00 -2.4416526441267E-01  1.0126680408036E+00
   131  1.3000000000000E+00 -2.3906651033103E-01  9.5253995977849E-01
   132  1.3100000000000E+00 -2.3290136029016E-01  8.9138802832755E-01
   133  1.3200000000000E+00 -2.2577017747873E-01  8.2956957523145E-01
   134  1.3300000000000E+00 -2.1777699301735E-01  7.6744658644327E-01
   135  1.3400000000000E+00 -2.0902855002639E-01  7.0538225600517E-01
   136  1.3500000000000E+00 -1.9963332314021E-01  6.4373748569010E-01
   137  1.3600000000000E+00 -1.8970052423945E-01  5.8286737247834E-01
   138  1.3700000000000E+00 -1.7933910535021E-01  5.2311772336168E-01
   139  1.3800000000000E+00 -1.6865676969976E-01  4.6482163685857E-01
   140  1.3900000000000E+00 -1.5775900181964E-01  4.0829619001751E-01
   141  1.4000000000000E+00 -1.4674812734903E-01  3.5383926857825E-01
   142  1.4100000000000E+00 -1.3572241281813E-01  3.0172657637941E-01
   143  1.4200000000000E+00 -1.2477521518647E-01  2.5220885804905E-01
   144  1.4300000000000E+00 -1.1399419028240E-01  2.0550936653180E-01
   145  1.4400000000000E+00 -1.0346056854346E-01  1.6182160410865E-01
   146  1.4500000000000E+00 -9.3248505602415E-02  1.2130736229182E-01
   147  1.4600000000000E+00 -8.3424514314676E-02  8.4095082381754E-02
   148  1.4700000000000E+00 -7.4046983788657E-02  5.0278554584417E-02
   149  1.4800000000000E+00 -6.5165789841322E-02  1.9915969253611E-02
   150  1.4900000000000E+00 -5.6822000067054E-02 -6.9706708814981E-03
   151  1.5000000000000E+00 -4.9047678997366E-02 -3.0395751944873E-02
   152  1.5100000000000E+00 -4.1865777100622E-02 -5.0409968030572E-02
   153  1.5200000000000E+00 -3.5290355159364E-02 -6.7098413994313E-02
   154  1.5300000000000E+00 -2.9327288900749E-02 -8.0576097966071E-02
   155  1.5400000000000E+00 -2.3974801705090E-02 -9.0984955553215E-02
   156  1.5500000000000E+00 -1.9223857030113E-02 -9.8492001725978E-02
   157  1.5600000000000E+00 -1.5058645193855E-02 -1.0328710633314E-01
   158  1.5700000000000E+00 -1.1457141295780E-02 -1.0558052588585E-01
   159  1.5800000000000E+00 -8.3917298884712E-03 -1.0560020047074E-01
   160  1.5900000000000E+00 -5.8298879877813E-03 -1.0358884840785E-01
   161  1.6000000000000E+00 -3.7349172474893E-03 -9.9800893944018E-02
   162  1.6100000000000E+00 -2.0667155535583E-03 -9.4499265138600E-02
   163  1.6200000000000E+00 -7.8257779697121E-04 -8.7952100810756E-02
   164  1.6300000000000E+00  1.6198477924773E-04 -8.0429406642873E-02
   165  1.6400000000000E+00  8.1242169377467E-04 -7.2199714328293E-02
   166  1.6500000000000E+00  1.2142851360529E-03 -6.3526652666131E-02
   167  1.6600000000000E+00  1.4125190664023E-03 -5.4666001540471E-02
   168  1.6700000000000E+00  1.4504634911974E-03 -4.5861910434305E-02
   169  1.6800000000000E+00  1.3639304845436E-03 -3.7327770899782E-02
   170  1.6900000000000E+00  1.1863204474156E-03 -2.9261416768261E-02
   171  1.7000000000000E+00  9.5639032326225E-04 -2.1868850579555E-02
   172  1.7100000000000E+00  7.0797815289168E-04 -1.5331941907936E-02
   173  1.7200000000000E+00  4.7003261086873E-04 -9.8080440503522E-03
   174  1.7300000000000E+00  2.6605374640660E-04 -5.4289581971667E-03
   175  1.7400000000000E+00  1.1304363614765E-04 -2.2863167016205E-03
   176  1.7500000000000E+00  2.4176437149560E-05 -4.9202457809441E-04
   177  1.7600000000000E+00 -1.3540915284353E-06  2.6006662799021E-05
   178  1.7700000000000E+00  2.3235002775542E-07 -4.6206793624751E-06
   179  1.78 -0.  0.
   180  1.79 -0.  0.
   181  1.80  0. -0.
   182  1.81  0.  0.
   183  1.82  0.  0.
   184  1.83  0.  0.
   185  1.84  0.  0.
   186  1.85  0.  0.
   187  1.86  0.  0.
   188  1.87  0.  0.
   189  1.88  0.  0.
   190  1.89  0.  0.
   191  1.90  0.  0.
   192  1.91  0.  0.
   193  1.92  0.  0.
   194  1.93  0.  0.
   195  1.94  0.  0.
   196  1.95  0.  0.
   197  1.96  0.  0.
   198  1.97  0.  0.
   199  1.98  0.  0.
   200  1.99  0.  0.
   201  2.00  0.  0.
   202  2.01  0.  0.
   203  2.02  0.  0.
   204  2.03  0.  0.
   205  2.04  0.  0.
   206  2.05  0.  0.
   207  2.06  0.  0.
   208  2.07  0.  0.
   209  2.08  0.  0.
   210  2.09  0.  0.
   211  2.10  0.  0.
   212  2.11  0.  0.
   213  2.12  0.  0.
   214  2.13  0.  0.
   215  2.14  0.  0.
   216  2.15  0.  0.
   217  2.16  0.  0.
   218  2.17  0.  0.
   219  2.18  0.  0.
   220  2.19  0.  0.
   221  2.20  0.  0.
   222  2.21  0.  0.
   223  2.22  0.  0.
   224  2.23  0.  0.
   225  2.24  0.  0.
   226  2.25  0.  0.
   227  2.26  0.  0.
   228  2.27  0.  0.
   229  2.28  0.  0.
   230  2.29  0.  0.
   231  2.30  0.  0.
   232  2.31  0.  0.
   233  2.32  0.  0.
   234  2.33  0.  0.
   235  2.34  0.  0.
   236  2.35  0.  0.
   237  2.36  0.  0.
   238  2.37  0.  0.
   239  2.38  0.  0.
   240  2.39  0.  0.
   241  2.40  0.  0.
   242  2.41  0.  0.
   243  2.42  0.  0.
   244  2.43  0.  0.
   245  2.44  0.  0.
   246  2.45  0.  0.
   247  2.46  0.  0.
   248  2.47  0.  0.
   249  2.48  0.  0.
   250  2.49  0.  0.
   251  2.50  0.  0.
   252  2.51  0.  0.
   253  2.52  0.  0.
   254  2.53  0.  0.
   255  2.54  0.  0.
   256  2.55  0.  0.
   257  2.56  0.  0.
   258  2.57  0.  0.
   259  2.58  0.  0.
   260  2.59  0.  0.
   261  2.60  0.  0.
   262  2.61  0.  0.
   263  2.62  0.  0.
   264  2.63  0.  0.
   265  2.64  0.  0.
   266  2.65  0.  0.
   267  2.66  0.  0.
   268  2.67  0.  0.
   269  2.68  0.  0.
   270  2.69  0.  0.
   271  2.70  0.  0.
   272  2.71  0.  0.
   273  2.72  0.  0.
   274  2.73  0.  0.
   275  2.74  0.  0.
   276  2.75  0.  0.
   277  2.76  0.  0.
   278  2.77  0.  0.
   279  2.78  0.  0.
   280  2.79  0.  0.
   281  2.80  0.  0.
   282  2.81  0.  0.
   283  2.82  0.  0.
   284  2.83  0.  0.
   285  2.84  0.  0.
   286  2.85  0.  0.
   287  2.86  0.  0.
   288  2.87  0.  0.
   289  2.88  0.  0.
   290  2.89  0.  0.
   291  2.90  0.  0.
   292  2.91  0.  0.
   293  2.92  0.  0.
   294  2.93  0.  0.
   295  2.94  0.  0.
   296  2.95  0.  0.
   297  2.96  0.  0.
   298  2.97  0.  0.
   299  2.98  0.  0.
   300  2.99  0.  0.
   301  3.00  0.  0.
   302  3.01  0.  0.
   303  3.02  0.  0.
   304  3.03  0.  0.
   305  3.04  0.  0.
   306  3.05  0.  0.
   307  3.06  0.  0.
   308  3.07  0.  0.
   309  3.08  0.  0.
   310  3.09  0.  0.
   311  3.10  0.  0.
   312  3.11  0.  0.
   313  3.12  0.  0.
   314  3.13  0.  0.
   315  3.14  0.  0.
   316  3.15  0.  0.
   317  3.16  0.  0.
   318  3.17  0.  0.
   319  3.18  0.  0.
   320  3.19  0.  0.
   321  3.20  0.  0.
   322  3.21  0.  0.
   323  3.22  0.  0.
   324  3.23  0.  0.
   325  3.24  0.  0.
   326  3.25  0.  0.
   327  3.26  0.  0.
   328  3.27  0.  0.
   329  3.28  0.  0.
   330  3.29  0.  0.
   331  3.30  0.  0.
   332  3.31  0.  0.
   333  3.32  0.  0.
   334  3.33  0.  0.
   335  3.34  0.  0.
   336  3.35  0.  0.
   337  3.36  0.  0.
   338  3.37  0.  0.
   339  3.38  0.  0.
   340  3.39  0.  0.
   341  3.40  0.  0.
   342  3.41  0.  0.
   343  3.42  0.  0.
   344  3.43  0.  0.
   345  3.44  0.  0.
   346  3.45  0.  0.
   347  3.46  0.  0.
   348  3.47  0.  0.
   349  3.48  0.  0.
   350  3.49  0.  0.
   351  3.50  0.  0.
   352  3.51  0.  0.
   353  3.52  0.  0.
   354  3.53  0.  0.
   355  3.54  0.  0.
   356  3.55  0.  0.
   357  3.56  0.  0.
   358  3.57  0.  0.
   359  3.58  0.  0.
   360  3.59  0.  0.
   361  3.60  0.  0.
   362  3.61  0.  0.
   363  3.62  0.  0.
   364  3.63  0.  0.
   365  3.64  0.  0.
   366  3.65  0.  0.
   367  3.66  0.  0.
   368  3.67  0.  0.
   369  3.68  0.  0.
   370  3.69  0.  0.
   371  3.70  0.  0.
   372  3.71  0.  0.
   373  3.72  0.  0.
   374  3.73  0.  0.
   375  3.74  0.  0.
   376  3.75  0.  0.
   377  3.76  0.  0.
   378  3.77  0.  0.
   379  3.78  0.  0.
   380  3.79  0.  0.
   381  3.80  0.  0.
   382  3.81  0.  0.
   383  3.82  0.  0.
   384  3.83  0.  0.
   385  3.84  0.  0.
   386  3.85  0.  0.
   387  3.86  0.  0.
   388  3.87  0.  0.
   389  3.88  0.  0.
   390  3.89  0.  0.
   391  3.90  0.  0.
   392  3.91  0.  0.
   393  3.92  0.  0.
   394  3.93  0.  0.
   395  3.94  0.  0.
   396  3.95  0.  0.
   397  3.96  0.  0.
   398  3.97  0.  0.
   399  3.98  0.  0.
   400  3.99  0.  0.
   401  4.00  0.  0.
   402  4.01  0.  0.
   403  4.02  0.  0.
   404  4.03  0.  0.
   405  4.04  0.  0.
   406  4.05  0.  0.
   407  4.06  0.  0.
   408  4.07  0.  0.
   409  4.08  0.  0.
   410  4.09  0.  0.
   411  4.10  0.  0.
   412  4.11  0.  0.
   413  4.12  0.  0.
   414  4.13  0.  0.
   415  4.14  0.  0.
   416  4.15  0.  0.
   417  4.16  0.  0.
   418  4.17  0.  0.
   419  4.18  0.  0.
   420  4.19  0.  0.
   421  4.20  0.  0.
   422  4.21  0.  0.
   423  4.22  0.  0.
   424  4.23  0.  0.
   425  4.24  0.  0.
   426  4.25  0.  0.
   427  4.26  0.  0.
   428  4.27  0.  0.
   429  4.28  0.  0.
   430  4.29  0.  0.
   431  4.30  0.  0.
   432  4.31  0.  0.
   433  4.32  0.  0.
   434  4.33  0.  0.
   435  4.34  0.  0.
   436  4.35  0.  0.
   437  4.36  0.  0.
   438  4.37  0.  0.
   439  4.38  0.  0.
   440  4.39  0.  0.
   441  4.40  0.  0.
   442  4.41  0.  0.
   443  4.42  0.  0.
   444  4.43  0.  0.
   445  4.44  0.  0.
   446  4.45  0.  0.
   447  4.46  0.  0.
   448  4.47  0.  0.
   449  4.48  0.  0.
   450  4.49  0.  0.
   451  4.50  0.  0.
   452  4.51  0.  0.
   453  4.52  0.  0.
   454  4.53  0.  0.
   455  4.54  0.  0.
   456  4.55  0.  0.
   457  4.56  0.  0.
   458  4.57  0.  0.
   459  4.58  0.  0.
   460  4.59  0.  0.
   461  4.60  0.  0.
   462  4.61  0.  0.
   463  4.62  0.  0.
   464  4.63  0.  0.
   465  4.64  0.  0.
   466  4.65  0.  0.
   467  4.66  0.  0.
   468  4.67  0.  0.
   469  4.68  0.  0.
   470  4.69  0.  0.
   471  4.70  0.  0.
   472  4.71  0.  0.
   473  4.72  0.  0.
   474  4.73  0.  0.
   475  4.74  0.  0.
   476  4.75  0.  0.
   477  4.76  0.  0.
   478  4.77  0.  0.
   479  4.78  0.  0.
   480  4.79  0.  0.
   481  4.80  0.  0.
   482  4.81  0.  0.
   483  4.82  0.  0.
   484  4.83  0.  0.
   485  4.84  0.  0.
   486  4.85  0.  0.
   487  4.86  0.  0.
   488  4.87  0.  0.
   489  4.88  0.  0.
   490  4.89  0.  0.
   491  4.90  0.  0.
   492  4.91  0.  0.
   493  4.92  0.  0.
   494  4.93  0.  0.
   495  4.94  0.  0.
   496  4.95  0.  0.
   497  4.96  0.  0.
   498  4.97  0.  0.
   499  4.98  0.  0.
   500  4.99  0.  0.
   501  5.00  0.  0.
   502  5.01  0.  0.
   503  5.02  0.  0.
   504  5.03  0.  0.
   505  5.04  0.  0.
   506  5.05  0.  0.
   507  5.06  0.  0.
   508  5.07  0.  0.
   509  5.08  0.  0.
   510  5.09  0.  0.
   511  5.10  0.  0.
   512  5.11  0.  0.
   513  5.12  0.  0.
   514  5.13  0.  0.
   515  5.14  0.  0.
   516  5.15  0.  0.
   517  5.16  0.  0.
   518  5.17  0.  0.
   519  5.18  0.  0.
   520  5.19  0.  0.
   521  5.20  0.  0.
   522  5.21  0.  0.
   523  5.22  0.  0.
   524  5.23  0.  0.
   525  5.24  0.  0.
   526  5.25  0.  0.
   527  5.26  0.  0.
   528  5.27  0.  0.
   529  5.28  0.  0.
   530  5.29  0.  0.
   531  5.30  0.  0.
   532  5.31  0.  0.
   533  5.32  0.  0.
   534  5.33  0.  0.
   535  5.34  0.  0.
   536  5.35  0.  0.
   537  5.36  0.  0.
   538  5.37  0.  0.
   539  5.38  0.  0.
   540  5.39  0.  0.
   541  5.40  0.  0.
   542  5.41  0.  0.
   543  5.42  0.  0.
   544  5.43  0.  0.
   545  5.44  0.  0.
   546  5.45  0.  0.
   547  5.46  0.  0.
   548  5.47  0.  0.
   549  5.48  0.  0.
   550  5.49  0.  0.
   551  5.50  0.  0.
   552  5.51  0.  0.
   553  5.52  0.  0.
   554  5.53  0.  0.
   555  5.54  0.  0.
   556  5.55  0.  0.
   557  5.56  0.  0.
   558  5.57  0.  0.
   559  5.58  0.  0.
   560  5.59  0.  0.
   561  5.60  0.  0.
   562  5.61  0.  0.
   563  5.62  0.  0.
   564  5.63  0.  0.
   565  5.64  0.  0.
   566  5.65  0.  0.
   567  5.66  0.  0.
   568  5.67  0.  0.
   569  5.68  0.  0.
   570  5.69  0.  0.
   571  5.70  0.  0.
   572  5.71  0.  0.
   573  5.72  0.  0.
   574  5.73  0.  0.
   575  5.74  0.  0.
   576  5.75  0.  0.
   577  5.76  0.  0.
   578  5.77  0.  0.
   579  5.78  0.  0.
   580  5.79  0.  0.
   581  5.80  0.  0.
   582  5.81  0.  0.
   583  5.82  0.  0.
   584  5.83  0.  0.
   585  5.84  0.  0.
   586  5.85  0.  0.
   587  5.86  0.  0.
   588  5.87  0.  0.
   589  5.88  0.  0.
   590  5.89  0.  0.
   591  5.90  0.  0.
   592  5.91  0.  0.
   593  5.92  0.  0.
   594  5.93  0.  0.
   595  5.94  0.  0.
   596  5.95  0.  0.
   597  5.96  0.  0.
   598  5.97  0.  0.
   599  5.98  0.  0.
   600  5.99  0.  0.
   1                         5.1842859929625E+00  7.1888247809976E-01
     1  0.0000000000000E+00 -8.5109759424568E-09  2.3795508008462E-08
     2  1.0000000000000E-02 -5.3143330538432E-05  2.2118202687669E-03
     3  2.0000000000000E-02 -1.9763100432339E-04  8.8012578127508E-03
     4  3.0000000000000E-02 -3.8892534079245E-04  1.9631060128968E-02
     5  4.0000000000000E-02 -5.5375624349753E-04  3.4475183709441E-02
     6  5.0000000000000E-02 -5.9154328364753E-04  5.3022812599010E-02
     7  6.0000000000000E-02 -3.7635295241188E-04  7.4883890286249E-02
     8  7.0000000000000E-02  2.4064193001440E-04  9.9596072656809E-02
     9  8.0000000000000E-02  1.4282421715597E-03  1.2663298594300E-01
    10  9.0000000000000E-02  3.3718908949578E-03  1.5541365167738E-01
    11  1.0000000000000E-01  6.2699873595775E-03  1.8531292095710E-01
    12  1.1000000000000E-01  1.0329908453630E-02  2.1567274316917E-01
    13  1.2000000000000E-01  1.5763805508573E-02  2.4581407999481E-01
    14  1.3000000000000E-01  2.2784248106809E-02  2.7504926423871E-01
    15  1.4000000000000E-01  3.1599789408487E-02  3.0269459500441E-01
    16  1.5000000000000E-01  4.2410529165099E-02  3.2808295609439E-01
    17  1.6000000000000E-01  5.5403750986655E-02  3.5057624333797E-01
    18  1.7000000000000E-01  7.0749709576315E-02  3.6957738886641E-01
    19  1.8000000000000E-01  8.8597641551081E-02  3.8454177613772E-01
    20  1.9000000000000E-01  1.0907207015984E-01  3.9498784867890E-01
    21  2.0000000000000E-01  1.3226946973969E-01  4.0050672792506E-01
    22  2.1000000000000E-01  1.5825535018608E-01  4.0077067100354E-01
    23  2.2000000000000E-01  1.8706181513758E-01  3.9554021760001E-01
    24  2.3000000000000E-01  2.1868564009322E-01  3.8466989586846E-01
    25  2.4000000000000E-01  2.5308690840740E-01  3.6811238038365E-01
    26  2.5000000000000E-01  2.9018823417188E-01  3.4592102002275E-01
    27  2.6000000000000E-01  3.2987459153922E-01  3.1825068001033E-01
    28  2.7000000000000E-01  3.7199376021492E-01  2.8535686975179E-01
    29  2.8000000000000E-01  4.1635738680380E-01  2.4759315608065E-01
    30  2.9000000000000E-01  4.6274265159838E-01  2.0540688970779E-01
    31  3.0000000000000E-01  5.1089452040700E-01  1.5933330053702E-01
    32  3.1000000000000E-01  5.6052855129554E-01  1.0998804465159E-01
    33  3.2000000000000E-01  6.1133421681806E-01  5.8058311743288E-02
    34  3.3000000000000E-01  6.6297869358849E-01  4.2926261268065E-03
    35  3.4000000000000E-01  7.1511106304162E-01 -5.0510503140655E-02
    36  3.5000000000000E-01  7.6736686007843E-01 -1.0551490750163E-01
    37  3.6000000000000E-01  8.1937290010850E-01 -1.5985986665309E-01
    38  3.7000000000000E-01  8.7075230989529E-01 -2.1267379163845E-01
    39  3.8000000000000E-01  9.2112968366680E-01 -2.6308826501263E-01
    40  3.9000000000000E-01  9.7013628324515E-01 -3.1025221216172E-01
    41  4.0000000000000E-01  1.0174151995249E+00 -3.5334597378283E-01
    42  4.1000000000000E-01  1.0626263925232E+00 -3.9159504912063E-01
    43  4.2000000000000E-01  1.1054515284443E+00 -4.2428328284599E-01
    44  4.3000000000000E-01  1.1455985347395E+00 -4.5076527542099E-01
    45  4.4000000000000E-01  1.1828057979648E+00 -4.7047780733856E-01
    46  4.5000000000000E-01  1.2168459342954E+00 -4.8295008161068E-01
    47  4.6000000000000E-01  1.2475290687761E+00 -4.8781260610881E-01
    48  4.7000000000000E-01  1.2747055666744E+00 -4.8480455758342E-01
    49  4.8000000000000E-01  1.2982681685582E+00 -4.7377949210615E-01
    50  4.9000000000000E-01  1.3181534898144E+00 -4.5470929194464E-01
    51  5.0000000000000E-01  1.3343428551163E+00 -4.2768626611317E-01
    52  5.1000000000000E-01  1.3468624486966E+00 -3.9292335062357E-01
    53  5.2000000000000E-01  1.3557827720178E+00 -3.5075238434747E-01
    54  5.3000000000000E-01  1.3612174113934E+00 -3.0162046692622E-01
    55  5.4000000000000E-01  1.3633211291260E+00 -2.4608443585146E-01
    56  5.5000000000000E-01  1.3622873026193E+00 -1.8480353020165E-01
    57  5.6000000000000E-01  1.3583447465146E+00 -1.1853033807601E-01
    58  5.7000000000000E-01  1.3517539630339E+00 -4.8100153042199E-02
    59  5.8000000000000E-01  1.3428028752066E+00  2.5581108548019E-02
    60  5.9000000000000E-01  1.3318021063748E+00  1.0155025315507E-01
    61  6.0000000000000E-01  1.3190798771533E+00  1.7880122054673E-01
    62  6.1000000000000E-01  1.3049765977465E+00  2.5630034232500E-01
    63  6.2000000000000E-01  1.2898392390707E+00  3.3300221602352E-01
    64  6.3000000000000E-01  1.2740155704089E+00  4.0786595025320E-01
    65  6.4000000000000E-01  1.2578483542507E+00  4.7987152806519E-01
    66  6.5000000000000E-01  1.2416695904839E+00  5.4803603130580E-01
    67  6.6000000000000E-01  1.2257949021818E+00  6.1142946836046E-01
    68  6.7000000000000E-01  1.2105181538453E+00  6.6918995136186E-01
    69  6.8000000000000E-01  1.1961063901227E+00  7.2053797664804E-01
    70  6.9000000000000E-01  1.1827951787900E+00  7.6478957391192E-01
    71  7.0000000000000E-01  1.1707844361587E+00  8.0136810493494E-01
    72  7.1000000000000E-01  1.1602348061894E+00  8.2981451183294E-01
    73  7.2000000000000E-01  1.1512646565091E+00  8.4979583709586E-01
    74  7.3000000000000E-01  1.1439477453800E+00  8.6111186304703E-01
    75  7.4000000000000E-01  1.1383116035822E+00  8.6369974631821E-01
    76  7.5000000000000E-01  1.1343366643018E+00  8.5763655310861E-01
    77  7.6000000000000E-01  1.1319561626281E+00  8.4313963292156E-01
    78  7.7000000000000E-01  1.1310568143196E+00  8.2056480166568E-01
    79  7.8000000000000E-01  1.1314802713048E+00  7.9040233895621E-01
    80  7.9000000000000E-01  1.1330253391040E+00  7.5327083863637E-01
    81  8.0000000000000E-01  1.1354509292070E+00  7.0990898542096E-01
    82  8.1000000000000E-01  1.1384797075921E+00  6.6116536361860E-01
    83  8.2000000000000E-01  1.1418023892243E+00  6.0798643558554E-01
    84  8.3000000000000E-01  1.1450826177016E+00  5.5140285740101E-01
    85  8.4000000000000E-01  1.1479623594029E+00  4.9251432674857E-01
    86  8.5000000000000E-01  1.1500677326872E+00  4.3247318269162E-01
    87  8.6000000000000E-01  1.1510151850498E+00  3.7246699853627E-01
    88  8.7000000000000E-01  1.1504179247916E+00  3.1370042691897E-01
    89  8.8000000000000E-01  1.1478925087973E+00  2.5737657033132E-01
    90  8.9000000000000E-01  1.1430654845583E+00  2.0467816024951E-01
    91  9.0000000000000E-01  1.1355799826628E+00  1.5674883368209E-01
    92  9.1000000000000E-01  1.1251021556645E+00  1.1467479716485E-01
    93  9.2000000000000E-01  1.1113273605490E+00  7.9467164960866E-02
    94  9.3000000000000E-01  1.0939859849298E+00  5.2045250482800E-02
    95  9.4000000000000E-01  1.0728488216015E+00  3.3221077827415E-02
    96  9.5000000000000E-01  1.0477319020942E+00  2.3685363952706E-02
    97  9.6000000000000E-01  1.0185007073270E+00  2.3995201658722E-02
    98  9.7000000000000E-01  9.8507368225465E-01  3.4563649434277E-02
    99  9.8000000000000E-01  9.4742499140323E-01  5.5651406759156E-02
   100  9.9000000000000E-01  9.0558646326076E-01  8.7360722990268E-02
   101  1.0000000000000E+00  8.5964868346268E-01  1.2963165497117E-01
   102  1.0100000000000E+00  8.0976120940874E-01  1.8224075347156E-01
   103  1.0200000000000E+00  7.5613189217147E-01  2.4480222204167E-01
   104  1.0300000000000E+00  6.9902530512759E-01  3.1677155434401E-01
   105  1.0400000000000E+00  6.3876029242702E-01  3.9745161815316E-01
   106  1.0500000000000E+00  5.7570666400825E-01  4.8600111655298E-01
   107  1.0600000000000E+00  5.1028107718946E-01  5.8144531991770E-01
   108  1.0700000000000E+00  4.4294215765108E-01  6.8268892676107E-01
   109  1.0800000000000E+00  3.7418492472574E-01  7.8853087789924E-01
   110  1.0900000000000E+00  3.0453459711599E-01  8.9768091717671E-01
   111  1.1000000000000E+00  2.3453986526366E-01  1.0087776638229E+00
   112  1.1100000000000E+00  1.6476572549861E-01  1.1204079366126E+00
   113  1.1200000000000E+00  9.5785978565294E-02  1.2311270490454E+00
   114  1.1300000000000E+00  2.8175501130178E-02  1.3394797778328E+00
   115  1.1400000000000E+00 -3.7497596771762E-02  1.4440216945933E+00
   116  1.1500000000000E+00 -1.0067981270374E-01  1.5433405428570E+00
   117  1.1600000000000E+00 -1.6083997462596E-01  1.6360773395233E+00