Kr    ONCVPSP-4.0.1  r_core=   1.75834   1.50506   1.80092
     36.0000      8.0000      250217    zatom,zion,pspd
     8       2   2     4   600     0    pspcod,pspxc,lmax,lloc,mmax,r2well
  5.99000000  7.00000000  0.00000000    rchrg fchrg qchrg
     2     3     2     0    nproj
     3     1           extension_switch
     4     3     0    nprojso
   0                         8.4479162524092E+00  8.1697333795791E-01
     1  0.0000000000000E+00  3.4591934872097E-10 -1.0977581205163E-09
     2  1.0000000000000E-02  3.6836483760073E-02 -1.0178010126630E-02
     3  2.0000000000000E-02  7.3679277377309E-02 -2.0419752712414E-02
     4  3.0000000000000E-02  1.1053420699523E-01 -3.0787582546283E-02
     5  4.0000000000000E-02  1.4740613798995E-01 -4.1341119217915E-02
     6  5.0000000000000E-02  1.8429851114667E-01 -5.2135929586921E-02
     7  6.0000000000000E-02  2.2121289845913E-01 -6.3222269542841E-02
     8  7.0000000000000E-02  2.5814858468113E-01 -7.4643903511723E-02
     9  8.0000000000000E-02  2.9510218041328E-01 -8.6437019067277E-02
    10  9.0000000000000E-02  3.3206727208457E-01 -9.8629252661244E-02
    11  1.0000000000000E-01  3.6903411369270E-01 -1.1123884091708E-01
    12  1.1000000000000E-01  4.0598936460636E-01 -1.2427391015528E-01
    13  1.2000000000000E-01  4.4291587711367E-01 -1.3773191486203E-01
    14  1.3000000000000E-01  4.7979253673322E-01 -1.5159923370287E-01
    15  1.4000000000000E-01  5.1659415759517E-01 -1.6585092944872E-01
    16  1.5000000000000E-01  5.5329143446072E-01 -1.8045067685396E-01
    17  1.6000000000000E-01  5.8985095218771E-01 -1.9535086013829E-01
    18  1.7000000000000E-01  6.2623525267889E-01 -2.1049283930815E-01
    19  1.8000000000000E-01  6.6240295857853E-01 -2.2580738214473E-01
    20  1.9000000000000E-01  6.9830895222144E-01 -2.4121525631618E-01
    21  2.0000000000000E-01  7.3390460759844E-01 -2.5662797377637E-01
    22  2.1000000000000E-01  7.6913807239185E-01 -2.7194867742292E-01
    23  2.2000000000000E-01  8.0395459646527E-01 -2.8707315793447E-01
    24  2.3000000000000E-01  8.3829690257116E-01 -3.0189098682061E-01
    25  2.4000000000000E-01  8.7210559447742E-01 -3.1628675002419E-01
    26  2.5000000000000E-01  9.0531959721696E-01 -3.3014136494018E-01
    27  2.6000000000000E-01  9.3787662373977E-01 -3.4333346247746E-01
    28  2.7000000000000E-01  9.6971366190029E-01 -3.5574081481081E-01
    29  2.8000000000000E-01  1.0007674754496E+00 -3.6724178876186E-01
    30  2.9000000000000E-01  1.0309751125256E+00 -3.7771680432297E-01
    31  3.0000000000000E-01  1.0602744150457E+00 -3.8704977770298E-01
    32  3.1000000000000E-01  1.0886045224117E+00 -3.9512952843174E-01
    33  3.2000000000000E-01  1.1159063630280E+00 -4.0185113051075E-01
    34  3.3000000000000E-01  1.1421231273195E+00 -4.0711718833451E-01
    35  3.4000000000000E-01  1.1672007162044E+00 -4.1083901912282E-01
    36  3.5000000000000E-01  1.1910881593323E+00 -4.1293772488445E-01
    37  3.6000000000000E-01  1.2137379978293E+00 -4.1334513846165E-01
    38  3.7000000000000E-01  1.2351066267987E+00 -4.1200462996179E-01
    39  3.8000000000000E-01  1.2551545933974E+00 -4.0887176184325E-01
    40  3.9000000000000E-01  1.2738468469368E+00 -4.0391478306152E-01
    41  4.0000000000000E-01  1.2911529381396E+00 -3.9711495496938E-01
    42  4.1000000000000E-01  1.3070471654008E+00 -3.8846670406809E-01
    43  4.2000000000000E-01  1.3215086666547E+00 -3.7797759919531E-01
    44  4.3000000000000E-01  1.3345214562188E+00 -3.6566815327153E-01
    45  4.4000000000000E-01  1.3460744067659E+00 -3.5157145227632E-01
    46  4.5000000000000E-01  1.3561611773544E+00 -3.3573261665268E-01
    47  4.6000000000000E-01  1.3647800892139E+00 -3.1820810280510E-01
    48  4.7000000000000E-01  1.3719339517237E+00 -2.9906485472987E-01
    49  4.8000000000000E-01  1.3776298417330E+00 -2.7837931806035E-01
    50  4.9000000000000E-01  1.3818788400374E+00 -2.5623633089192E-01
    51  5.0000000000000E-01  1.3846957294349E+00 -2.3272790764050E-01
    52  5.1000000000000E-01  1.3860986593380E+00 -2.0795193385686E-01
    53  5.2000000000000E-01  1.3861087823943E+00 -1.8201079133998E-01
    54  5.3000000000000E-01  1.3847498689731E+00 -1.5500993404509E-01
    55  5.4000000000000E-01  1.3820479056891E+00 -1.2705643614653E-01
    56  5.5000000000000E-01  1.3780306843689E+00 -9.8257534176877E-02
    57  5.6000000000000E-01  1.3727273879982E+00 -6.8719185412794E-02
    58  5.7000000000000E-01  1.3661681802347E+00 -3.8544664605747E-02
    59  5.8000000000000E-01  1.3583838050143E+00 -7.8332207633017E-03
    60  5.9000000000000E-01  1.3494052026304E+00  2.3321185026870E-02
    61  6.0000000000000E-01  1.3392631484240E+00  5.4831040762212E-02
    62  6.1000000000000E-01  1.3279879198828E+00  8.6616325038053E-02
    63  6.2000000000000E-01  1.3156089975297E+00  1.1860541187688E-01
    64  6.3000000000000E-01  1.3021548044727E+00  1.5073582371888E-01
    65  6.4000000000000E-01  1.2876524889094E+00  1.8295481953555E-01
    66  6.5000000000000E-01  1.2721277532318E+00  2.1521980735899E-01
    67  6.6000000000000E-01  1.2556047326693E+00  2.4749857303293E-01
    68  6.7000000000000E-01  1.2381059256509E+00  2.7976931965385E-01
    69  6.8000000000000E-01  1.2196521772732E+00  3.1202051494651E-01
    70  6.9000000000000E-01  1.2002627164358E+00  3.4425054666828E-01
    71  7.0000000000000E-01  1.1799552463655E+00  3.7646718902198E-01
    72  7.1000000000000E-01  1.1587460874060E+00  4.0868688593741E-01
    73  7.2000000000000E-01  1.1366503701108E+00  4.4093385991530E-01
    74  7.3000000000000E-01  1.1136822758606E+00  4.7323905787399E-01
    75  7.4000000000000E-01  1.0898553214343E+00  5.0563894805939E-01
    76  7.5000000000000E-01  1.0651826832248E+00  5.3817418453189E-01
    77  7.6000000000000E-01  1.0396775560923E+00  5.7088815799589E-01
    78  7.7000000000000E-01  1.0133535412263E+00  6.0382545375165E-01
    79  7.8000000000000E-01  9.8622505683249E-01  6.3703023929500E-01
    80  7.9000000000000E-01  9.5830776498975E-01  6.7054460553954E-01
    81  8.0000000000000E-01  9.2961900764335E-01  7.0440688676427E-01
    82  8.1000000000000E-01  9.0017824441600E-01  7.3864998517596E-01
    83  8.2000000000000E-01  8.7000748473697E-01  7.7329972640605E-01
    84  8.3000000000000E-01  8.3913170671319E-01  8.0837327232355E-01
    85  8.4000000000000E-01  8.0757925519817E-01  8.4387761723400E-01
    86  8.5000000000000E-01  7.7538221165533E-01  8.7980819284839E-01
    87  8.6000000000000E-01  7.4257672866152E-01  9.1614760634942E-01
    88  8.7000000000000E-01  7.0920332225196E-01  9.5286453446574E-01
    89  8.8000000000000E-01  6.7530711576579E-01  9.8991279470176E-01
    90  8.9000000000000E-01  6.4093802940698E-01  1.0272306127815E+00
    91  9.0000000000000E-01  6.0615091038211E-01  1.0647401029734E+00
    92  9.1000000000000E-01  5.7100559920645E-01  1.1023469753005E+00
    93  9.2000000000000E-01  5.3556692857392E-01  1.1399404807328E+00
    94  9.3000000000000E-01  4.9990465205481E-01  1.1773936023558E+00
    95  9.4000000000000E-01  4.6409330080628E-01  1.2145634972329E+00
    96  9.5000000000000E-01  4.2821196744264E-01  1.2512921902934E+00
    97  9.6000000000000E-01  3.9234401720268E-01  1.2874075181042E+00
    98  9.7000000000000E-01  3.5657672755638E-01  1.3227243168925E+00
    99  9.8000000000000E-01  3.2100085839989E-01  1.3570458457029E+00
   100  9.9000000000000E-01  2.8571015598144E-01  1.3901654321634E+00
   101  1.0000000000000E+00  2.5080079466927E-01  1.4218683250310E+00
   102  1.0100000000000E+00  2.1637076160042E-01  1.4519337345522E+00
   103  1.0200000000000E+00  1.8251919012475E-01  1.4801370387342E+00
   104  1.0300000000000E+00  1.4934564876905E-01  1.5062521309370E+00
   105  1.0400000000000E+00  1.1694939317875E-01  1.5300538817929E+00
   106  1.0500000000000E+00  8.5428589139748E-02  1.5513206863843E+00
   107  1.0600000000000E+00  5.4879515330740E-02  1.5698370658841E+00
   108  1.0700000000000E+00  2.5395754896829E-02  1.5853962915268E+00
   109  1.0800000000000E+00 -2.9326147366599E-03  1.5978029978419E+00
   110  1.0900000000000E+00 -3.0019824182889E-02  1.6068757515728E+00
   111  1.1000000000000E+00 -5.5785196832263E-02  1.6124495426307E+00
   112  1.1100000000000E+00 -8.0153906339434E-02  1.6143781638013E+00
   113  1.1200000000000E+00 -1.0305769735353E-01  1.6125364467330E+00
   114  1.1300000000000E+00 -1.2443556028054E-01  1.6068223229870E+00
   115  1.1400000000000E+00 -1.4423435128155E-01  1.5971586805998E+00
   116  1.1500000000000E+00 -1.6240934924766E-01  1.5834949887004E+00
   117  1.1600000000000E+00 -1.7892474213808E-01  1.5658086651835E+00
   118  1.1700000000000E+00 -1.9375403582501E-01  1.5441061652786E+00
   119  1.1800000000000E+00 -2.0688037943514E-01  1.5184237719942E+00
   120  1.1900000000000E+00 -2.1829680211913E-01  1.4888280728647E+00
   121  1.2000000000000E+00 -2.2800635718707E-01  1.4554161110958E+00
   122  1.2100000000000E+00 -2.3602217062502E-01  1.4183152030913E+00
   123  1.2200000000000E+00 -2.4236739212816E-01  1.3776824183671E+00
   124  1.2300000000000E+00 -2.4707504794062E-01  1.3337037219744E+00
   125  1.2400000000000E+00 -2.5018779597118E-01  1.2865927837357E+00
   126  1.2500000000000E+00 -2.5175758482794E-01  1.2365894627341E+00
   127  1.2600000000000E+00 -2.5184521958627E-01  1.1839579796017E+00
   128  1.2700000000000E+00 -2.5051983824473E-01  1.1289847931219E+00
   129  1.2800000000000E+00 -2.4785830391847E-01  1.0719762014474E+00
   130  1.2900000000000E+00 -2.4394451886603E-01  1.0132556918272E+00
   131  1.3000000000000E+00 -2.3886866741437E-01  9.5316106603131E-01
   132  1.3100000000000E+00 -2.3272639573283E-01  8.9204137164380E-01
   133  1.3200000000000E+00 -2.2561793720066E-01  8.3025367202994E-01
   134  1.3300000000000E+00 -2.1764719279602E-01  7.6815969001101E-01
   135  1.3400000000000E+00 -2.0892077650261E-01  7.0612236208330E-01
   136  1.3500000000000E+00 -1.9954703617422E-01  6.4450234136912E-01
   137  1.3600000000000E+00 -1.8963506061199E-01  5.8365448836462E-01
   138  1.3700000000000E+00 -1.7929368378634E-01  5.2392438893378E-01
   139  1.3800000000000E+00 -1.6863049717631E-01  4.6564493888802E-01
   140  1.3900000000000E+00 -1.5775088110095E-01  4.0913303388592E-01
   141  1.4000000000000E+00 -1.4675706567920E-01  3.5468640228155E-01
   142  1.4100000000000E+00 -1.3574723168327E-01  3.0258061697114E-01
   143  1.4200000000000E+00 -1.2481466104575E-01  2.5306632023796E-01
   144  1.4300000000000E+00 -1.1404694615384E-01  2.0636669311625E-01
   145  1.4400000000000E+00 -1.0352526631844E-01  1.6267519790044E-01
   146  1.4500000000000E+00 -9.3323738952451E-02  1.2215361915651E-01
   147  1.4600000000000E+00 -8.3508852045565E-02  8.4930425001763E-02
   148  1.4700000000000E+00 -7.4138983489796E-02  5.1099466534267E-02
   149  1.4800000000000E+00 -6.5264011673137E-02  2.0719028965736E-02
   150  1.4900000000000E+00 -5.6925020526147E-02 -6.1887566890649E-03
   151  1.5000000000000E+00 -4.9154104496707E-02 -2.9638115800923E-02
   152  1.5100000000000E+00 -4.1974257209138E-02 -4.9679550656884E-02
   153  1.5200000000000E+00 -3.5399595253042E-02 -6.6397934588503E-02
   154  1.5300000000000E+00 -2.9436061955909E-02 -7.9908025404654E-02
   155  1.5400000000000E+00 -2.4081959234392E-02 -9.0351481405972E-02
   156  1.5500000000000E+00 -1.9328339123918E-02 -9.7895015896683E-02
   157  1.5600000000000E+00 -1.5159489536726E-02 -1.0272817562391E-01
   158  1.5700000000000E+00 -1.1553491046670E-02 -1.0506087578441E-01
   159  1.5800000000000E+00 -8.4828403250330E-03 -1.0512070041659E-01
   160  1.5900000000000E+00 -5.9151318296624E-03 -1.0315000075400E-01
   161  1.6000000000000E+00 -3.8137885891322E-03 -9.9402826788435E-02
   162  1.6100000000000E+00 -2.1388323535600E-03 -9.4141729154449E-02
   163  1.6200000000000E+00 -8.4768288836754E-04 -8.7634470157741E-02
   164  1.6300000000000E+00  1.0402417570970E-04 -8.0150683994172E-02
   165  1.6400000000000E+00  7.6161595150790E-04 -7.1958539998844E-02
   166  1.6500000000000E+00  1.1705256972853E-03 -6.3321317780007E-02
   167  1.6600000000000E+00  1.3755833117581E-03 -5.4494465105272E-02
   168  1.6700000000000E+00  1.4200211225891E-03 -4.5721820297423E-02
   169  1.6800000000000E+00  1.3395530787218E-03 -3.7216487510649E-02
   170  1.6900000000000E+00  1.1674896479093E-03 -2.9176039630588E-02
   171  1.7000000000000E+00  9.4250431089643E-04 -2.1806249444681E-02
   172  1.7100000000000E+00  6.9836338745806E-04 -1.5288791560467E-02
   173  1.7200000000000E+00  4.6395608832967E-04 -9.7808610377214E-03
   174  1.7300000000000E+00  2.6273528580624E-04 -5.4141360767920E-03
   175  1.7400000000000E+00  1.1167578442897E-04 -2.2801949422285E-03
   176  1.7500000000000E+00  2.3911968796526E-05 -4.9080737985300E-04
   177  1.7600000000000E+00 -1.3093200353284E-06  2.5842892676894E-05
   178  1.7700000000000E+00  2.2796823120971E-07 -4.6031295044567E-06
   179  1.78  0.  0.
   180  1.79  0.  0.
   181  1.80  0.  0.
   182  1.81  0.  0.
   183  1.82  0.  0.
   184  1.83  0.  0.
   185  1.84  0.  0.
   186  1.85  0.  0.
   187  1.86  0.  0.
   188  1.87  0.  0.
   189  1.88  0.  0.
   190  1.89  0.  0.
   191  1.90  0.  0.
   192  1.91  0.  0.
   193  1.92  0.  0.
   194  1.93  0.  0.
   195  1.94  0.  0.
   196  1.95  0.  0.
   197  1.96  0.  0.
   198  1.97  0.  0.
   199  1.98  0.  0.
   200  1.99  0.  0.
   201  2.00  0.  0.
   202  2.01  0.  0.
   203  2.02  0.  0.
   204  2.03  0.  0.
   205  2.04  0.  0.
   206  2.05  0.  0.
   207  2.06  0.  0.
   208  2.07  0.  0.
   209  2.08  0.  0.
   210  2.09  0.  0.
   211  2.10  0.  0.
   212  2.11  0.  0.
   213  2.12  0.  0.
   214  2.13  0.  0.
   215  2.14  0.  0.
   216  2.15  0.  0.
   217  2.16  0.  0.
   218  2.17  0.  0.
   219  2.18  0.  0.
   220  2.19  0.  0.
   221  2.20  0.  0.
   222  2.21  0.  0.
   223  2.22  0.  0.
   224  2.23  0.  0.
   225  2.24  0.  0.
   226  2.25  0.  0.
   227  2.26  0.  0.
   228  2.27  0.  0.
   229  2.28  0.  0.
   230  2.29  0.  0.
   231  2.30  0.  0.
   232  2.31  0.  0.
   233  2.32  0.  0.
   234  2.33  0.  0.
   235  2.34  0.  0.
   236  2.35  0.  0.
   237  2.36  0.  0.
   238  2.37  0.  0.
   239  2.38  0.  0.
   240  2.39  0.  0.
   241  2.40  0.  0.
   242  2.41  0.  0.
   243  2.42  0.  0.
   244  2.43  0.  0.
   245  2.44  0.  0.
   246  2.45  0.  0.
   247  2.46  0.  0.
   248  2.47  0.  0.
   249  2.48  0.  0.
   250  2.49  0.  0.
   251  2.50  0.  0.
   252  2.51  0.  0.
   253  2.52  0.  0.
   254  2.53  0.  0.
   255  2.54  0.  0.
   256  2.55  0.  0.
   257  2.56  0.  0.
   258  2.57  0.  0.
   259  2.58  0.  0.
   260  2.59  0.  0.
   261  2.60  0.  0.
   262  2.61  0.  0.
   263  2.62  0.  0.
   264  2.63  0.  0.
   265  2.64  0.  0.
   266  2.65  0.  0.
   267  2.66  0.  0.
   268  2.67  0.  0.
   269  2.68  0.  0.
   270  2.69  0.  0.
   271  2.70  0.  0.
   272  2.71  0.  0.
   273  2.72  0.  0.
   274  2.73  0.  0.
   275  2.74  0.  0.
   276  2.75  0.  0.
   277  2.76  0.  0.
   278  2.77  0.  0.
   279  2.78  0.  0.
   280  2.79  0.  0.
   281  2.80  0.  0.
   282  2.81  0.  0.
   283  2.82  0.  0.
   284  2.83  0.  0.
   285  2.84  0.  0.
   286  2.85  0.  0.
   287  2.86  0.  0.
   288  2.87  0.  0.
   289  2.88  0.  0.
   290  2.89  0.  0.
   291  2.90  0.  0.
   292  2.91  0.  0.
   293  2.92  0.  0.
   294  2.93  0.  0.
   295  2.94  0.  0.
   296  2.95  0.  0.
   297  2.96  0.  0.
   298  2.97  0.  0.
   299  2.98  0.  0.
   300  2.99  0.  0.
   301  3.00  0.  0.
   302  3.01  0.  0.
   303  3.02  0.  0.
   304  3.03  0.  0.
   305  3.04  0.  0.
   306  3.05  0.  0.
   307  3.06  0.  0.
   308  3.07  0.  0.
   309  3.08  0.  0.
   310  3.09  0.  0.
   311  3.10  0.  0.
   312  3.11  0.  0.
   313  3.12  0.  0.
   314  3.13  0.  0.
   315  3.14  0.  0.
   316  3.15  0.  0.
   317  3.16  0.  0.
   318  3.17  0.  0.
   319  3.18  0.  0.
   320  3.19  0.  0.
   321  3.20  0.  0.
   322  3.21  0.  0.
   323  3.22  0.  0.
   324  3.23  0.  0.
   325  3.24  0.  0.
   326  3.25  0.  0.
   327  3.26  0.  0.
   328  3.27  0.  0.
   329  3.28  0.  0.
   330  3.29  0.  0.
   331  3.30  0.  0.
   332  3.31  0.  0.
   333  3.32  0.  0.
   334  3.33  0.  0.
   335  3.34  0.  0.
   336  3.35  0.  0.
   337  3.36  0.  0.
   338  3.37  0.  0.
   339  3.38  0.  0.
   340  3.39  0.  0.
   341  3.40  0.  0.
   342  3.41  0.  0.
   343  3.42  0.  0.
   344  3.43  0.  0.
   345  3.44  0.  0.
   346  3.45  0.  0.
   347  3.46  0.  0.
   348  3.47  0.  0.
   349  3.48  0.  0.
   350  3.49  0.  0.
   351  3.50  0.  0.
   352  3.51  0.  0.
   353  3.52  0.  0.
   354  3.53  0.  0.
   355  3.54  0.  0.
   356  3.55  0.  0.
   357  3.56  0.  0.
   358  3.57  0.  0.
   359  3.58  0.  0.
   360  3.59  0.  0.
   361  3.60  0.  0.
   362  3.61  0.  0.
   363  3.62  0.  0.
   364  3.63  0.  0.
   365  3.64  0.  0.
   366  3.65  0.  0.
   367  3.66  0.  0.
   368  3.67  0.  0.
   369  3.68  0.  0.
   370  3.69  0.  0.
   371  3.70  0.  0.
   372  3.71  0.  0.
   373  3.72  0.  0.
   374  3.73  0.  0.
   375  3.74  0.  0.
   376  3.75  0.  0.
   377  3.76  0.  0.
   378  3.77  0.  0.
   379  3.78  0.  0.
   380  3.79  0.  0.
   381  3.80  0.  0.
   382  3.81  0.  0.
   383  3.82  0.  0.
   384  3.83  0.  0.
   385  3.84  0.  0.
   386  3.85  0.  0.
   387  3.86  0.  0.
   388  3.87  0.  0.
   389  3.88  0.  0.
   390  3.89  0.  0.
   391  3.90  0.  0.
   392  3.91  0.  0.
   393  3.92  0.  0.
   394  3.93  0.  0.
   395  3.94  0.  0.
   396  3.95  0.  0.
   397  3.96  0.  0.
   398  3.97  0.  0.
   399  3.98  0.  0.
   400  3.99  0.  0.
   401  4.00  0.  0.
   402  4.01  0.  0.
   403  4.02  0.  0.
   404  4.03  0.  0.
   405  4.04  0.  0.
   406  4.05  0.  0.
   407  4.06  0.  0.
   408  4.07  0.  0.
   409  4.08  0.  0.
   410  4.09  0.  0.
   411  4.10  0.  0.
   412  4.11  0.  0.
   413  4.12  0.  0.
   414  4.13  0.  0.
   415  4.14  0.  0.
   416  4.15  0.  0.
   417  4.16  0.  0.
   418  4.17  0.  0.
   419  4.18  0.  0.
   420  4.19  0.  0.
   421  4.20  0.  0.
   422  4.21  0.  0.
   423  4.22  0.  0.
   424  4.23  0.  0.
   425  4.24  0.  0.
   426  4.25  0.  0.
   427  4.26  0.  0.
   428  4.27  0.  0.
   429  4.28  0.  0.
   430  4.29  0.  0.
   431  4.30  0.  0.
   432  4.31  0.  0.
   433  4.32  0.  0.
   434  4.33  0.  0.
   435  4.34  0.  0.
   436  4.35  0.  0.
   437  4.36  0.  0.
   438  4.37  0.  0.
   439  4.38  0.  0.
   440  4.39  0.  0.
   441  4.40  0.  0.
   442  4.41  0.  0.
   443  4.42  0.  0.
   444  4.43  0.  0.
   445  4.44  0.  0.
   446  4.45  0.  0.
   447  4.46  0.  0.
   448  4.47  0.  0.
   449  4.48  0.  0.
   450  4.49  0.  0.
   451  4.50  0.  0.
   452  4.51  0.  0.
   453  4.52  0.  0.
   454  4.53  0.  0.
   455  4.54  0.  0.
   456  4.55  0.  0.
   457  4.56  0.  0.
   458  4.57  0.  0.
   459  4.58  0.  0.
   460  4.59  0.  0.
   461  4.60  0.  0.
   462  4.61  0.  0.
   463  4.62  0.  0.
   464  4.63  0.  0.
   465  4.64  0.  0.
   466  4.65  0.  0.
   467  4.66  0.  0.
   468  4.67  0.  0.
   469  4.68  0.  0.
   470  4.69  0.  0.
   471  4.70  0.  0.
   472  4.71  0.  0.
   473  4.72  0.  0.
   474  4.73  0.  0.
   475  4.74  0.  0.
   476  4.75  0.  0.
   477  4.76  0.  0.
   478  4.77  0.  0.
   479  4.78  0.  0.
   480  4.79  0.  0.
   481  4.80  0.  0.
   482  4.81  0.  0.
   483  4.82  0.  0.
   484  4.83  0.  0.
   485  4.84  0.  0.
   486  4.85  0.  0.
   487  4.86  0.  0.
   488  4.87  0.  0.
   489  4.88  0.  0.
   490  4.89  0.  0.
   491  4.90  0.  0.
   492  4.91  0.  0.
   493  4.92  0.  0.
   494  4.93  0.  0.
   495  4.94  0.  0.
   496  4.95  0.  0.
   497  4.96  0.  0.
   498  4.97  0.  0.
   499  4.98  0.  0.
   500  4.99  0.  0.
   501  5.00  0.  0.
   502  5.01  0.  0.
   503  5.02  0.  0.
   504  5.03  0.  0.
   505  5.04  0.  0.
   506  5.05  0.  0.
   507  5.06  0.  0.
   508  5.07  0.  0.
   509  5.08  0.  0.
   510  5.09  0.  0.
   511  5.10  0.  0.
   512  5.11  0.  0.
   513  5.12  0.  0.
   514  5.13  0.  0.
   515  5.14  0.  0.
   516  5.15  0.  0.
   517  5.16  0.  0.
   518  5.17  0.  0.
   519  5.18  0.  0.
   520  5.19  0.  0.
   521  5.20  0.  0.
   522  5.21  0.  0.
   523  5.22  0.  0.
   524  5.23  0.  0.
   525  5.24  0.  0.
   526  5.25  0.  0.
   527  5.26  0.  0.
   528  5.27  0.  0.
   529  5.28  0.  0.
   530  5.29  0.  0.
   531  5.30  0.  0.
   532  5.31  0.  0.
   533  5.32  0.  0.
   534  5.33  0.  0.
   535  5.34  0.  0.
   536  5.35  0.  0.
   537  5.36  0.  0.
   538  5.37  0.  0.
   539  5.38  0.  0.
   540  5.39  0.  0.
   541  5.40  0.  0.
   542  5.41  0.  0.
   543  5.42  0.  0.
   544  5.43  0.  0.
   545  5.44  0.  0.
   546  5.45  0.  0.
   547  5.46  0.  0.
   548  5.47  0.  0.
   549  5.48  0.  0.
   550  5.49  0.  0.
   551  5.50  0.  0.
   552  5.51  0.  0.
   553  5.52  0.  0.
   554  5.53  0.  0.
   555  5.54  0.  0.
   556  5.55  0.  0.
   557  5.56  0.  0.
   558  5.57  0.  0.
   559  5.58  0.  0.
   560  5.59  0.  0.
   561  5.60  0.  0.
   562  5.61  0.  0.
   563  5.62  0.  0.
   564  5.63  0.  0.
   565  5.64  0.  0.
   566  5.65  0.  0.
   567  5.66  0.  0.
   568  5.67  0.  0.
   569  5.68  0.  0.
   570  5.69  0.  0.
   571  5.70  0.  0.
   572  5.71  0.  0.
   573  5.72  0.  0.
   574  5.73  0.  0.
   575  5.74  0.  0.
   576  5.75  0.  0.
   577  5.76  0.  0.
   578  5.77  0.  0.
   579  5.78  0.  0.
   580  5.79  0.  0.
   581  5.80  0.  0.
   582  5.81  0.  0.
   583  5.82  0.  0.
   584  5.83  0.  0.
   585  5.84  0.  0.
   586  5.85  0.  0.
   587  5.86  0.  0.
   588  5.87  0.  0.
   589  5.88  0.  0.
   590  5.89  0.  0.
   591  5.90  0.  0.
   592  5.91  0.  0.
   593  5.92  0.  0.
   594  5.93  0.  0.
   595  5.94  0.  0.
   596  5.95  0.  0.
   597  5.96  0.  0.
   598  5.97  0.  0.
   599  5.98  0.  0.
   600  5.99  0.  0.
   1                         5.1848302254806E+00  7.2165623056098E-01  1.1308682128289E-02
     1  0.0000000000000E+00 -8.5472280965133E-09  2.3865131260070E-08 -1.8080326041892E-08
     2  1.0000000000000E-02 -5.7543825555386E-05  2.2222002019695E-03 -2.4989941648144E-03
     3  2.0000000000000E-02 -2.1516007590535E-04  8.8426400717913E-03 -9.9588651038512E-03
     4  3.0000000000000E-02 -4.2809358945085E-04  1.9723657009567E-02 -2.2268898597947E-02
     5  4.0000000000000E-02 -6.2271592870925E-04  3.4638531720612E-02 -3.9246628749510E-02
     6  5.0000000000000E-02 -6.9795358280044E-04  5.3275518196775E-02 -6.0640888606357E-02
     7  6.0000000000000E-02 -5.2725364318933E-04  7.5243391324971E-02 -8.6136009480634E-02
     8  7.0000000000000E-02  3.8946199544702E-05  1.0007841958262E-01 -1.1535709880261E-01
     9  8.0000000000000E-02  1.1702850373693E-03  1.2725264641460E-01 -1.4787630826881E-01
    10  9.0000000000000E-02  3.0531330779767E-03  1.5618334189657E-01 -1.8321998739707E-01
    11  1.0000000000000E-01  5.8868895748175E-03  1.8624346653152E-01 -2.2087660265610E-01
    12  1.1000000000000E-01  9.8799871550021E-03  2.1677297182000E-01 -2.6030528934204E-01
    13  1.2000000000000E-01  1.5245670484468E-02  2.4709074787184E-01 -3.0094489253996E-01
    14  1.3000000000000E-01  2.2197621246130E-02  2.7650701702276E-01 -3.4222334501621E-01
    15  1.4000000000000E-01  3.0945504273736E-02  3.0433596437218E-01 -3.8356722387975E-01
    16  1.5000000000000E-01  4.1690511332882E-02  3.2990839150472E-01 -4.2441132443024E-01
    17  1.6000000000000E-01  5.4620979441648E-02  3.5258417847926E-01 -4.6420808884055E-01
    18  1.7000000000000E-01  6.9908159766676E-02  3.7176434149596E-01 -5.0243672922013E-01
    19  1.8000000000000E-01  8.7702211026491E-02  3.8690247945231E-01 -5.3861188915260E-01
    20  1.9000000000000E-01  1.0812848801249E-01  3.9751541179448E-01 -5.7229169492948E-01
    21  2.0000000000000E-01  1.3128419134871E-01  4.0319282251993E-01 -6.0308505730688E-01
    22  2.1000000000000E-01  1.5723543902245E-01  4.0360574070403E-01 -6.3065809654576E-01
    23  2.2000000000000E-01  1.8601481361527E-01  3.9851370626775E-01 -6.5473957757707E-01
    24  2.3000000000000E-01  2.1761943164923E-01  3.8777049059209E-01 -6.7512525813979E-01
    25  2.4000000000000E-01  2.5200957315491E-01  3.7132826469111E-01 -6.9168107042302E-01
    26  2.5000000000000E-01  2.8910790059470E-01  3.4924013261870E-01 -7.0434507582547E-01
    27  2.6000000000000E-01  3.2879928677922E-01  3.2166097421080E-01 -7.1312815262287E-01
    28  2.7000000000000E-01  3.7093126154586E-01  2.8884656873778E-01 -7.1811339728859E-01
    29  2.8000000000000E-01  4.1531507688402E-01  2.5115099912535E-01 -7.1945424160682E-01
    30  2.9000000000000E-01  4.6172738005109E-01  2.0902236464892E-01 -7.1737130921205E-01
    31  3.0000000000000E-01  5.0991247419028E-01  1.6299685796501E-01 -7.1214805643274E-01
    32  3.1000000000000E-01  5.5958513619645E-01  1.1369128956338E-01 -7.0412526297028E-01
    33  3.2000000000000E-01  6.1043395223789E-01  6.1794168766600E-02 -6.9369445766664E-01
    34  3.3000000000000E-01  6.6212512258149E-01  8.0554748458151E-03 -6.8129038308430E-01
    35  3.4000000000000E-01  7.1430667933101E-01 -4.6724725737219E-02 -6.6738261953278E-01
    36  3.5000000000000E-01  7.6661305350427E-01 -1.0170863988130E-01 -6.5246650424424E-01
    37  3.6000000000000E-01  8.1866992166642E-01 -1.5603389274519E-01 -6.3705349437299E-01
    38  3.7000000000000E-01  8.7009925720789E-01 -2.0882724918497E-01 -6.2166113314347E-01
    39  3.8000000000000E-01  9.2052450739539E-01 -2.5921869280129E-01 -6.0680278661408E-01
    40  3.9000000000000E-01  9.6957581460375E-01 -3.0635563599557E-01 -5.9297732400708E-01
    41  4.0000000000000E-01  1.0168951987068E+00 -3.4941703035098E-01 -5.8065891727177E-01
    42  4.1000000000000E-01  1.0621416174981E+00 -3.8762714624916E-01 -5.7028713543262E-01
    43  4.2000000000000E-01  1.1049958232372E+00 -4.2026879393736E-01 -5.6225750630722E-01
    44  4.3000000000000E-01  1.1451649359666E+00 -4.4669576524662E-01 -5.5691271238125E-01
    45  4.4000000000000E-01  1.1823866580815E+00 -4.6634428574267E-01 -5.5453457907525E-01
    46  4.5000000000000E-01  1.2164330597143E+00 -4.7874328112498E-01 -5.5533700243473E-01
    47  4.6000000000000E-01  1.2471138707403E+00 -4.8352327897690E-01 -5.5945994958960E-01
    48  4.7000000000000E-01  1.2742792225330E+00 -4.8042378725936E-01 -5.6696464934438E-01
    49  4.8000000000000E-01  1.2978217908851E+00 -4.6929901393243E-01 -5.7783007222489E-01
    50  4.9000000000000E-01  1.3176783006461E+00 -4.5012181743676E-01 -5.9195077947833E-01
    51  5.0000000000000E-01  1.3338303624616E+00 -4.2298580508740E-01 -6.0913619920910E-01
    52  5.1000000000000E-01  1.3463046223909E+00 -3.8810552530551E-01 -6.2911136535326E-01
    53  5.2000000000000E-01  1.3551722159638E+00 -3.4581472959457E-01 -6.5151913189817E-01
    54  5.3000000000000E-01  1.3605475292423E+00 -2.9656271078918E-01 -6.7592385100311E-01
    55  5.4000000000000E-01  1.3625862805173E+00 -2.4090875488686E-01 -7.0181647984393E-01
    56  5.5000000000000E-01  1.3614829472045E+00 -1.7951477423055E-01 -7.2862105746440E-01
    57  5.6000000000000E-01  1.3574675731461E+00 -1.1313621945645E-01 -7.5570247005009E-01
    58  5.7000000000000E-01  1.3508020016984E+00 -4.2611395984203E-02 -7.8237540120824E-01
    59  5.8000000000000E-01  1.3417755895213E+00  3.1150662555649E-02 -8.0791434339972E-01
    60  5.9000000000000E-01  1.3307004647438E+00  1.0718358712197E-01 -8.3156452796145E-01
    61  6.0000000000000E-01  1.3179064009910E+00  1.8447813359878E-01 -8.5255361449031E-01
    62  6.1000000000000E-01  1.3037353855161E+00  2.6199749306482E-01 -8.7010396601598E-01
    63  6.2000000000000E-01  1.2885359652512E+00  3.3869321875676E-01 -8.8344532462259E-01
    64  6.3000000000000E-01  1.2726574588869E+00  4.1352152439242E-01 -8.9182769319015E-01
    65  6.4000000000000E-01  1.2564441260289E+00  4.8545970019055E-01 -8.9453422289631E-01
    66  6.5000000000000E-01  1.2402293860038E+00  5.5352238852229E-01 -8.9089390316043E-01
    67  6.6000000000000E-01  1.2243301789600E+00  6.1677746075638E-01 -8.8029385091194E-01
    68  6.7000000000000E-01  1.2090415605213E+00  6.7436124055691E-01 -8.6219099944470E-01
    69  6.8000000000000E-01  1.1946316184043E+00  7.2549282663447E-01 -8.3612299366373E-01
    70  6.9000000000000E-01  1.1813367951472E+00  7.6948727965091E-01 -8.0171810816455E-01
    71  7.0000000000000E-01  1.1693576954637E+00  8.0576745348566E-01 -7.5870401719462E-01
    72  7.1000000000000E-01  1.1588554498143E+00  8.3387427017440E-01 -7.0691526095909E-01
    73  7.2000000000000E-01  1.1499486976711E+00  8.5347526026256E-01 -6.4629927074080E-01
    74  7.3000000000000E-01  1.1427112447638E+00  8.6437121574816E-01 -5.7692083565189E-01
    75  7.4000000000000E-01  1.1371704384664E+00  8.6650083085433E-01 -4.9896491622889E-01
    76  7.5000000000000E-01  1.1333062945640E+00  8.5994323614745E-01 -4.1273773419488E-01
    77  7.6000000000000E-01  1.1310513971014E+00  8.4491836354980E-01 -3.1866609318834E-01
    78  7.7000000000000E-01  1.1302915810199E+00  8.2178511310111E-01 -2.1729491171402E-01
    79  7.8000000000000E-01  1.1308673950409E+00  7.9103732638633E-01 -1.0928297660695E-01
    80  7.9000000000000E-01  1.1325763299222E+00  7.5329760584550E-01  4.6030474959813E-03
    81  8.0000000000000E-01  1.1351757850057E+00  7.0930905317712E-01  1.2349629022943E-01
    82  8.1000000000000E-01  1.1383867340757E+00  6.5992503321077E-01  2.4643894038808E-01
    83  8.2000000000000E-01  1.1418980401479E+00  6.0609710142646E-01  3.7239298970003E-01
    84  8.3000000000000E-01  1.1453713580946E+00  5.4886126323366E-01  5.0025231783472E-01
    85  8.4000000000000E-01  1.1484465541476E+00  4.8932276070873E-01  6.2885595913490E-01
    86  8.5000000000000E-01  1.1507475624827E+00  4.2863960727366E-01  7.5700237191568E-01
    87  8.6000000000000E-01  1.1518885914078E+00  3.6800511237477E-01  8.8346451406320E-01
    88  8.7000000000000E-01  1.1514805852969E+00  3.0862965622205E-01  1.0070055143773E+00
    89  8.8000000000000E-01  1.1491378434320E+00  2.5172198877011E-01  1.1263947178790E+00