Kr    ONCVPSP-4.0.1  r_core=   1.75834   1.50506   1.80092
     36.0000      8.0000      250925    zatom,zion,pspd
     8   -1012   2     4   600     0    pspcod,pspxc,lmax,lloc,mmax,r2well
  5.99000000  7.00000000  0.00000000    rchrg fchrg qchrg
     2     3     2     0    nproj
     3     1           extension_switch
     4     3     0    nprojso
   0                         8.4487883865645E+00  8.1719454088997E-01
     1  0.0000000000000E+00  3.4588543140757E-10 -1.0975421266268E-09
     2  1.0000000000000E-02  3.6832113752202E-02 -1.0178031060678E-02
     3  2.0000000000000E-02  7.3670552687695E-02 -2.0419800306697E-02
     4  3.0000000000000E-02  1.1052115821817E-01 -3.0787668272545E-02
     5  4.0000000000000E-02  1.4738881087221E-01 -4.1341260331164E-02
     6  5.0000000000000E-02  1.8427696641460E-01 -5.2136149179396E-02
     7  6.0000000000000E-02  2.2118721158926E-01 -6.3222596611228E-02
     8  7.0000000000000E-02  2.5811884561524E-01 -7.4644373033621E-02
     9  8.0000000000000E-02  2.9506849321920E-01 -8.6437672082154E-02
    10  9.0000000000000E-02  3.3202975456408E-01 -9.8630136350318E-02
    11  1.0000000000000E-01  3.6899289693828E-01 -1.1124000867595E-01
    12  1.1000000000000E-01  4.0594459250861E-01 -1.2427542165261E-01
    13  1.2000000000000E-01  4.4286770582160E-01 -1.3773383607725E-01
    14  1.3000000000000E-01  4.7974113406957E-01 -1.5160163693561E-01
    15  1.4000000000000E-01  5.1653970242949E-01 -1.6585389329262E-01
    16  1.5000000000000E-01  5.5323411604268E-01 -1.8045428612752E-01
    17  1.6000000000000E-01  5.8979096944361E-01 -1.9535520576582E-01
    18  1.7000000000000E-01  6.2617281347444E-01 -2.1049801814416E-01
    19  1.8000000000000E-01  6.6233827895098E-01 -2.2581349673569E-01
    20  1.9000000000000E-01  6.9824225558443E-01 -2.4122241459422E-01
    21  2.0000000000000E-01  7.3383612392296E-01 -2.5663628868050E-01
    22  2.1000000000000E-01  7.6906803736689E-01 -2.7195826644410E-01
    23  2.2000000000000E-01  8.0388325064167E-01 -2.8708414258209E-01
    24  2.3000000000000E-01  8.3822449049246E-01 -3.0190349200908E-01
    25  2.4000000000000E-01  8.7203236380131E-01 -3.1630090337964E-01
    26  2.5000000000000E-01  9.0524579783118E-01 -3.3015729602832E-01
    27  2.6000000000000E-01  9.3780250687613E-01 -3.4335130195557E-01
    28  2.7000000000000E-01  9.6963947925058E-01 -3.5576069350759E-01
    29  2.8000000000000E-01  1.0006934782872E+00 -3.6726383669060E-01
    30  2.9000000000000E-01  1.0309015508361E+00 -3.7774114963477E-01
    31  3.0000000000000E-01  1.0602015366708E+00 -3.8707654558802E-01
    32  3.1000000000000E-01  1.0885325722089E+00 -3.9515883997785E-01
    33  3.2000000000000E-01  1.1158355820505E+00 -4.0188310152962E-01
    34  3.3000000000000E-01  1.1420537520186E+00 -4.0715192816703E-01
    35  3.4000000000000E-01  1.1671329776584E+00 -4.1087662943564E-01
    36  3.5000000000000E-01  1.1910222825038E+00 -4.1297829847099E-01
    37  3.6000000000000E-01  1.2136742008547E+00 -4.1338875806111E-01
    38  3.7000000000000E-01  1.2350451203120E+00 -4.1205136711004E-01
    39  3.8000000000000E-01  1.2550955798902E+00 -4.0892167576994E-01
    40  3.9000000000000E-01  1.2737905201575E+00 -4.0396791964774E-01
    41  4.0000000000000E-01  1.2910994825328E+00 -3.9717134577968E-01
    42  4.1000000000000E-01  1.3069967555897E+00 -3.8852636547074E-01
    43  4.2000000000000E-01  1.3214614669665E+00 -3.7804053158393E-01
    44  4.3000000000000E-01  1.3344776202557E+00 -3.6573434040025E-01
    45  4.4000000000000E-01  1.3460340770218E+00 -3.5164086072006E-01
    46  4.5000000000000E-01  1.3561244848784E+00 -3.3580519540259E-01
    47  4.6000000000000E-01  1.3647471533204E+00 -3.1828378300810E-01
    48  4.7000000000000E-01  1.3719048797505E+00 -2.9914354957988E-01
    49  4.8000000000000E-01  1.3776047288467E+00 -2.7846092284686E-01
    50  4.9000000000000E-01  1.3818577690857E+00 -2.5632072321014E-01
    51  5.0000000000000E-01  1.3846787708459E+00 -2.3281494776538E-01
    52  5.1000000000000E-01  1.3860858710655E+00 -2.0804146528136E-01
    53  5.2000000000000E-01  1.3861002099089E+00 -1.8210264147617E-01
    54  5.3000000000000E-01  1.3847455452972E+00 -1.5510391508451E-01
    55  5.4000000000000E-01  1.3820478514758E+00 -1.2715234607445E-01
    56  5.5000000000000E-01  1.3780349080223E+00 -9.8355157933221E-02
    57  5.6000000000000E-01  1.3727358858353E+00 -6.8818296190329E-02
    58  5.7000000000000E-01  1.3661809366855E+00 -3.8645025274765E-02
    59  5.8000000000000E-01  1.3584007928599E+00 -7.9345854098579E-03
    60  5.9000000000000E-01  1.3494263832773E+00  2.3219069462982E-02
    61  6.0000000000000E-01  1.3392884722119E+00  5.4728432765740E-02
    62  6.1000000000000E-01  1.3280173264250E+00  8.6513486729447E-02
    63  6.2000000000000E-01  1.3156424160844E+00  1.1850260717423E-01
    64  6.3000000000000E-01  1.3021921543418E+00  1.5063331646936E-01
    65  6.4000000000000E-01  1.2876936798648E+00  1.8285287163569E-01
    66  6.5000000000000E-01  1.2721726859663E+00  2.1511867688347E-01
    67  6.6000000000000E-01  1.2556532992694E+00  2.4739851239166E-01
    68  6.7000000000000E-01  1.2381580100915E+00  2.7967057379719E-01
    69  6.8000000000000E-01  1.2197076559302E+00  3.1192331963804E-01
    70  6.9000000000000E-01  1.2003214586160E+00  3.4415512684385E-01
    71  7.0000000000000E-01  1.1800171148510E+00  3.7637375725314E-01
    72  7.1000000000000E-01  1.1588109390119E+00  4.0859564101633E-01
    73  7.2000000000000E-01  1.1367180562536E+00  4.4084498557657E-01
    74  7.3000000000000E-01  1.1137526431355E+00  4.7315272166808E-01
    75  7.4000000000000E-01  1.0899282121999E+00  5.0555530038992E-01
    76  7.5000000000000E-01  1.0652579361925E+00  5.3809335786790E-01
    77  7.6000000000000E-01  1.0397550069192E+00  5.7081026626787E-01
    78  7.7000000000000E-01  1.0134330231089E+00  6.0375059193815E-01
    79  7.8000000000000E-01  9.8630640109977E-01  6.3695848320444E-01
    80  7.9000000000000E-01  9.5839080169345E-01  6.7047601178978E-01
    81  8.0000000000000E-01  9.2970356614325E-01  7.0434149295990E-01
    82  8.1000000000000E-01  9.0026415395842E-01  7.3858781028126E-01
    83  8.2000000000000E-01  8.7009457502433E-01  7.7324077130919E-01
    84  8.3000000000000E-01  8.3921980846262E-01  8.0831752058523E-01
    85  8.4000000000000E-01  8.0766820068699E-01  8.4382503601184E-01
    86  8.5000000000000E-01  7.7547183525146E-01  8.7975873398600E-01
    87  8.6000000000000E-01  7.4266686733666E-01  9.1610120761725E-01
    88  8.7000000000000E-01  7.0929381607548E-01  9.5282112093916E-01
    89  8.8000000000000E-01  6.7539780837726E-01  9.8987228025978E-01
    90  8.9000000000000E-01  6.4102876846539E-01  1.0271929017084E+00
    91  9.0000000000000E-01  6.0624154798975E-01  1.0647050916447E+00
    92  9.1000000000000E-01  5.7109599230553E-01  1.1023145539317E+00
    93  9.2000000000000E-01  5.3565693931413E-01  1.1399105351722E+00
    94  9.3000000000000E-01  4.9999414813008E-01  1.1773660158975E+00
    95  9.4000000000000E-01  4.6418215575909E-01  1.2145381524306E+00
    96  9.5000000000000E-01  4.2830006093439E-01  1.2512689707510E+00
    97  9.6000000000000E-01  3.9243123524881E-01  1.2873863102235E+00
    98  9.7000000000000E-01  3.5666296272516E-01  1.3227050115551E+00
    99  9.8000000000000E-01  3.2108600997371E-01  1.3570283398676E+00
   100  9.9000000000000E-01  2.8579413008015E-01  1.3901496303579E+00
   101  1.0000000000000E+00  2.5088350433484E-01  1.4218541407214E+00
   102  1.0100000000000E+00  2.1645212684280E-01  1.4519210913713E+00
   103  1.0200000000000E+00  1.8259913792894E-01  1.4801258715558E+00
   104  1.0300000000000E+00  1.4942411306367E-01  1.5062423867803E+00
   105  1.0400000000000E+00  1.1702631476675E-01  1.5300455205468E+00
   106  1.0500000000000E+00  8.5503915592190E-02  1.5513136813417E+00
   107  1.0600000000000E+00  5.4953200844813E-02  1.5698314040793E+00
   108  1.0700000000000E+00  2.5467760119700E-02  1.5853919738704E+00
   109  1.0800000000000E+00 -2.8623229163086E-03  1.5978000390504E+00
   110  1.0900000000000E+00 -2.9951272873537E-02  1.6068741798940E+00
   111  1.1000000000000E+00 -5.5718407405979E-02  1.6124493993653E+00
   112  1.1100000000000E+00 -8.0088894723273E-02  1.6143795026260E+00
   113  1.1200000000000E+00 -1.0299447434307E-01  1.6125393328324E+00
   114  1.1300000000000E+00 -1.2437413187219E-01  1.6068268320024E+00
   115  1.1400000000000E+00 -1.4417471902029E-01  1.5971648974069E+00
   116  1.1500000000000E+00 -1.6235151058665E-01  1.5835030060294E+00
   117  1.1600000000000E+00 -1.7886869080634E-01  1.5658185820955E+00
   118  1.1700000000000E+00 -1.9369976219935E-01  1.5441180855176E+00
   119  1.1800000000000E+00 -2.0682787091246E-01  1.5184378022305E+00
   120  1.1900000000000E+00 -2.1824604348520E-01  1.4888443208519E+00
   121  1.2000000000000E+00 -2.2795733097779E-01  1.4554346837611E+00
   122  1.2100000000000E+00 -2.3597485747646E-01  1.4183362045820E+00
   123  1.2200000000000E+00 -2.4232177111166E-01  1.3777059480748E+00
   124  1.2300000000000E+00 -2.4703109687929E-01  1.3337298725609E+00
   125  1.2400000000000E+00 -2.5014549173469E-01  1.2866216391840E+00
   126  1.2500000000000E+00 -2.5171690360238E-01  1.2366210964467E+00
   127  1.2600000000000E+00 -2.5180613711638E-01  1.1839924525707E+00
   128  1.2700000000000E+00 -2.5048233004607E-01  1.1290221521917E+00
   129  1.2800000000000E+00 -2.4782234545755E-01  1.0720164776926E+00
   130  1.2900000000000E+00 -2.4391008570670E-01  1.0132988990666E+00
   131  1.3000000000000E+00 -2.3883573532935E-01  9.5320719949632E-01
   132  1.3100000000000E+00 -2.3269494077969E-01  8.9209040682050E-01
   133  1.3200000000000E+00 -2.2558793576194E-01  8.3030556369041E-01
   134  1.3300000000000E+00 -2.1761862158388E-01  7.6821437144892E-01
   135  1.3400000000000E+00 -2.0889361252877E-01  7.0617974456667E-01
   136  1.3500000000000E+00 -1.9952125668641E-01  6.4456231382071E-01
   137  1.3600000000000E+00 -1.8961064299879E-01  5.8371691727890E-01
   138  1.3700000000000E+00 -1.7927060545268E-01  5.2398911853676E-01
   139  1.3800000000000E+00 -1.6860873539233E-01  4.6571179154416E-01
   140  1.3900000000000E+00 -1.5773041282746E-01  4.0920181075413E-01
   141  1.4000000000000E+00 -1.4673786737333E-01  3.5475688421992E-01
   142  1.4100000000000E+00 -1.3572927908823E-01  3.0265256568774E-01
   143  1.4200000000000E+00 -1.2479792896910E-01  2.5313947968306E-01
   144  1.4300000000000E+00 -1.1403140823873E-01  2.0644079110890E-01
   145  1.4400000000000E+00 -1.0351089481268E-01  1.6274994798057E-01
   146  1.4500000000000E+00 -9.3310504480317E-02  1.2222872265155E-01
   147  1.4600000000000E+00 -8.3496723387482E-02  8.5005573295327E-02
   148  1.4700000000000E+00 -7.4127927374917E-02  5.1174343522397E-02
   149  1.4800000000000E+00 -6.5253992589937E-02  2.0793313685115E-02
   150  1.4900000000000E+00 -5.6916000555956E-02 -6.1153872781418E-03
   151  1.5000000000000E+00 -4.9146043175650E-02 -2.9565983893476E-02
   152  1.5100000000000E+00 -4.1967111420450E-02 -4.9608974569063E-02
   153  1.5200000000000E+00 -3.5393319195912E-02 -6.6329225545374E-02
   154  1.5300000000000E+00 -2.9430607255239E-02 -7.9841484092711E-02
   155  1.5400000000000E+00 -2.4077275137836E-02 -9.0287394490009E-02
   156  1.5500000000000E+00 -1.9324372745325E-02 -9.7833652622505E-02
   157  1.5600000000000E+00 -1.5156186148383E-02 -1.0266978452582E-01
   158  1.5700000000000E+00 -1.1550794419608E-02 -1.0500568152098E-01
   159  1.5800000000000E+00 -8.4806931167026E-03 -1.0506890075597E-01
   160  1.5900000000000E+00 -5.9134760179187E-03 -1.0310176372849E-01
   161  1.6000000000000E+00 -3.8125659510062E-03 -9.9358288036118E-02
   162  1.6100000000000E+00 -2.1379849868052E-03 -9.4100989464203E-02
   163  1.6200000000000E+00 -8.4715377331366E-04 -8.7597593231802E-02
   164  1.6300000000000E+00  1.0429057687984E-04 -8.0117694440179E-02
   165  1.6400000000000E+00  7.6167306146625E-04 -7.1929421559397E-02
   166  1.6500000000000E+00  1.1704241601537E-03 -6.3296011825498E-02
   167  1.6600000000000E+00  1.3753703059041E-03 -5.4472869339422E-02
   168  1.6700000000000E+00  1.4197396380595E-03 -4.5703787773246E-02
   169  1.6800000000000E+00  1.3392413156605E-03 -3.7201828744886E-02
   170  1.6900000000000E+00  1.1671804585551E-03 -2.9164522417909E-02
   171  1.7000000000000E+00  9.4222435433186E-04 -2.1797594115647E-02
   172  1.7100000000000E+00  6.9813221886764E-04 -1.5282670811109E-02
   173  1.7200000000000E+00  4.6378529725423E-04 -9.7768998720637E-03
   174  1.7300000000000E+00  2.6262763324323E-04 -5.4119115689321E-03
   175  1.7400000000000E+00  1.1162476707139E-04 -2.2792420457052E-03
   176  1.7500000000000E+00  2.3899714577621E-05 -4.9059818962812E-04
   177  1.7600000000000E+00 -1.3085613982127E-06  2.5831558646341E-05
   178  1.7700000000000E+00  2.2784420328857E-07 -4.6011422516466E-06
   179  1.78  0.  0.
   180  1.79  0.  0.
   181  1.80  0.  0.
   182  1.81  0.  0.
   183  1.82  0.  0.
   184  1.83  0.  0.
   185  1.84  0.  0.
   186  1.85  0.  0.
   187  1.86  0.  0.
   188  1.87  0.  0.
   189  1.88  0.  0.
   190  1.89  0.  0.
   191  1.90  0.  0.
   192  1.91  0.  0.
   193  1.92  0.  0.
   194  1.93  0.  0.
   195  1.94  0.  0.
   196  1.95  0.  0.
   197  1.96  0.  0.
   198  1.97  0.  0.
   199  1.98  0.  0.
   200  1.99  0.  0.
   201  2.00  0.  0.
   202  2.01  0.  0.
   203  2.02  0.  0.
   204  2.03  0.  0.
   205  2.04  0.  0.
   206  2.05  0.  0.
   207  2.06  0.  0.
   208  2.07  0.  0.
   209  2.08  0.  0.
   210  2.09  0.  0.
   211  2.10  0.  0.
   212  2.11  0.  0.
   213  2.12  0.  0.
   214  2.13  0.  0.
   215  2.14  0.  0.
   216  2.15  0.  0.
   217  2.16  0.  0.
   218  2.17  0.  0.
   219  2.18  0.  0.
   220  2.19  0.  0.
   221  2.20  0.  0.
   222  2.21  0.  0.
   223  2.22  0.  0.
   224  2.23  0.  0.
   225  2.24  0.  0.
   226  2.25  0.  0.
   227  2.26  0.  0.
   228  2.27  0.  0.
   229  2.28  0.  0.
   230  2.29  0.  0.
   231  2.30  0.  0.
   232  2.31  0.  0.
   233  2.32  0.  0.
   234  2.33  0.  0.
   235  2.34  0.  0.
   236  2.35  0.  0.
   237  2.36  0.  0.
   238  2.37  0.  0.
   239  2.38  0.  0.
   240  2.39  0.  0.
   241  2.40  0.  0.
   242  2.41  0.  0.
   243  2.42  0.  0.
   244  2.43  0.  0.
   245  2.44  0.  0.
   246  2.45  0.  0.
   247  2.46  0.  0.
   248  2.47  0.  0.
   249  2.48  0.  0.
   250  2.49  0.  0.
   251  2.50  0.  0.
   252  2.51  0.  0.
   253  2.52  0.  0.
   254  2.53  0.  0.
   255  2.54  0.  0.
   256  2.55  0.  0.
   257  2.56  0.  0.
   258  2.57  0.  0.
   259  2.58  0.  0.
   260  2.59  0.  0.
   261  2.60  0.  0.
   262  2.61  0.  0.
   263  2.62  0.  0.
   264  2.63  0.  0.
   265  2.64  0.  0.
   266  2.65  0.  0.
   267  2.66  0.  0.
   268  2.67  0.  0.
   269  2.68  0.  0.
   270  2.69  0.  0.
   271  2.70  0.  0.
   272  2.71  0.  0.
   273  2.72  0.  0.
   274  2.73  0.  0.
   275  2.74  0.  0.
   276  2.75  0.  0.
   277  2.76  0.  0.
   278  2.77  0.  0.
   279  2.78  0.  0.
   280  2.79  0.  0.
   281  2.80  0.  0.
   282  2.81  0.  0.
   283  2.82  0.  0.
   284  2.83  0.  0.
   285  2.84  0.  0.
   286  2.85  0.  0.
   287  2.86  0.  0.
   288  2.87  0.  0.
   289  2.88  0.  0.
   290  2.89  0.  0.
   291  2.90  0.  0.
   292  2.91  0.  0.
   293  2.92  0.  0.
   294  2.93  0.  0.
   295  2.94  0.  0.
   296  2.95  0.  0.
   297  2.96  0.  0.
   298  2.97  0.  0.
   299  2.98  0.  0.
   300  2.99  0.  0.
   301  3.00  0.  0.
   302  3.01  0.  0.
   303  3.02  0.  0.
   304  3.03  0.  0.
   305  3.04  0.  0.
   306  3.05  0.  0.
   307  3.06  0.  0.
   308  3.07  0.  0.
   309  3.08  0.  0.
   310  3.09  0.  0.
   311  3.10  0.  0.
   312  3.11  0.  0.
   313  3.12  0.  0.
   314  3.13  0.  0.
   315  3.14  0.  0.
   316  3.15  0.  0.
   317  3.16  0.  0.
   318  3.17  0.  0.
   319  3.18  0.  0.
   320  3.19  0.  0.
   321  3.20  0.  0.
   322  3.21  0.  0.
   323  3.22  0.  0.
   324  3.23  0.  0.
   325  3.24  0.  0.
   326  3.25  0.  0.
   327  3.26  0.  0.
   328  3.27  0.  0.
   329  3.28  0.  0.
   330  3.29  0.  0.
   331  3.30  0.  0.
   332  3.31  0.  0.
   333  3.32  0.  0.
   334  3.33  0.  0.
   335  3.34  0.  0.
   336  3.35  0.  0.
   337  3.36  0.  0.
   338  3.37  0.  0.
   339  3.38  0.  0.
   340  3.39  0.  0.
   341  3.40  0.  0.
   342  3.41  0.  0.
   343  3.42  0.  0.
   344  3.43  0.  0.
   345  3.44  0.  0.
   346  3.45  0.  0.
   347  3.46  0.  0.
   348  3.47  0.  0.
   349  3.48  0.  0.
   350  3.49  0.  0.
   351  3.50  0.  0.
   352  3.51  0.  0.
   353  3.52  0.  0.
   354  3.53  0.  0.
   355  3.54  0.  0.
   356  3.55  0.  0.
   357  3.56  0.  0.
   358  3.57  0.  0.
   359  3.58  0.  0.
   360  3.59  0.  0.
   361  3.60  0.  0.
   362  3.61  0.  0.
   363  3.62  0.  0.
   364  3.63  0.  0.
   365  3.64  0.  0.
   366  3.65  0.  0.
   367  3.66  0.  0.
   368  3.67  0.  0.
   369  3.68  0.  0.
   370  3.69  0.  0.
   371  3.70  0.  0.
   372  3.71  0.  0.
   373  3.72  0.  0.
   374  3.73  0.  0.
   375  3.74  0.  0.
   376  3.75  0.  0.
   377  3.76  0.  0.
   378  3.77  0.  0.
   379  3.78  0.  0.
   380  3.79  0.  0.
   381  3.80  0.  0.
   382  3.81  0.  0.
   383  3.82  0.  0.
   384  3.83  0.  0.
   385  3.84  0.  0.
   386  3.85  0.  0.
   387  3.86  0.  0.
   388  3.87  0.  0.
   389  3.88  0.  0.
   390  3.89  0.  0.
   391  3.90  0.  0.
   392  3.91  0.  0.
   393  3.92  0.  0.
   394  3.93  0.  0.
   395  3.94  0.  0.
   396  3.95  0.  0.
   397  3.96  0.  0.
   398  3.97  0.  0.
   399  3.98  0.  0.
   400  3.99  0.  0.
   401  4.00  0.  0.
   402  4.01  0.  0.
   403  4.02  0.  0.
   404  4.03  0.  0.
   405  4.04  0.  0.
   406  4.05  0.  0.
   407  4.06  0.  0.
   408  4.07  0.  0.
   409  4.08  0.  0.
   410  4.09  0.  0.
   411  4.10  0.  0.
   412  4.11  0.  0.
   413  4.12  0.  0.
   414  4.13  0.  0.
   415  4.14  0.  0.
   416  4.15  0.  0.
   417  4.16  0.  0.
   418  4.17  0.  0.
   419  4.18  0.  0.
   420  4.19  0.  0.
   421  4.20  0.  0.
   422  4.21  0.  0.
   423  4.22  0.  0.
   424  4.23  0.  0.
   425  4.24  0.  0.
   426  4.25  0.  0.
   427  4.26  0.  0.
   428  4.27  0.  0.
   429  4.28  0.  0.
   430  4.29  0.  0.
   431  4.30  0.  0.
   432  4.31  0.  0.
   433  4.32  0.  0.
   434  4.33  0.  0.
   435  4.34  0.  0.
   436  4.35  0.  0.
   437  4.36  0.  0.
   438  4.37  0.  0.
   439  4.38  0.  0.
   440  4.39  0.  0.
   441  4.40  0.  0.
   442  4.41  0.  0.
   443  4.42  0.  0.
   444  4.43  0.  0.
   445  4.44  0.  0.
   446  4.45  0.  0.
   447  4.46  0.  0.
   448  4.47  0.  0.
   449  4.48  0.  0.
   450  4.49  0.  0.
   451  4.50  0.  0.
   452  4.51  0.  0.
   453  4.52  0.  0.
   454  4.53  0.  0.
   455  4.54  0.  0.
   456  4.55  0.  0.
   457  4.56  0.  0.
   458  4.57  0.  0.
   459  4.58  0.  0.
   460  4.59  0.  0.
   461  4.60  0.  0.
   462  4.61  0.  0.
   463  4.62  0.  0.
   464  4.63  0.  0.
   465  4.64  0.  0.
   466  4.65  0.  0.
   467  4.66  0.  0.
   468  4.67  0.  0.
   469  4.68  0.  0.
   470  4.69  0.  0.
   471  4.70  0.  0.
   472  4.71  0.  0.
   473  4.72  0.  0.
   474  4.73  0.  0.
   475  4.74  0.  0.
   476  4.75  0.  0.
   477  4.76  0.  0.
   478  4.77  0.  0.
   479  4.78  0.  0.
   480  4.79  0.  0.
   481  4.80  0.  0.
   482  4.81  0.  0.
   483  4.82  0.  0.
   484  4.83  0.  0.
   485  4.84  0.  0.
   486  4.85  0.  0.
   487  4.86  0.  0.
   488  4.87  0.  0.
   489  4.88  0.  0.
   490  4.89  0.  0.
   491  4.90  0.  0.
   492  4.91  0.  0.
   493  4.92  0.  0.
   494  4.93  0.  0.
   495  4.94  0.  0.
   496  4.95  0.  0.
   497  4.96  0.  0.
   498  4.97  0.  0.
   499  4.98  0.  0.
   500  4.99  0.  0.
   501  5.00  0.  0.
   502  5.01  0.  0.
   503  5.02  0.  0.
   504  5.03  0.  0.
   505  5.04  0.  0.
   506  5.05  0.  0.
   507  5.06  0.  0.
   508  5.07  0.  0.
   509  5.08  0.  0.
   510  5.09  0.  0.
   511  5.10  0.  0.
   512  5.11  0.  0.
   513  5.12  0.  0.
   514  5.13  0.  0.
   515  5.14  0.  0.
   516  5.15  0.  0.
   517  5.16  0.  0.
   518  5.17  0.  0.
   519  5.18  0.  0.
   520  5.19  0.  0.
   521  5.20  0.  0.
   522  5.21  0.  0.
   523  5.22  0.  0.
   524  5.23  0.  0.
   525  5.24  0.  0.
   526  5.25  0.  0.
   527  5.26  0.  0.
   528  5.27  0.  0.
   529  5.28  0.  0.
   530  5.29  0.  0.
   531  5.30  0.  0.
   532  5.31  0.  0.
   533  5.32  0.  0.
   534  5.33  0.  0.
   535  5.34  0.  0.
   536  5.35  0.  0.
   537  5.36  0.  0.
   538  5.37  0.  0.
   539  5.38  0.  0.
   540  5.39  0.  0.
   541  5.40  0.  0.
   542  5.41  0.  0.
   543  5.42  0.  0.
   544  5.43  0.  0.
   545  5.44  0.  0.
   546  5.45  0.  0.
   547  5.46  0.  0.
   548  5.47  0.  0.
   549  5.48  0.  0.
   550  5.49  0.  0.
   551  5.50  0.  0.
   552  5.51  0.  0.
   553  5.52  0.  0.
   554  5.53  0.  0.
   555  5.54  0.  0.
   556  5.55  0.  0.
   557  5.56  0.  0.
   558  5.57  0.  0.
   559  5.58  0.  0.
   560  5.59  0.  0.
   561  5.60  0.  0.
   562  5.61  0.  0.
   563  5.62  0.  0.
   564  5.63  0.  0.
   565  5.64  0.  0.
   566  5.65  0.  0.
   567  5.66  0.  0.
   568  5.67  0.  0.
   569  5.68  0.  0.
   570  5.69  0.  0.
   571  5.70  0.  0.
   572  5.71  0.  0.
   573  5.72  0.  0.
   574  5.73  0.  0.
   575  5.74  0.  0.
   576  5.75  0.  0.
   577  5.76  0.  0.
   578  5.77  0.  0.
   579  5.78  0.  0.
   580  5.79  0.  0.
   581  5.80  0.  0.
   582  5.81  0.  0.
   583  5.82  0.  0.
   584  5.83  0.  0.
   585  5.84  0.  0.
   586  5.85  0.  0.
   587  5.86  0.  0.
   588  5.87  0.  0.
   589  5.88  0.  0.
   590  5.89  0.  0.
   591  5.90  0.  0.
   592  5.91  0.  0.
   593  5.92  0.  0.
   594  5.93  0.  0.
   595  5.94  0.  0.
   596  5.95  0.  0.
   597  5.96  0.  0.
   598  5.97  0.  0.
   599  5.98  0.  0.
   600  5.99  0.  0.
   1                         5.1859624862546E+00  7.2189795167376E-01  1.1309665994542E-02
     1  0.0000000000000E+00 -8.5459163311468E-09  2.3860256326280E-08 -1.8085014014124E-08
     2  1.0000000000000E-02 -5.7419187877379E-05  2.2214232317294E-03 -2.4994756865763E-03
     3  2.0000000000000E-02 -2.1466408618312E-04  8.8395434545365E-03 -9.9607808453452E-03
     4  3.0000000000000E-02 -4.2698717121781E-04  1.9716731682782E-02 -2.2273170403094E-02
     5  4.0000000000000E-02 -6.2077258586782E-04  3.4626324058857E-02 -3.9254127644573E-02
     6  5.0000000000000E-02 -6.9496412050505E-04  5.3256650964294E-02 -6.0652415734220E-02
     7  6.0000000000000E-02 -5.2303058370310E-04  7.5216583429448E-02 -8.6152278271852E-02
     8  7.0000000000000E-02  4.4564584375179E-05  1.0004250432062E-01 -1.1537871870132E-01
     9  8.0000000000000E-02  1.1774311489803E-03  1.2720658792314E-01 -1.4790377030616E-01
    10  9.0000000000000E-02  3.0619069336495E-03  1.5612624955408E-01 -1.8325365187456E-01
    11  1.0000000000000E-01  5.8973563256025E-03  1.8617460708372E-01 -2.2091668916634E-01
    12  1.1000000000000E-01  9.8921752250506E-03  2.1669177904310E-01 -2.6035186931614E-01
    13  1.2000000000000E-01  1.5259570367392E-02  2.4699682962409E-01 -3.0099788446847E-01
    14  1.3000000000000E-01  2.2213184983019E-02  2.7640015957749E-01 -3.4228251244676E-01
    15  1.4000000000000E-01  3.0962645625966E-02  3.0421613396869E-01 -3.8363217624810E-01
    16  1.5000000000000E-01  4.1709106651176E-02  3.2977573309764E-01 -4.2448152073437E-01
    17  1.6000000000000E-01  5.4640869221094E-02  3.5243901171204E-01 -4.6428284411944E-01
    18  1.7000000000000E-01  6.9929150865767E-02  3.7160715396809E-01 -5.0251522375219E-01
    19  1.8000000000000E-01  8.7724079516992E-02  3.8673391739353E-01 -5.3869318024234E-01
    20  1.9000000000000E-01  1.0815098261614E-01  3.9733626830032E-01 -5.7237473110705E-01
    21  2.0000000000000E-01  1.3130703740670E-01  4.0300402354225E-01 -6.0316869472331E-01
    22  2.1000000000000E-01  1.5725834293442E-01  4.0340832902591E-01 -6.3074111730899E-01
    23  2.2000000000000E-01  1.8603746767625E-01  3.9830882372472E-01 -6.5482070973928E-01
    24  2.3000000000000E-01  2.1764151920606E-01  3.8755935882952E-01 -6.7520319701675E-01
    25  2.4000000000000E-01  2.5203077399770E-01  3.7111216477132E-01 -6.9175450090140E-01
    26  2.5000000000000E-01  2.8912789649462E-01  3.4902038380997E-01 -7.0441269529495E-01
    27  2.6000000000000E-01  3.2881776708070E-01  3.2143891230356E-01 -7.1318869415583E-01
    28  2.7000000000000E-01  3.7094792872009E-01  2.8862352424118E-01 -7.1816565268274E-01
    29  2.8000000000000E-01  4.1532965195029E-01  2.5092827569951E-01 -7.1949708390482E-01
    30  2.9000000000000E-01  4.6173960777440E-01  2.0880121812463E-01 -7.1740371431677E-01
    31  3.0000000000000E-01  5.0992212796649E-01  1.6277847629351E-01 -7.1216912344768E-01
    32  3.1000000000000E-01  5.5959202254080E-01  1.1347677402416E-01 -7.0413423291194E-01
    33  3.2000000000000E-01  6.1043791479863E-01  6.1584516741290E-02 -6.9369073021843E-01
    34  3.3000000000000E-01  6.6212604560766E-01  7.8515644413943E-03 -6.8127353108967E-01
    35  3.4000000000000E-01  7.1430449053165E-01 -4.6922148962173E-02 -6.6735240095912E-01
    36  3.5000000000000E-01  7.6660772624587E-01 -1.0189897386710E-01 -6.5242287138677E-01
    37  3.6000000000000E-01  8.1866147646587E-01 -1.5621668737517E-01 -6.3699660011008E-01
    38  3.7000000000000E-01  8.7008776248914E-01 -2.0900221208031E-01 -6.2159133410054E-01
    39  3.8000000000000E-01  9.2051007948987E-01 -2.5938569236613E-01 -6.0672064314104E-01
    40  3.9000000000000E-01  9.6955861698653E-01 -3.0651470165612E-01 -5.9288359692445E-01
    41  4.0000000000000E-01  1.0168754404729E+00 -3.4956834997770E-01 -5.8055456139227E-01
    42  4.1000000000000E-01  1.0621195510954E+00 -3.8777106079643E-01 -5.7017328991639E-01
    43  4.2000000000000E-01  1.1049717414848E+00 -4.2040578938036E-01 -5.6213548195994E-01
    44  4.3000000000000E-01  1.1451391683985E+00 -4.4682646193889E-01 -5.5678397605513E-01
    45  4.4000000000000E-01  1.1823595666674E+00 -4.6646942536007E-01 -5.5440073537967E-01
    46  4.5000000000000E-01  1.2164050340191E+00 -4.7886371140137E-01 -5.5519977300964E-01
    47  4.6000000000000E-01  1.2470853225935E+00 -4.8363993647332E-01 -5.5932115023536E-01
    48  4.7000000000000E-01  1.2742505802869E+00 -4.8053767844130E-01 -5.6682616533952E-01
    49  4.8000000000000E-01  1.2977934933491E+00 -4.6941119485829E-01 -5.7769383219557E-01
    50  4.9000000000000E-01  1.3176507907888E+00 -4.5023337238436E-01 -5.9181872821018E-01
    51  5.0000000000000E-01  1.3338040809775E+00 -4.2309782446434E-01 -6.0901026981333E-01
    52  5.1000000000000E-01  1.3462800012314E+00 -3.8821908320231E-01 -6.2899345121329E-01
    53  5.2000000000000E-01  1.3551496719327E+00 -3.4593086134735E-01 -6.5141105883197E-01
    54  5.3000000000000E-01  1.3605274577563E+00 -2.9668239092058E-01 -6.7582735007713E-01
    55  5.4000000000000E-01  1.3625690496307E+00 -2.4103287579016E-01 -7.0173316126928E-01
    56  5.5000000000000E-01  1.3614688919921E+00 -1.7964412595218E-01 -7.2855238599399E-01
    57  5.6000000000000E-01  1.3574569905355E+00 -1.1327147091702E-01 -7.5564974227606E-01
    58  5.7000000000000E-01  1.3507951458342E+00 -4.2753077957455E-02 -7.8233972513342E-01
    59  5.8000000000000E-01  1.3417726677382E+00  3.1002172412205E-02 -8.0789662062612E-01
    60  5.9000000000000E-01  1.3307016342145E+00  1.0702807692147E-01 -8.3156543880054E-01
    61  6.0000000000000E-01  1.3179117661071E+00  1.8431556733590E-01 -8.5257360625779E-01
    62  6.1000000000000E-01  1.3037449960465E+00  2.6182801799291E-01 -8.7014324472738E-01
    63  6.2000000000000E-01  1.2885498153128E+00  3.3851716988271E-01 -8.8350385025386E-01
    64  6.3000000000000E-01  1.2726754867493E+00  4.1333942598452E-01 -8.9190517861512E-01
    65  6.4000000000000E-01  1.2564662147621E+00  4.8527226424082E-01 -8.9463013655553E-01
    66  6.5000000000000E-01  1.2402553649639E+00  5.5333051015150E-01 -8.9100747545903E-01
    67  6.6000000000000E-01  1.2243598260978E+00  6.1658221059755E-01 -8.8042408428554E-01
    68  6.7000000000000E-01  1.2090746054819E+00  6.7416385420010E-01 -8.6233668197537E-01
    69  6.8000000000000E-01  1.1946677463767E+00  7.2529469126159E-01 -8.3628271607089E-01
    70  6.9000000000000E-01  1.1813756514099E+00  7.6928991803375E-01 -8.0189028394213E-01
    71  7.0000000000000E-01  1.1693988905612E+00  8.0557250556189E-01 -7.5888690561451E-01
    72  7.1000000000000E-01  1.1588985652894E+00  8.3368347245502E-01 -7.0710699261287E-01
    73  7.2000000000000E-01  1.1499932922687E+00  8.5329042335930E-01 -6.4649787525099E-01
    74  7.3000000000000E-01  1.1427568610157E+00  8.6419420034003E-01 -5.7712427114455E-01
    75  7.4000000000000E-01  1.1372166095575E+00  8.6633352243831E-01 -4.9917110012996E-01
    76  7.5000000000000E-01  1.1333525513791E+00  8.5978751893935E-01 -4.1294457488694E-01
    77  7.6000000000000E-01  1.1310972753439E+00  8.4477609391634E-01 -3.1887152204777E-01
    78  7.7000000000000E-01  1.1303366282973E+00  8.2165809291421E-01 -2.1749691503715E-01
    79  7.8000000000000E-01  1.1309111778074E+00  7.9092727669395E-01 -1.0947962693197E-01
    80  7.9000000000000E-01  1.1326184401732E+00  7.5320614125118E-01  4.4135611601194E-03
    81  8.0000000000000E-01  1.1352158466202E+00  7.0923765731237E-01  1.2331563374299E-01
    82  8.1000000000000E-01  1.1384244087099E+00  6.5987503567009E-01  2.4626860784549E-01
    83  8.2000000000000E-01  1.1419330325873E+00  6.0606965651510E-01  3.7223427924837E-01
    84  8.3000000000000E-01  1.1454034209799E+00  5.4885733085357E-01  5.0010631033950E-01
    85  8.4000000000000E-01  1.1484754920013E+00  4.8934308967761E-01  6.2872350004661E-01
    86  8.5000000000000E-01  1.1507732349697E+00  4.2868472133785E-01  7.5688405664411E-01
    87  8.6000000000000E-01  1.1519109157783E+00  3.6807529913797E-01  8.8336067711404E-01
    88  8.7000000000000E-01  1.1514995379687E+00  3.0872495916993E-01  1.0069162224496E+00
    89  8.8000000000000E-01  1.1491534606849E+00  2.5184220252609E-01  1.1263197670630E+00