B     ONCVPSP-4.0.1  r_core=   1.20622   1.20622
      5.0000      3.0000      250217    zatom,zion,pspd
     8       2   1     4   600     0    pspcod,pspxc,lmax,lloc,mmax,r2well
  5.99000000  2.90000000  0.00000000    rchrg fchrg qchrg
     2     2     0     0    nproj
     3     1           extension_switch
     3     0     0    nprojso
   0                         7.9781544940811E+00  1.0853986837397E+00
     1  0.0000000000000E+00 -5.4941013183374E-08  9.4600511812981E-08
     2  1.0000000000000E-02  8.2808453339930E-02 -5.1254048474427E-02
     3  2.0000000000000E-02  1.6497015916414E-01 -1.0154542235503E-01
     4  3.0000000000000E-02  2.4585488345581E-01 -1.4993878577441E-01
     5  4.0000000000000E-02  3.2486492388977E-01 -1.9555263989135E-01
     6  5.0000000000000E-02  4.0145015222105E-01 -2.3758416585672E-01
     7  6.0000000000000E-02  4.7512162955000E-01 -2.7533164781535E-01
     8  7.0000000000000E-02  5.4546338583476E-01 -3.0821378485035E-01
     9  8.0000000000000E-02  6.1214200996272E-01 -3.3578529537632E-01
    10  9.0000000000000E-02  6.7491376226344E-01 -3.5774833032903E-01
    11  1.0000000000000E-01  7.3362899560913E-01 -3.7395933920803E-01
    12  1.1000000000000E-01  7.8823375201131E-01 -3.8443117178832E-01
    13  1.2000000000000E-01  8.3876848649425E-01 -3.8933034397081E-01
    14  1.3000000000000E-01  8.8536395649324E-01 -3.8896954442340E-01
    15  1.4000000000000E-01  9.2823440052513E-01 -3.8379560492155E-01
    16  1.5000000000000E-01  9.6766821186872E-01 -3.7437329722683E-01
    17  1.6000000000000E-01  1.0040163890319E+00 -3.6136544871582E-01
    18  1.7000000000000E-01  1.0376791125998E+00 -3.4550998386851E-01
    19  1.8000000000000E-01  1.0690908556174E+00 -3.2759459563988E-01
    20  1.9000000000000E-01  1.0987044802281E+00 -3.0842982669407E-01
    21  2.0000000000000E-01  1.1269748054731E+00 -2.8882139311076E-01
    22  2.1000000000000E-01  1.1543421489606E+00 -2.6954261080187E-01
    23  2.2000000000000E-01  1.1812163479601E+00 -2.5130778656109E-01
    24  2.3000000000000E-01  1.2079617532304E+00 -2.3474741123706E-01
    25  2.4000000000000E-01  1.2348836618446E+00 -2.2038594257732E-01
    26  2.5000000000000E-01  1.2622166141883E+00 -2.0862289119784E-01
    27  2.6000000000000E-01  1.2901149263227E+00 -1.9971782698136E-01
    28  2.7000000000000E-01  1.3186457635711E+00 -1.9377980775154E-01
    29  2.8000000000000E-01  1.3477849863807E+00 -1.9076160064823E-01
    30  2.9000000000000E-01  1.3774159174064E+00 -1.9045892307741E-01
    31  3.0000000000000E-01  1.4073310917406E+00 -1.9251477863822E-01
    32  3.1000000000000E-01  1.4372369628283E+00 -1.9642880851301E-01
    33  3.2000000000000E-01  1.4667614474767E+00 -2.0157142504431E-01
    34  3.3000000000000E-01  1.4954641071405E+00 -2.0720234620833E-01
    35  3.4000000000000E-01  1.5228486818764E+00 -2.1249301188354E-01
    36  3.5000000000000E-01  1.5483776204478E+00 -2.1655223938178E-01
    37  3.6000000000000E-01  1.5714881872085E+00 -2.1845437044368E-01
    38  3.7000000000000E-01  1.5916096755075E+00 -2.1726907807135E-01
    39  3.8000000000000E-01  1.6081812200302E+00 -2.1209194184167E-01
    40  3.9000000000000E-01  1.6206696778841E+00 -2.0207486668529E-01
    41  4.0000000000000E-01  1.6285870411306E+00 -1.8645541374739E-01
    42  4.1000000000000E-01  1.6315068521645E+00 -1.6458413329094E-01
    43  4.2000000000000E-01  1.6290791177014E+00 -1.3594903827322E-01
    44  4.3000000000000E-01  1.6210432565515E+00 -1.0019643203054E-01
    45  4.4000000000000E-01  1.6072386697894E+00 -5.7147402473667E-02
    46  4.5000000000000E-01  1.5876125879073E+00 -6.8094156348309E-03
    47  4.6000000000000E-01  1.5622249262348E+00  5.0617420027253E-02
    48  4.7000000000000E-01  1.5312499651596E+00  1.1473969436907E-01
    49  4.8000000000000E-01  1.4949747630626E+00  1.8497575449039E-01
    50  4.9000000000000E-01  1.4537943047863E+00  2.6056642712696E-01
    51  5.0000000000000E-01  1.4082034841285E+00  3.4059118159120E-01
    52  5.1000000000000E-01  1.3587861125391E+00  4.2398934673853E-01
    53  5.2000000000000E-01  1.3062012351399E+00  5.0958584124649E-01
    54  5.3000000000000E-01  1.2511671167749E+00  5.9612073631583E-01
    55  5.4000000000000E-01  1.1944433325968E+00  6.8228184797148E-01
    56  5.5000000000000E-01  1.1368114575532E+00  7.6673945619061E-01
    57  5.6000000000000E-01  1.0790548952091E+00  8.4818217325663E-01
    58  5.7000000000000E-01  1.0219384171948E+00  9.2535293646542E-01
    59  5.8000000000000E-01  9.6618799917485E-01  9.9708408225679E-01
    60  5.9000000000000E-01  9.1247153703634E-01  1.0623304708451E+00
    61  6.0000000000000E-01  8.6138100792149E-01  1.1201996724474E+00
    62  6.1000000000000E-01  8.1341660517590E-01  1.1699782973704E+00
    63  6.2000000000000E-01  7.6897332514442E-01  1.2111536507695E+00
    64  6.3000000000000E-01  7.2833041835093E-01  1.2434300163036E+00
    65  6.4000000000000E-01  6.9164403970726E-01  1.2667390178793E+00
    66  6.5000000000000E-01  6.5894334413603E-01  1.2812436712950E+00
    67  6.6000000000000E-01  6.3013017780336E-01  1.2873359133692E+00
    68  6.7000000000000E-01  6.0498241373135E-01  1.2856275801800E+00
    69  6.8000000000000E-01  5.8316087674284E-01  1.2769349931885E+00
    70  6.9000000000000E-01  5.6421969944352E-01  1.2622574969294E+00
    71  7.0000000000000E-01  5.4761985120680E-01  1.2427504693597E+00
    72  7.1000000000000E-01  5.3274548878156E-01  1.2196934906949E+00
    73  7.2000000000000E-01  5.1892269289619E-01  1.1944545038341E+00
    74  7.3000000000000E-01  5.0544008257133E-01  1.1684509248856E+00
    75  7.4000000000000E-01  4.9157073992898E-01  1.1431087620826E+00
    76  7.5000000000000E-01  4.7659483490242E-01  1.1198208724090E+00
    77  7.6000000000000E-01  4.5982231276144E-01  1.0999055252276E+00
    78  7.7000000000000E-01  4.4061499867038E-01  1.0845664496673E+00
    79  7.8000000000000E-01  4.1840748298622E-01  1.0748555169175E+00
    80  7.9000000000000E-01  3.9272617856671E-01  1.0716391502852E+00
    81  8.0000000000000E-01  3.6320598636265E-01  1.0755694661898E+00
    82  8.1000000000000E-01  3.2960406689447E-01  1.0870610303956E+00
    83  8.2000000000000E-01  2.9181029126236E-01  1.1062739687552E+00
    84  8.3000000000000E-01  2.4985403409241E-01  1.1331040043574E+00
    85  8.4000000000000E-01  2.0390706988755E-01  1.1671798076879E+00
    86  8.5000000000000E-01  1.5428244092804E-01  1.2078678482342E+00
    87  8.6000000000000E-01  1.0142927622394E-01  1.2542847302853E+00
    88  8.7000000000000E-01  4.5923653973257E-02  1.3053167881517E+00
    89  8.8000000000000E-01 -1.1544288621569E-02  1.3596465124190E+00
    90  8.9000000000000E-01 -7.0186687608380E-02  1.4157851848336E+00
    91  9.0000000000000E-01 -1.2913731701834E-01  1.4721109204742E+00
    92  9.1000000000000E-01 -1.8747348797940E-01  1.5269111570795E+00
    93  9.2000000000000E-01 -2.4423990866169E-01  1.5784284973470E+00
    94  9.3000000000000E-01 -2.9847387131799E-01  1.6249087046200E+00
    95  9.4000000000000E-01 -3.4923108951520E-01  1.6646495787709E+00
    96  9.5000000000000E-01 -3.9561148384910E-01  1.6960493995892E+00
    97  9.6000000000000E-01 -4.3678420878516E-01  1.7176536209343E+00
    98  9.7000000000000E-01 -4.7201122707769E-01  1.7281985307412E+00
    99  9.8000000000000E-01 -5.0066877120383E-01  1.7266506590306E+00
   100  9.9000000000000E-01 -5.2226608264618E-01  1.7122408168602E+00
   101  1.0000000000000E+00 -5.3646088834840E-01  1.6844917811264E+00
   102  1.0100000000000E+00 -5.4307115747756E-01  1.6432387999287E+00
   103  1.0200000000000E+00 -5.4208277845203E-01  1.5886422765206E+00
   104  1.0300000000000E+00 -5.3365290363512E-01  1.5211921922222E+00
   105  1.0400000000000E+00 -5.1810882403958E-01  1.4417040442599E+00
   106  1.0500000000000E+00 -4.9594235574981E-01  1.3513062976236E+00
   107  1.0600000000000E+00 -4.6779984056968E-01  1.2514195751868E+00
   108  1.0700000000000E+00 -4.3446798184278E-01  1.1437280304969E+00
   109  1.0800000000000E+00 -3.9685584966128E-01  1.0301435576651E+00
   110  1.0900000000000E+00 -3.5597349449915E-01  9.1276368662159E-01
   111  1.1000000000000E+00 -3.1290770153590E-01  7.9382418390744E-01
   112  1.1100000000000E+00 -2.6879549755786E-01  6.7564752544991E-01
   113  1.1200000000000E+00 -2.2479608536047E-01  5.6058852297686E-01
   114  1.1300000000000E+00 -1.8206193635001E-01  4.5097848771174E-01
   115  1.1400000000000E+00 -1.4170972262766E-01  3.4906921357129E-01
   116  1.1500000000000E+00 -1.0479917673002E-01  2.5699206754106E-01
   117  1.1600000000000E+00 -7.2345019503036E-02  1.7677882420740E-01
   118  1.1700000000000E+00 -4.5176994050898E-02  1.1009705688146E-01
   119  1.1800000000000E+00 -2.3970946809071E-02  5.8309775318738E-02
   120  1.1900000000000E+00 -9.2522575911548E-03  2.2482838277273E-02
   121  1.2000000000000E+00 -1.3915178707495E-03  3.3804080050379E-03
   122  1.2100000000000E+00  8.2923583441155E-05 -2.0151268265910E-04
   123  1.2200000000000E+00 -7.4376495901816E-06  1.8069710601342E-05
   124  1.23  0.  0.
   125  1.24  0.  0.
   126  1.25  0.  0.
   127  1.26  0.  0.
   128  1.27  0.  0.
   129  1.28  0.  0.
   130  1.29  0.  0.
   131  1.30  0.  0.
   132  1.31  0.  0.
   133  1.32  0.  0.
   134  1.33  0.  0.
   135  1.34  0.  0.
   136  1.35  0.  0.
   137  1.36  0.  0.
   138  1.37  0.  0.
   139  1.38  0.  0.
   140  1.39  0.  0.
   141  1.40  0.  0.
   142  1.41  0.  0.
   143  1.42  0.  0.
   144  1.43  0.  0.
   145  1.44  0.  0.
   146  1.45  0.  0.
   147  1.46  0.  0.
   148  1.47  0.  0.
   149  1.48  0.  0.
   150  1.49  0.  0.
   151  1.50  0.  0.
   152  1.51  0.  0.
   153  1.52  0.  0.
   154  1.53  0.  0.
   155  1.54  0.  0.
   156  1.55  0.  0.
   157  1.56  0.  0.
   158  1.57  0.  0.
   159  1.58  0.  0.
   160  1.59  0.  0.
   161  1.60  0.  0.
   162  1.61  0.  0.
   163  1.62  0.  0.
   164  1.63  0.  0.
   165  1.64  0.  0.
   166  1.65  0.  0.
   167  1.66  0.  0.
   168  1.67  0.  0.
   169  1.68  0.  0.
   170  1.69  0.  0.
   171  1.70  0.  0.
   172  1.71  0.  0.
   173  1.72  0.  0.
   174  1.73  0.  0.
   175  1.74  0.  0.
   176  1.75  0.  0.
   177  1.76  0.  0.
   178  1.77  0.  0.
   179  1.78  0.  0.
   180  1.79  0.  0.
   181  1.80  0.  0.
   182  1.81  0.  0.
   183  1.82  0.  0.
   184  1.83  0.  0.
   185  1.84  0.  0.
   186  1.85  0.  0.
   187  1.86  0.  0.
   188  1.87  0.  0.
   189  1.88  0.  0.
   190  1.89  0.  0.
   191  1.90  0.  0.
   192  1.91  0.  0.
   193  1.92  0.  0.
   194  1.93  0.  0.
   195  1.94  0.  0.
   196  1.95  0.  0.
   197  1.96  0.  0.
   198  1.97  0.  0.
   199  1.98  0.  0.
   200  1.99  0.  0.
   201  2.00  0.  0.
   202  2.01  0.  0.
   203  2.02  0.  0.
   204  2.03  0.  0.
   205  2.04  0.  0.
   206  2.05  0.  0.
   207  2.06  0.  0.
   208  2.07  0.  0.
   209  2.08  0.  0.
   210  2.09  0.  0.
   211  2.10  0.  0.
   212  2.11  0.  0.
   213  2.12  0.  0.
   214  2.13  0.  0.
   215  2.14  0.  0.
   216  2.15  0.  0.
   217  2.16  0.  0.
   218  2.17  0.  0.
   219  2.18  0.  0.
   220  2.19  0.  0.
   221  2.20  0.  0.
   222  2.21  0.  0.
   223  2.22  0.  0.
   224  2.23  0.  0.
   225  2.24  0.  0.
   226  2.25  0.  0.
   227  2.26  0.  0.
   228  2.27  0.  0.
   229  2.28  0.  0.
   230  2.29  0.  0.
   231  2.30  0.  0.
   232  2.31  0.  0.
   233  2.32  0.  0.
   234  2.33  0.  0.
   235  2.34  0.  0.
   236  2.35  0.  0.
   237  2.36  0.  0.
   238  2.37  0.  0.
   239  2.38  0.  0.
   240  2.39  0.  0.
   241  2.40  0.  0.
   242  2.41  0.  0.
   243  2.42  0.  0.
   244  2.43  0.  0.
   245  2.44  0.  0.
   246  2.45  0.  0.
   247  2.46  0.  0.
   248  2.47  0.  0.
   249  2.48  0.  0.
   250  2.49  0.  0.
   251  2.50  0.  0.
   252  2.51  0.  0.
   253  2.52  0.  0.
   254  2.53  0.  0.
   255  2.54  0.  0.
   256  2.55  0.  0.
   257  2.56  0.  0.
   258  2.57  0.  0.
   259  2.58  0.  0.
   260  2.59  0.  0.
   261  2.60  0.  0.
   262  2.61  0.  0.
   263  2.62  0.  0.
   264  2.63  0.  0.
   265  2.64  0.  0.
   266  2.65  0.  0.
   267  2.66  0.  0.
   268  2.67  0.  0.
   269  2.68  0.  0.
   270  2.69  0.  0.
   271  2.70  0.  0.
   272  2.71  0.  0.
   273  2.72  0.  0.
   274  2.73  0.  0.
   275  2.74  0.  0.
   276  2.75  0.  0.
   277  2.76  0.  0.
   278  2.77  0.  0.
   279  2.78  0.  0.
   280  2.79  0.  0.
   281  2.80  0.  0.
   282  2.81  0.  0.
   283  2.82  0.  0.
   284  2.83  0.  0.
   285  2.84  0.  0.
   286  2.85  0.  0.
   287  2.86  0.  0.
   288  2.87  0.  0.
   289  2.88  0.  0.
   290  2.89  0.  0.
   291  2.90  0.  0.
   292  2.91  0.  0.
   293  2.92  0.  0.
   294  2.93  0.  0.
   295  2.94  0.  0.
   296  2.95  0.  0.
   297  2.96  0.  0.
   298  2.97  0.  0.
   299  2.98  0.  0.
   300  2.99  0.  0.
   301  3.00  0.  0.
   302  3.01  0.  0.
   303  3.02  0.  0.
   304  3.03  0.  0.
   305  3.04  0.  0.
   306  3.05  0.  0.
   307  3.06  0.  0.
   308  3.07  0.  0.
   309  3.08  0.  0.
   310  3.09  0.  0.
   311  3.10  0.  0.
   312  3.11  0.  0.
   313  3.12  0.  0.
   314  3.13  0.  0.
   315  3.14  0.  0.
   316  3.15  0.  0.
   317  3.16  0.  0.
   318  3.17  0.  0.
   319  3.18  0.  0.
   320  3.19  0.  0.
   321  3.20  0.  0.
   322  3.21  0.  0.
   323  3.22  0.  0.
   324  3.23  0.  0.
   325  3.24  0.  0.
   326  3.25  0.  0.
   327  3.26  0.  0.
   328  3.27  0.  0.
   329  3.28  0.  0.
   330  3.29  0.  0.
   331  3.30  0.  0.
   332  3.31  0.  0.
   333  3.32  0.  0.
   334  3.33  0.  0.
   335  3.34  0.  0.
   336  3.35  0.  0.
   337  3.36  0.  0.
   338  3.37  0.  0.
   339  3.38  0.  0.
   340  3.39  0.  0.
   341  3.40  0.  0.
   342  3.41  0.  0.
   343  3.42  0.  0.
   344  3.43  0.  0.
   345  3.44  0.  0.
   346  3.45  0.  0.
   347  3.46  0.  0.
   348  3.47  0.  0.
   349  3.48  0.  0.
   350  3.49  0.  0.
   351  3.50  0.  0.
   352  3.51  0.  0.
   353  3.52  0.  0.
   354  3.53  0.  0.
   355  3.54  0.  0.
   356  3.55  0.  0.
   357  3.56  0.  0.
   358  3.57  0.  0.
   359  3.58  0.  0.
   360  3.59  0.  0.
   361  3.60  0.  0.
   362  3.61  0.  0.
   363  3.62  0.  0.
   364  3.63  0.  0.
   365  3.64  0.  0.
   366  3.65  0.  0.
   367  3.66  0.  0.
   368  3.67  0.  0.
   369  3.68  0.  0.
   370  3.69  0.  0.
   371  3.70  0.  0.
   372  3.71  0.  0.
   373  3.72  0.  0.
   374  3.73  0.  0.
   375  3.74  0.  0.
   376  3.75  0.  0.
   377  3.76  0.  0.
   378  3.77  0.  0.
   379  3.78  0.  0.
   380  3.79  0.  0.
   381  3.80  0.  0.
   382  3.81  0.  0.
   383  3.82  0.  0.
   384  3.83  0.  0.
   385  3.84  0.  0.
   386  3.85  0.  0.
   387  3.86  0.  0.
   388  3.87  0.  0.
   389  3.88  0.  0.
   390  3.89  0.  0.
   391  3.90  0.  0.
   392  3.91  0.  0.
   393  3.92  0.  0.
   394  3.93  0.  0.
   395  3.94  0.  0.
   396  3.95  0.  0.
   397  3.96  0.  0.
   398  3.97  0.  0.
   399  3.98  0.  0.
   400  3.99  0.  0.
   401  4.00  0.  0.
   402  4.01  0.  0.
   403  4.02  0.  0.
   404  4.03  0.  0.
   405  4.04  0.  0.
   406  4.05  0.  0.
   407  4.06  0.  0.
   408  4.07  0.  0.
   409  4.08  0.  0.
   410  4.09  0.  0.
   411  4.10  0.  0.
   412  4.11  0.  0.
   413  4.12  0.  0.
   414  4.13  0.  0.
   415  4.14  0.  0.
   416  4.15  0.  0.
   417  4.16  0.  0.
   418  4.17  0.  0.
   419  4.18  0.  0.
   420  4.19  0.  0.
   421  4.20  0.  0.
   422  4.21  0.  0.
   423  4.22  0.  0.
   424  4.23  0.  0.
   425  4.24  0.  0.
   426  4.25  0.  0.
   427  4.26  0.  0.
   428  4.27  0.  0.
   429  4.28  0.  0.
   430  4.29  0.  0.
   431  4.30  0.  0.
   432  4.31  0.  0.
   433  4.32  0.  0.
   434  4.33  0.  0.
   435  4.34  0.  0.
   436  4.35  0.  0.
   437  4.36  0.  0.
   438  4.37  0.  0.
   439  4.38  0.  0.
   440  4.39  0.  0.
   441  4.40  0.  0.
   442  4.41  0.  0.
   443  4.42  0.  0.
   444  4.43  0.  0.
   445  4.44  0.  0.
   446  4.45  0.  0.
   447  4.46  0.  0.
   448  4.47  0.  0.
   449  4.48  0.  0.
   450  4.49  0.  0.
   451  4.50  0.  0.
   452  4.51  0.  0.
   453  4.52  0.  0.
   454  4.53  0.  0.
   455  4.54  0.  0.
   456  4.55  0.  0.
   457  4.56  0.  0.
   458  4.57  0.  0.
   459  4.58  0.  0.
   460  4.59  0.  0.
   461  4.60  0.  0.
   462  4.61  0.  0.
   463  4.62  0.  0.
   464  4.63  0.  0.
   465  4.64  0.  0.
   466  4.65  0.  0.
   467  4.66  0.  0.
   468  4.67  0.  0.
   469  4.68  0.  0.
   470  4.69  0.  0.
   471  4.70  0.  0.
   472  4.71  0.  0.
   473  4.72  0.  0.
   474  4.73  0.  0.
   475  4.74  0.  0.
   476  4.75  0.  0.
   477  4.76  0.  0.
   478  4.77  0.  0.
   479  4.78  0.  0.
   480  4.79  0.  0.
   481  4.80  0.  0.
   482  4.81  0.  0.
   483  4.82  0.  0.
   484  4.83  0.  0.
   485  4.84  0.  0.
   486  4.85  0.  0.
   487  4.86  0.  0.
   488  4.87  0.  0.
   489  4.88  0.  0.
   490  4.89  0.  0.
   491  4.90  0.  0.
   492  4.91  0.  0.
   493  4.92  0.  0.
   494  4.93  0.  0.
   495  4.94  0.  0.
   496  4.95  0.  0.
   497  4.96  0.  0.
   498  4.97  0.  0.
   499  4.98  0.  0.
   500  4.99  0.  0.
   501  5.00  0.  0.
   502  5.01  0.  0.
   503  5.02  0.  0.
   504  5.03  0.  0.
   505  5.04  0.  0.
   506  5.05  0.  0.
   507  5.06  0.  0.
   508  5.07  0.  0.
   509  5.08  0.  0.
   510  5.09  0.  0.
   511  5.10  0.  0.
   512  5.11  0.  0.
   513  5.12  0.  0.
   514  5.13  0.  0.
   515  5.14  0.  0.
   516  5.15  0.  0.
   517  5.16  0.  0.
   518  5.17  0.  0.
   519  5.18  0.  0.
   520  5.19  0.  0.
   521  5.20  0.  0.
   522  5.21  0.  0.
   523  5.22  0.  0.
   524  5.23  0.  0.
   525  5.24  0.  0.
   526  5.25  0.  0.
   527  5.26  0.  0.
   528  5.27  0.  0.
   529  5.28  0.  0.
   530  5.29  0.  0.
   531  5.30  0.  0.
   532  5.31  0.  0.
   533  5.32  0.  0.
   534  5.33  0.  0.
   535  5.34  0.  0.
   536  5.35  0.  0.
   537  5.36  0.  0.
   538  5.37  0.  0.
   539  5.38  0.  0.
   540  5.39  0.  0.
   541  5.40  0.  0.
   542  5.41  0.  0.
   543  5.42  0.  0.
   544  5.43  0.  0.
   545  5.44  0.  0.
   546  5.45  0.  0.
   547  5.46  0.  0.
   548  5.47  0.  0.
   549  5.48  0.  0.
   550  5.49  0.  0.
   551  5.50  0.  0.
   552  5.51  0.  0.
   553  5.52  0.  0.
   554  5.53  0.  0.
   555  5.54  0.  0.
   556  5.55  0.  0.
   557  5.56  0.  0.
   558  5.57  0.  0.
   559  5.58  0.  0.
   560  5.59  0.  0.
   561  5.60  0.  0.
   562  5.61  0.  0.
   563  5.62  0.  0.
   564  5.63  0.  0.
   565  5.64  0.  0.
   566  5.65  0.  0.
   567  5.66  0.  0.
   568  5.67  0.  0.
   569  5.68  0.  0.
   570  5.69  0.  0.
   571  5.70  0.  0.
   572  5.71  0.  0.
   573  5.72  0.  0.
   574  5.73  0.  0.
   575  5.74  0.  0.
   576  5.75  0.  0.
   577  5.76  0.  0.
   578  5.77  0.  0.
   579  5.78  0.  0.
   580  5.79  0.  0.
   581  5.80  0.  0.
   582  5.81  0.  0.
   583  5.82  0.  0.
   584  5.83  0.  0.
   585  5.84  0.  0.
   586  5.85  0.  0.
   587  5.86  0.  0.
   588  5.87  0.  0.
   589  5.88  0.  0.
   590  5.89  0.  0.
   591  5.90  0.  0.
   592  5.91  0.  0.
   593  5.92  0.  0.
   594  5.93  0.  0.
   595  5.94  0.  0.
   596  5.95  0.  0.
   597  5.96  0.  0.
   598  5.97  0.  0.
   599  5.98  0.  0.
   600  5.99  0.  0.
   1                        -3.5444231141014E+00 -7.8432616539153E-01
     1  0.0000000000000E+00 -7.2790463101491E-09 -7.7293182826343E-09
     2  1.0000000000000E-02  2.6692913030969E-03 -1.9299025401137E-03
     3  2.0000000000000E-02  1.0658190437523E-02 -7.6804690275803E-03
     4  3.0000000000000E-02  2.3909829849045E-02 -1.7134842970316E-02
     5  4.0000000000000E-02  4.2329626367514E-02 -3.0100152871007E-02
     6  5.0000000000000E-02  6.5785598896364E-02 -4.6310344461501E-02
     7  6.0000000000000E-02  9.4108858785266E-02 -6.5430140660049E-02
     8  7.0000000000000E-02  1.2709431503663E-01 -8.7060120283403E-02
     9  8.0000000000000E-02  1.6450164377565E-01 -1.1074289881644E-01
    10  9.0000000000000E-02  2.0605657541687E-01 -1.3597038337586E-01
    11  1.0000000000000E-01  2.5145255327521E-01 -1.6219205910091E-01
    12  1.1000000000000E-01  3.0035281375326E-01 -1.8882424550550E-01
    13  1.2000000000000E-01  3.5239293062987E-01 -2.1526023903901E-01
    14  1.3000000000000E-01  4.0718385450791E-01 -2.4088123269681E-01
    15  1.4000000000000E-01  4.6431546346973E-01 -2.6506787572284E-01
    16  1.5000000000000E-01  5.2336062293617E-01 -2.8721230722158E-01
    17  1.6000000000000E-01  5.8387973228858E-01 -3.0673046800994E-01
    18  1.7000000000000E-01  6.4542571379561E-01 -3.2307446662459E-01
    19  1.8000000000000E-01  7.0754937669593E-01 -3.3574474948923E-01
    20  1.9000000000000E-01  7.6980506691139E-01 -3.4430180332996E-01
    21  2.0000000000000E-01  8.3175649182474E-01 -3.4837710147105E-01
    22  2.1000000000000E-01  8.9298259087028E-01 -3.4768299603844E-01
    23  2.2000000000000E-01  9.5308330732657E-01 -3.4202125657582E-01
    24  2.3000000000000E-01  1.0116851055548E+00 -3.3128996316378E-01
    25  2.4000000000000E-01  1.0684460717521E+00 -3.1548847956973E-01
    26  2.5000000000000E-01  1.1230604356883E+00 -2.9472025967301E-01
    27  2.6000000000000E-01  1.1752623562702E+00 -2.6919327846279E-01
    28  2.7000000000000E-01  1.2248288253317E+00 -2.3921792696778E-01
    29  2.8000000000000E-01  1.2715815617355E+00 -2.0520226780857E-01
    30  2.9000000000000E-01  1.3153877914265E+00 -1.6764461352888E-01
    31  3.0000000000000E-01  1.3561598379830E+00 -1.2712346193526E-01
    32  3.1000000000000E-01  1.3938534817326E+00 -8.4284899477972E-02
    33  3.2000000000000E-01  1.4284650826884E+00 -3.9827663057334E-02
    34  3.3000000000000E-01  1.4600275022868E+00  5.5138698886180E-03
    35  3.4000000000000E-01  1.4886048998981E+00  5.0988416165136E-02
    36  3.5000000000000E-01  1.5142865209469E+00  9.5847827786040E-02
    37  3.6000000000000E-01  1.5371796327810E+00  1.3936795644782E-01
    38  3.7000000000000E-01  1.5574018007051E+00  1.8086980526940E-01
    39  3.8000000000000E-01  1.5750727284384E+00  2.1974039080180E-01
    40  3.9000000000000E-01  1.5903059133347E+00  2.5545271247433E-01
    41  4.0000000000000E-01  1.6032003858431E+00  2.8758421745212E-01
    42  4.1000000000000E-01  1.6138328138893E+00  3.1583315760926E-01
    43  4.2000000000000E-01  1.6222502553684E+00  3.4003226273204E-01
    44  4.3000000000000E-01  1.6284638352534E+00  3.6015920034840E-01
    45  4.4000000000000E-01  1.6324436077409E+00  3.7634335732145E-01
    46  4.5000000000000E-01  1.6341148384855E+00  3.8886856051841E-01
    47  4.6000000000000E-01  1.6333559077282E+00  3.9817145183376E-01
    48  4.7000000000000E-01  1.6299979927500E+00  4.0483534438271E-01
    49  4.8000000000000E-01  1.6238266386055E+00  4.0957950902974E-01
    50  4.9000000000000E-01  1.6145852708312E+00  4.1324397034458E-01
    51  5.0000000000000E-01  1.6019806443234E+00  4.1677002497007E-01
    52  5.1000000000000E-01  1.5856901605941E+00  4.2117682934054E-01
    53  5.2000000000000E-01  1.5653709230327E+00  4.2753453363464E-01
    54  5.3000000000000E-01  1.5406703386038E+00  4.3693456066132E-01
    55  5.4000000000000E-01  1.5112380166090E+00  4.5045773802581E-01
    56  5.5000000000000E-01  1.4767386626952E+00  4.6914108557696E-01
    57  5.6000000000000E-01  1.4368656210656E+00  4.9394413431532E-01
    58  5.7000000000000E-01  1.3913546815412E+00  5.2571570462319E-01
    59  5.8000000000000E-01  1.3399977421821E+00  5.6516209842026E-01
    60  5.9000000000000E-01  1.2826559038087E+00  6.1281765987676E-01
    61  6.0000000000000E-01  1.2192715707995E+00  6.6901863161229E-01
    62  6.1000000000000E-01  1.1498791434888E+00  7.3388117765396E-01
    63  6.2000000000000E-01  1.0746139114288E+00  8.0728436145176E-01
    64  6.3000000000000E-01  9.9371879342296E-01  8.8885875842346E-01
    65  6.4000000000000E-01  9.0754861885627E-01  9.7798125013341E-01
    66  6.5000000000000E-01  8.1657170434978E-01  1.0737763943831E+00
    67  6.6000000000000E-01  7.2136854866612E-01  1.1751245960101E+00
    68  6.7000000000000E-01  6.2262754528833E-01  1.2806771214824E+00
    69  6.8000000000000E-01  5.2113769409868E-01  1.3888778113392E+00
    70  6.9000000000000E-01  4.1777837877249E-01  1.4979911534837E+00
    71  7.0000000000000E-01  3.1350636241407E-01  1.6061361927468E+00
    72  7.1000000000000E-01  2.0934023802696E-01  1.7113255735982E+00
    73  7.2000000000000E-01  1.0634265007721E-01  1.8115088488041E+00
    74  7.3000000000000E-01  5.6006761690789E-03  1.9046190424032E+00
    75  7.4000000000000E-01 -9.1795178617416E-02  1.9886213352919E+00
    76  7.5000000000000E-01 -1.8477287000933E-01  2.0615626501265E+00
    77  7.6000000000000E-01 -2.7230104172741E-01  2.1216208525404E+00
    78  7.7000000000000E-01 -3.5341102349443E-01  2.1671522603806E+00
    79  7.8000000000000E-01 -4.2721802310340E-01  2.1967361633836E+00
    80  7.9000000000000E-01 -4.9294094338678E-01  2.2092151030115E+00
    81  8.0000000000000E-01 -5.4992027893601E-01  2.2037297455590E+00
    82  8.1000000000000E-01 -5.9763358747149E-01  2.1797472995902E+00
    83  8.2000000000000E-01 -6.3570808599688E-01  2.1370825786675E+00
    84  8.3000000000000E-01 -6.6392999096919E-01  2.0759109886166E+00
    85  8.4000000000000E-01 -6.8225030291385E-01  1.9967729207685E+00
    86  8.5000000000000E-01 -6.9078682706151E-01  1.9005692534579E+00
    87  8.6000000000000E-01 -6.8982232019547E-01  1.7885478976384E+00
    88  8.7000000000000E-01 -6.7979875723025E-01  1.6622815624209E+00
    89  8.8000000000000E-01 -6.6130781616386E-01  1.5236371559548E+00
    90  8.9000000000000E-01 -6.3507778393316E-01  1.3747374695641E+00
    91  9.0000000000000E-01 -6.0195718532037E-01  1.2179160117147E+00
    92  9.1000000000000E-01 -5.6289552946190E-01  1.0556660568039E+00
    93  9.2000000000000E-01 -5.1892165092481E-01  8.9058514598840E-01
    94  9.3000000000000E-01 -4.7112019222176E-01  7.2531641802081E-01
    95  9.4000000000000E-01 -4.2060682987034E-01  5.6248825291374E-01
    96  9.5000000000000E-01 -3.6850288488599E-01  4.0465377668480E-01
    97  9.6000000000000E-01 -3.1590997963787E-01  2.5423179907801E-01
    98  9.7000000000000E-01 -2.6388540549689E-01  1.1345073675548E-01
    99  9.8000000000000E-01 -2.1341884942618E-01 -1.5702987964171E-02
   100  9.9000000000000E-01 -1.6541109289378E-01 -1.3153068700087E-01
   101  1.0000000000000E+00 -1.2065524407721E-01 -2.3266004285917E-01
   102  1.0100000000000E+00 -7.9820995649923E-02 -3.1807557869663E-01
   103  1.0200000000000E+00 -4.3442317435836E-02 -3.8714010980540E-01
   104  1.0300000000000E+00 -1.1908898022004E-02 -4.3960656042376E-01
   105  1.0400000000000E+00  1.4538455093641E-02 -4.7561978495771E-01
   106  1.0500000000000E+00  3.5808358109278E-02 -4.9570829986295E-01
   107  1.0600000000000E+00  5.1955351872950E-02 -5.0076610483980E-01
   108  1.0700000000000E+00  6.3172490732905E-02 -4.9202504089917E-01
   109  1.0800000000000E+00  6.9780259545499E-02 -4.7101839168831E-01
   110  1.0900000000000E+00  7.2212163189200E-02 -4.3953667553213E-01
   111  1.1000000000000E+00  7.0997427073470E-02 -3.9957679148554E-01
   112  1.1100000000000E+00  6.6741329132699E-02 -3.5328586841886E-01
   113  1.1200000000000E+00  6.0103750428969E-02 -3.0290131460339E-01
   114  1.1300000000000E+00  5.1776574508662E-02 -2.5068866236765E-01
   115  1.1400000000000E+00  4.2460669995223E-02 -1.9887898573983E-01
   116  1.1500000000000E+00  3.2838689490034E-02 -1.4960036613305E-01
   117  1.1600000000000E+00  2.3534519643760E-02 -1.0478928755280E-01
   118  1.1700000000000E+00  1.5158759819195E-02 -6.6243222216825E-02
   119  1.1800000000000E+00  8.2498080032892E-03 -3.5506127708437E-02
   120  1.1900000000000E+00  3.2499343513206E-03 -1.3817001444687E-02
   121  1.2000000000000E+00  4.9668212888648E-04 -2.0912486894156E-03
   122  1.2100000000000E+00 -2.9927556581920E-05  1.2523398262787E-04
   123  1.2200000000000E+00  2.6742226973599E-06 -1.1214078972569E-05
   124  1.23  0.  0.
   125  1.24  0.  0.
   126  1.25  0.  0.
   127  1.26  0.  0.
   128  1.27  0.  0.
   129  1.28  0.  0.
   130  1.29  0.  0.
   131  1.30  0.  0.
   132  1.31  0.  0.
   133  1.32  0.  0.
   134  1.33  0.  0.
   135  1.34  0.  0.
   136  1.35  0.  0.
   137  1.36  0.  0.
   138  1.37  0.  0.
   139  1.38  0.  0.
   140  1.39  0.  0.
   141  1.40  0.  0.
   142  1.41  0.  0.
   143  1.42  0.  0.
   144  1.43  0.  0.
   145  1.44  0.  0.
   146  1.45  0.  0.
   147  1.46  0.  0.
   148  1.47  0.  0.
   149  1.48  0.  0.
   150  1.49  0.  0.
   151  1.50  0.  0.
   152  1.51  0.  0.
   153  1.52  0.  0.
   154  1.53  0.  0.
   155  1.54  0.  0.
   156  1.55  0.  0.
   157  1.56  0.  0.
   158  1.57  0.  0.
   159  1.58  0.  0.
   160  1.59  0.  0.
   161  1.60  0.  0.
   162  1.61  0.  0.
   163  1.62  0.  0.
   164  1.63  0.  0.
   165  1.64  0.  0.
   166  1.65  0.  0.
   167  1.66  0.  0.
   168  1.67  0.  0.
   169  1.68  0.  0.
   170  1.69  0.  0.
   171  1.70  0.  0.
   172  1.71  0.  0.
   173  1.72  0.  0.
   174  1.73  0.  0.
   175  1.74  0.  0.
   176  1.75  0.  0.
   177  1.76  0.  0.
   178  1.77  0.  0.
   179  1.78  0.  0.
   180  1.79  0.  0.
   181  1.80  0.  0.
   182  1.81  0.  0.
   183  1.82  0.  0.
   184  1.83  0.  0.
   185  1.84  0.  0.
   186  1.85  0.  0.
   187  1.86  0.  0.
   188  1.87  0.  0.
   189  1.88  0.  0.
   190  1.89  0.  0.
   191  1.90  0.  0.
   192  1.91  0.  0.
   193  1.92  0.  0.
   194  1.93  0.  0.
   195  1.94  0.  0.
   196  1.95  0.  0.
   197  1.96  0.  0.
   198  1.97  0.  0.
   199  1.98  0.  0.
   200  1.99  0.  0.
   201  2.00  0.  0.
   202  2.01  0.  0.
   203  2.02  0.  0.
   204  2.03  0.  0.
   205  2.04  0.  0.
   206  2.05  0.  0.
   207  2.06  0.  0.
   208  2.07  0.  0.
   209  2.08  0.  0.
   210  2.09  0.  0.
   211  2.10  0.  0.
   212  2.11  0.  0.
   213  2.12  0.  0.
   214  2.13  0.  0.
   215  2.14  0.  0.
   216  2.15  0.  0.
   217  2.16  0.  0.
   218  2.17  0.  0.
   219  2.18  0.  0.
   220  2.19  0.  0.
   221  2.20  0.  0.
   222  2.21  0.  0.
   223  2.22  0.  0.
   224  2.23  0.  0.
   225  2.24  0.  0.
   226  2.25  0.  0.
   227  2.26  0.  0.
   228  2.27  0.  0.
   229  2.28  0.  0.
   230  2.29  0.  0.
   231  2.30  0.  0.