B     ONCVPSP-4.0.1  r_core=   1.20716   1.20716
      5.0000      3.0000      231019    zatom,zion,pspd
     8       2   1     4   600     0    pspcod,pspxc,lmax,lloc,mmax,r2well
  5.99000000  2.90000000  0.00000000    rchrg fchrg qchrg
     2     2     0     0     0    nproj
     1     1           extension_switch
   0                         7.9756521810908E+00  1.0822249876422E+00
     1  0.0000000000000E+00 -5.3880678474449E-08  9.2982331834079E-08
     2  1.0000000000000E-02  8.2647307911237E-02 -5.1061626412678E-02
     3  2.0000000000000E-02  1.6465549999074E-01 -1.0117115905296E-01
     4  3.0000000000000E-02  2.4540170672779E-01 -1.4940345727340E-01
     5  4.0000000000000E-02  3.2429506482995E-01 -1.9488645948557E-01
     6  5.0000000000000E-02  4.0079151879354E-01 -2.3682567979227E-01
     7  6.0000000000000E-02  4.7440722085721E-01 -2.7452632261969E-01
     8  7.0000000000000E-02  5.4473012791253E-01 -3.0741233492570E-01
     9  8.0000000000000E-02  6.1142944782600E-01 -3.3504180854273E-01
    10  9.0000000000000E-02  6.7426265193665E-01 -3.5711825613224E-01
    11  1.0000000000000E-01  7.3307984333611E-01 -3.7349740977375E-01
    12  1.1000000000000E-01  7.8782534976401E-01 -3.8418932763532E-01
    13  1.2000000000000E-01  8.3853649322029E-01 -3.8935573739642E-01
    14  1.3000000000000E-01  8.8533957324618E-01 -3.8930269082983E-01
    15  1.4000000000000E-01  9.2844318474337E-01 -3.8446874782412E-01
    16  1.5000000000000E-01  9.6812907169704E-01 -3.7540904581803E-01
    17  1.6000000000000E-01  1.0047407928494E+00 -3.6277573796829E-01
    18  1.7000000000000E-01  1.0386705420080E+00 -3.4729539652896E-01
    19  1.8000000000000E-01  1.0703445222730E+00 -3.2974407343648E-01
    20  1.9000000000000E-01  1.1002073183207E+00 -3.1092078504091E-01
    21  2.0000000000000E-01  1.1287057426274E+00 -2.9162023997016E-01
    22  2.1000000000000E-01  1.1562726491728E+00 -2.7260565660365E-01
    23  2.2000000000000E-01  1.1833112111526E+00 -2.5458251863248E-01
    24  2.3000000000000E-01  1.2101801474188E+00 -2.3817409351347E-01
    25  2.4000000000000E-01  1.2371803560416E+00 -2.2389948986861E-01
    26  2.5000000000000E-01  1.2645433732707E+00 -2.1215495736563E-01
    27  2.6000000000000E-01  1.2924220233965E+00 -2.0319903838342E-01
    28  2.7000000000000E-01  1.3208835610723E+00 -1.9714206750919E-01
    29  2.8000000000000E-01  1.3499055343992E+00 -1.9394038590726E-01
    30  2.9000000000000E-01  1.3793745166134E+00 -1.9339549659619E-01
    31  3.0000000000000E-01  1.4090877688914E+00 -1.9515823780584E-01
    32  3.1000000000000E-01  1.4387578090901E+00 -1.9873789924451E-01
    33  3.2000000000000E-01  1.4680197737460E+00 -2.0351605480768E-01
    34  3.3000000000000E-01  1.4964413759471E+00 -2.0876473951597E-01
    35  3.4000000000000E-01  1.5235351822701E+00 -2.1366846265902E-01
    36  3.5000000000000E-01  1.5487728602208E+00 -2.1734942735548E-01
    37  3.6000000000000E-01  1.5716009856746E+00 -2.1889522274472E-01
    38  3.7000000000000E-01  1.5914579495790E+00 -2.1738817202812E-01
    39  3.8000000000000E-01  1.6077914661894E+00 -2.1193546020769E-01
    40  3.9000000000000E-01  1.6200761625442E+00 -2.0169913158436E-01
    41  4.0000000000000E-01  1.6278307214990E+00 -1.8592504008965E-01
    42  4.1000000000000E-01  1.6306340587486E+00 -1.6396985577400E-01
    43  4.2000000000000E-01  1.6281400377507E+00 -1.3532527790259E-01
    44  4.3000000000000E-01  1.6200902647271E+00 -9.9638677966168E-02
    45  4.4000000000000E-01  1.6063245579718E+00 -5.6729492587477E-02
    46  4.5000000000000E-01  1.5867887500905E+00 -6.6008041696099E-03
    47  4.6000000000000E-01  1.5615395567705E+00  5.0554317076540E-02
    48  4.7000000000000E-01  1.5307463291081E+00  1.1435198618848E-01
    49  4.8000000000000E-01  1.4946895960490E+00  1.8422230830446E-01
    50  4.9000000000000E-01  1.4537563965548E+00  2.5941976701057E-01
    51  5.0000000000000E-01  1.4084324950325E+00  3.3903898237647E-01
    52  5.1000000000000E-01  1.3592916656100E+00  4.2203546371209E-01
    53  5.2000000000000E-01  1.3069823183493E+00  5.0725083000592E-01
    54  5.3000000000000E-01  1.2522118208567E+00  5.9344183254934E-01
    55  5.4000000000000E-01  1.1957289396183E+00  6.7931239358216E-01
    56  5.5000000000000E-01  1.1383048846048E+00  7.6354777560455E-01
    57  5.6000000000000E-01  1.0807134864630E+00  8.4484992139406E-01
    58  5.7000000000000E-01  1.0237110665008E+00  9.2197295716698E-01
    59  5.8000000000000E-01  9.6801657465546E-01  9.9375783239273E-01
    60  5.9000000000000E-01  9.1429256916439E-01  1.0591650803623E+00
    61  6.0000000000000E-01  8.6312759361533E-01  1.1173047237344E+00
    62  6.1000000000000E-01  8.1502047283404E-01  1.1674624180988E+00
    63  6.2000000000000E-01  7.7036699951003E-01  1.2091210224234E+00
    64  6.3000000000000E-01  7.2944941985814E-01  1.2419769056392E+00
    65  6.4000000000000E-01  6.9242905067175E-01  1.2659504403511E+00
    66  6.5000000000000E-01  6.5934227390981E-01  1.2811902939316E+00
    67  6.6000000000000E-01  6.3010006085628E-01  1.2880712996672E+00
    68  6.7000000000000E-01  6.0449107852110E-01  1.2871858713980E+00
    69  6.8000000000000E-01  5.8218832910404E-01  1.2793291091591E+00
    70  6.9000000000000E-01  5.6275917191298E-01  1.2654779254557E+00
    71  7.0000000000000E-01  5.4567847899644E-01  1.2467646968042E+00
    72  7.1000000000000E-01  5.3034458375705E-01  1.2244461079599E+00
    73  7.2000000000000E-01  5.1609759860912E-01  1.1998680021081E+00
    74  7.3000000000000E-01  5.0223960578817E-01  1.1744271748617E+00
    75  7.4000000000000E-01  4.8805616683646E-01  1.1495311494585E+00
    76  7.5000000000000E-01  4.7283855286174E-01  1.1265570419866E+00
    77  7.6000000000000E-01  4.5590607075242E-01  1.1068106664707E+00
    78  7.7000000000000E-01  4.3662785103152E-01  1.0914870387537E+00
    79  7.8000000000000E-01  4.1444347136205E-01  1.0816334147094E+00
    80  7.9000000000000E-01  3.8888181579130E-01  1.0781159427454E+00
    81  8.0000000000000E-01  3.5957761305459E-01  1.0815909240255E+00
    82  8.1000000000000E-01  3.2628515657102E-01  1.0924815584733E+00
    83  8.2000000000000E-01  2.8888878262613E-01  1.1109609133383E+00
    84  8.3000000000000E-01  2.4740976968271E-01  1.1369416876154E+00
    85  8.4000000000000E-01  2.0200941847257E-01  1.1700731642439E+00
    86  8.5000000000000E-01  1.5298817686559E-01  1.2097455476563E+00
    87  8.6000000000000E-01  1.0078078262837E-01  1.2551016821861E+00
    88  8.7000000000000E-01  4.5947508053540E-02  1.3050559426198E+00
    89  8.8000000000000E-01 -1.0838300018865E-02  1.3583198874469E+00
    90  8.9000000000000E-01 -6.8806086125638E-02  1.4134340737108E+00
    91  9.0000000000000E-01 -1.2710696161174E-01  1.4688052552017E+00
    92  9.1000000000000E-01 -1.8483510549457E-01  1.5227480280665E+00
    93  9.2000000000000E-01 -2.4105113171155E-01  1.5735298542948E+00
    94  9.3000000000000E-01 -2.9480680355078E-01  1.6194182878455E+00
    95  9.4000000000000E-01 -3.4517043252342E-01  1.6587291535677E+00
    96  9.5000000000000E-01 -3.9125227332428E-01  1.6898743878632E+00
    97  9.6000000000000E-01 -4.3222921967304E-01  1.7114082436226E+00
    98  9.7000000000000E-01 -4.6736811805651E-01  1.7220705908278E+00
    99  9.8000000000000E-01 -4.9604704746255E-01  1.7208261077846E+00
   100  9.9000000000000E-01 -5.1777396241661E-01  1.7068982548388E+00
   101  1.0000000000000E+00 -5.3220216271571E-01  1.6797970501706E+00
   102  1.0100000000000E+00 -5.3914213448788E-01  1.6393398225892E+00
   103  1.0200000000000E+00 -5.3856940145147E-01  1.5856642951598E+00
   104  1.0300000000000E+00 -5.3062813003367E-01  1.5192335513421E+00
   105  1.0400000000000E+00 -5.1563034437958E-01  1.4408326466184E+00
   106  1.0500000000000E+00 -4.9405072432972E-01  1.3515568479232E+00
   107  1.0600000000000E+00 -4.6651707801280E-01  1.2527917047183E+00
   108  1.0700000000000E+00 -4.3379669724998E-01  1.1461853727385E+00
   109  1.0800000000000E+00 -3.9677891581381E-01  1.0336138193183E+00
   110  1.0900000000000E+00 -3.5645429411546E-01  9.1713973113333E-01
   111  1.1000000000000E+00 -3.1389094659102E-01  7.9896611654023E-01
   112  1.1100000000000E+00 -2.7020860730421E-01  6.8138574065916E-01
   113  1.1200000000000E+00 -2.2655109263775E-01  5.6672764745674E-01
   114  1.1300000000000E+00 -1.8405786359688E-01  4.5730210223711E-01
   115  1.1400000000000E+00 -1.4383546560113E-01  3.5534542390344E-01
   116  1.1500000000000E+00 -1.0693410684263E-01  2.6297468143426E-01
   117  1.1600000000000E+00 -7.4364094722360E-02  1.8221717009234E-01
   118  1.1700000000000E+00 -4.6961756398362E-02  1.1475618690202E-01
   119  1.1800000000000E+00 -2.5406007183081E-02  6.1963419555693E-02
   120  1.1900000000000E+00 -1.0229828055067E-02  2.4922050183802E-02
   121  1.2000000000000E+00 -1.7878147080895E-03  4.3539719771403E-03
   122  1.2100000000000E+00  8.9328244017970E-05 -2.1766333919315E-04
   123  1.2200000000000E+00 -1.6053425885448E-05  3.9102604265566E-05
   124  1.23  0. -0.
   125  1.24  0.  0.
   126  1.25  0.  0.
   127  1.26  0.  0.
   128  1.27  0.  0.
   129  1.28  0.  0.
   130  1.29  0.  0.
   131  1.30  0.  0.
   132  1.31  0.  0.
   133  1.32  0.  0.
   134  1.33  0.  0.
   135  1.34  0.  0.
   136  1.35  0.  0.
   137  1.36  0.  0.
   138  1.37  0.  0.
   139  1.38  0.  0.
   140  1.39  0.  0.
   141  1.40  0.  0.
   142  1.41  0.  0.
   143  1.42  0.  0.
   144  1.43  0.  0.
   145  1.44  0.  0.
   146  1.45  0.  0.
   147  1.46  0.  0.
   148  1.47  0.  0.
   149  1.48  0.  0.
   150  1.49  0.  0.
   151  1.50  0.  0.
   152  1.51  0.  0.
   153  1.52  0.  0.
   154  1.53  0.  0.
   155  1.54  0.  0.
   156  1.55  0.  0.
   157  1.56  0.  0.
   158  1.57  0.  0.
   159  1.58  0.  0.
   160  1.59  0.  0.
   161  1.60  0.  0.
   162  1.61  0.  0.
   163  1.62  0.  0.
   164  1.63  0.  0.
   165  1.64  0.  0.
   166  1.65  0.  0.
   167  1.66  0.  0.
   168  1.67  0.  0.
   169  1.68  0.  0.
   170  1.69  0.  0.
   171  1.70  0.  0.
   172  1.71  0.  0.
   173  1.72  0.  0.
   174  1.73  0.  0.
   175  1.74  0.  0.
   176  1.75  0.  0.
   177  1.76  0.  0.
   178  1.77  0.  0.
   179  1.78  0.  0.
   180  1.79  0.  0.
   181  1.80  0.  0.
   182  1.81  0.  0.
   183  1.82  0.  0.
   184  1.83  0.  0.
   185  1.84  0.  0.
   186  1.85  0.  0.
   187  1.86  0.  0.
   188  1.87  0.  0.
   189  1.88  0.  0.
   190  1.89  0.  0.
   191  1.90  0.  0.
   192  1.91  0.  0.
   193  1.92  0.  0.
   194  1.93  0.  0.
   195  1.94  0.  0.
   196  1.95  0.  0.
   197  1.96  0.  0.
   198  1.97  0.  0.
   199  1.98  0.  0.
   200  1.99  0.  0.
   201  2.00  0.  0.
   202  2.01  0.  0.
   203  2.02  0.  0.
   204  2.03  0.  0.
   205  2.04  0.  0.
   206  2.05  0.  0.
   207  2.06  0.  0.
   208  2.07  0.  0.
   209  2.08  0.  0.
   210  2.09  0.  0.
   211  2.10  0.  0.
   212  2.11  0.  0.
   213  2.12  0.  0.
   214  2.13  0.  0.
   215  2.14  0.  0.
   216  2.15  0.  0.
   217  2.16  0.  0.
   218  2.17  0.  0.
   219  2.18  0.  0.
   220  2.19  0.  0.
   221  2.20  0.  0.
   222  2.21  0.  0.
   223  2.22  0.  0.
   224  2.23  0.  0.
   225  2.24  0.  0.
   226  2.25  0.  0.
   227  2.26  0.  0.
   228  2.27  0.  0.
   229  2.28  0.  0.
   230  2.29  0.  0.
   231  2.30  0.  0.
   232  2.31  0.  0.
   233  2.32  0.  0.
   234  2.33  0.  0.
   235  2.34  0.  0.
   236  2.35  0.  0.
   237  2.36  0.  0.
   238  2.37  0.  0.
   239  2.38  0.  0.
   240  2.39  0.  0.
   241  2.40  0.  0.
   242  2.41  0.  0.
   243  2.42  0.  0.
   244  2.43  0.  0.
   245  2.44  0.  0.
   246  2.45  0.  0.
   247  2.46  0.  0.
   248  2.47  0.  0.
   249  2.48  0.  0.
   250  2.49  0.  0.
   251  2.50  0.  0.
   252  2.51  0.  0.
   253  2.52  0.  0.
   254  2.53  0.  0.
   255  2.54  0.  0.
   256  2.55  0.  0.
   257  2.56  0.  0.
   258  2.57  0.  0.
   259  2.58  0.  0.
   260  2.59  0.  0.
   261  2.60  0.  0.
   262  2.61  0.  0.
   263  2.62  0.  0.
   264  2.63  0.  0.
   265  2.64  0.  0.
   266  2.65  0.  0.
   267  2.66  0.  0.
   268  2.67  0.  0.
   269  2.68  0.  0.
   270  2.69  0.  0.
   271  2.70  0.  0.
   272  2.71  0.  0.
   273  2.72  0.  0.
   274  2.73  0.  0.
   275  2.74  0.  0.
   276  2.75  0.  0.
   277  2.76  0.  0.
   278  2.77  0.  0.
   279  2.78  0.  0.
   280  2.79  0.  0.
   281  2.80  0.  0.
   282  2.81  0.  0.
   283  2.82  0.  0.
   284  2.83  0.  0.
   285  2.84  0.  0.
   286  2.85  0.  0.
   287  2.86  0.  0.
   288  2.87  0.  0.
   289  2.88  0.  0.
   290  2.89  0.  0.
   291  2.90  0.  0.
   292  2.91  0.  0.
   293  2.92  0.  0.
   294  2.93  0.  0.
   295  2.94  0.  0.
   296  2.95  0.  0.
   297  2.96  0.  0.
   298  2.97  0.  0.
   299  2.98  0.  0.
   300  2.99  0.  0.
   301  3.00  0.  0.
   302  3.01  0.  0.
   303  3.02  0.  0.
   304  3.03  0.  0.
   305  3.04  0.  0.
   306  3.05  0.  0.
   307  3.06  0.  0.
   308  3.07  0.  0.
   309  3.08  0.  0.
   310  3.09  0.  0.
   311  3.10  0.  0.
   312  3.11  0.  0.
   313  3.12  0.  0.
   314  3.13  0.  0.
   315  3.14  0.  0.
   316  3.15  0.  0.
   317  3.16  0.  0.
   318  3.17  0.  0.
   319  3.18  0.  0.
   320  3.19  0.  0.
   321  3.20  0.  0.
   322  3.21  0.  0.
   323  3.22  0.  0.
   324  3.23  0.  0.
   325  3.24  0.  0.
   326  3.25  0.  0.
   327  3.26  0.  0.
   328  3.27  0.  0.
   329  3.28  0.  0.
   330  3.29  0.  0.
   331  3.30  0.  0.
   332  3.31  0.  0.
   333  3.32  0.  0.
   334  3.33  0.  0.
   335  3.34  0.  0.
   336  3.35  0.  0.
   337  3.36  0.  0.
   338  3.37  0.  0.
   339  3.38  0.  0.
   340  3.39  0.  0.
   341  3.40  0.  0.
   342  3.41  0.  0.
   343  3.42  0.  0.
   344  3.43  0.  0.
   345  3.44  0.  0.
   346  3.45  0.  0.
   347  3.46  0.  0.
   348  3.47  0.  0.
   349  3.48  0.  0.
   350  3.49  0.  0.
   351  3.50  0.  0.
   352  3.51  0.  0.
   353  3.52  0.  0.
   354  3.53  0.  0.
   355  3.54  0.  0.
   356  3.55  0.  0.
   357  3.56  0.  0.
   358  3.57  0.  0.
   359  3.58  0.  0.
   360  3.59  0.  0.
   361  3.60  0.  0.
   362  3.61  0.  0.
   363  3.62  0.  0.
   364  3.63  0.  0.
   365  3.64  0.  0.
   366  3.65  0.  0.
   367  3.66  0.  0.
   368  3.67  0.  0.
   369  3.68  0.  0.
   370  3.69  0.  0.
   371  3.70  0.  0.
   372  3.71  0.  0.
   373  3.72  0.  0.
   374  3.73  0.  0.
   375  3.74  0.  0.
   376  3.75  0.  0.
   377  3.76  0.  0.
   378  3.77  0.  0.
   379  3.78  0.  0.
   380  3.79  0.  0.
   381  3.80  0.  0.
   382  3.81  0.  0.
   383  3.82  0.  0.
   384  3.83  0.  0.
   385  3.84  0.  0.
   386  3.85  0.  0.
   387  3.86  0.  0.
   388  3.87  0.  0.
   389  3.88  0.  0.
   390  3.89  0.  0.
   391  3.90  0.  0.
   392  3.91  0.  0.
   393  3.92  0.  0.
   394  3.93  0.  0.
   395  3.94  0.  0.
   396  3.95  0.  0.
   397  3.96  0.  0.
   398  3.97  0.  0.
   399  3.98  0.  0.
   400  3.99  0.  0.
   401  4.00  0.  0.
   402  4.01  0.  0.
   403  4.02  0.  0.
   404  4.03  0.  0.
   405  4.04  0.  0.
   406  4.05  0.  0.
   407  4.06  0.  0.
   408  4.07  0.  0.
   409  4.08  0.  0.
   410  4.09  0.  0.
   411  4.10  0.  0.
   412  4.11  0.  0.
   413  4.12  0.  0.
   414  4.13  0.  0.
   415  4.14  0.  0.
   416  4.15  0.  0.
   417  4.16  0.  0.
   418  4.17  0.  0.
   419  4.18  0.  0.
   420  4.19  0.  0.
   421  4.20  0.  0.
   422  4.21  0.  0.
   423  4.22  0.  0.
   424  4.23  0.  0.
   425  4.24  0.  0.
   426  4.25  0.  0.
   427  4.26  0.  0.
   428  4.27  0.  0.
   429  4.28  0.  0.
   430  4.29  0.  0.
   431  4.30  0.  0.
   432  4.31  0.  0.
   433  4.32  0.  0.
   434  4.33  0.  0.
   435  4.34  0.  0.
   436  4.35  0.  0.
   437  4.36  0.  0.
   438  4.37  0.  0.
   439  4.38  0.  0.
   440  4.39  0.  0.
   441  4.40  0.  0.
   442  4.41  0.  0.
   443  4.42  0.  0.
   444  4.43  0.  0.
   445  4.44  0.  0.
   446  4.45  0.  0.
   447  4.46  0.  0.
   448  4.47  0.  0.
   449  4.48  0.  0.
   450  4.49  0.  0.
   451  4.50  0.  0.
   452  4.51  0.  0.
   453  4.52  0.  0.
   454  4.53  0.  0.
   455  4.54  0.  0.
   456  4.55  0.  0.
   457  4.56  0.  0.
   458  4.57  0.  0.
   459  4.58  0.  0.
   460  4.59  0.  0.
   461  4.60  0.  0.
   462  4.61  0.  0.
   463  4.62  0.  0.
   464  4.63  0.  0.
   465  4.64  0.  0.
   466  4.65  0.  0.
   467  4.66  0.  0.
   468  4.67  0.  0.
   469  4.68  0.  0.
   470  4.69  0.  0.
   471  4.70  0.  0.
   472  4.71  0.  0.
   473  4.72  0.  0.
   474  4.73  0.  0.
   475  4.74  0.  0.
   476  4.75  0.  0.
   477  4.76  0.  0.
   478  4.77  0.  0.
   479  4.78  0.  0.
   480  4.79  0.  0.
   481  4.80  0.  0.
   482  4.81  0.  0.
   483  4.82  0.  0.
   484  4.83  0.  0.
   485  4.84  0.  0.
   486  4.85  0.  0.
   487  4.86  0.  0.
   488  4.87  0.  0.
   489  4.88  0.  0.
   490  4.89  0.  0.
   491  4.90  0.  0.
   492  4.91  0.  0.
   493  4.92  0.  0.
   494  4.93  0.  0.
   495  4.94  0.  0.
   496  4.95  0.  0.
   497  4.96  0.  0.
   498  4.97  0.  0.
   499  4.98  0.  0.
   500  4.99  0.  0.
   501  5.00  0.  0.
   502  5.01  0.  0.
   503  5.02  0.  0.
   504  5.03  0.  0.
   505  5.04  0.  0.
   506  5.05  0.  0.
   507  5.06  0.  0.
   508  5.07  0.  0.
   509  5.08  0.  0.
   510  5.09  0.  0.
   511  5.10  0.  0.
   512  5.11  0.  0.
   513  5.12  0.  0.
   514  5.13  0.  0.
   515  5.14  0.  0.
   516  5.15  0.  0.
   517  5.16  0.  0.
   518  5.17  0.  0.
   519  5.18  0.  0.
   520  5.19  0.  0.
   521  5.20  0.  0.
   522  5.21  0.  0.
   523  5.22  0.  0.
   524  5.23  0.  0.
   525  5.24  0.  0.
   526  5.25  0.  0.
   527  5.26  0.  0.
   528  5.27  0.  0.
   529  5.28  0.  0.
   530  5.29  0.  0.
   531  5.30  0.  0.
   532  5.31  0.  0.
   533  5.32  0.  0.
   534  5.33  0.  0.
   535  5.34  0.  0.
   536  5.35  0.  0.
   537  5.36  0.  0.
   538  5.37  0.  0.
   539  5.38  0.  0.
   540  5.39  0.  0.
   541  5.40  0.  0.
   542  5.41  0.  0.
   543  5.42  0.  0.
   544  5.43  0.  0.
   545  5.44  0.  0.
   546  5.45  0.  0.
   547  5.46  0.  0.
   548  5.47  0.  0.
   549  5.48  0.  0.
   550  5.49  0.  0.
   551  5.50  0.  0.
   552  5.51  0.  0.
   553  5.52  0.  0.
   554  5.53  0.  0.
   555  5.54  0.  0.
   556  5.55  0.  0.
   557  5.56  0.  0.
   558  5.57  0.  0.
   559  5.58  0.  0.
   560  5.59  0.  0.
   561  5.60  0.  0.
   562  5.61  0.  0.
   563  5.62  0.  0.
   564  5.63  0.  0.
   565  5.64  0.  0.
   566  5.65  0.  0.
   567  5.66  0.  0.
   568  5.67  0.  0.
   569  5.68  0.  0.
   570  5.69  0.  0.
   571  5.70  0.  0.
   572  5.71  0.  0.
   573  5.72  0.  0.
   574  5.73  0.  0.
   575  5.74  0.  0.
   576  5.75  0.  0.
   577  5.76  0.  0.
   578  5.77  0.  0.
   579  5.78  0.  0.
   580  5.79  0.  0.
   581  5.80  0.  0.
   582  5.81  0.  0.
   583  5.82  0.  0.
   584  5.83  0.  0.
   585  5.84  0.  0.
   586  5.85  0.  0.
   587  5.86  0.  0.
   588  5.87  0.  0.
   589  5.88  0.  0.
   590  5.89  0.  0.
   591  5.90  0.  0.
   592  5.91  0.  0.
   593  5.92  0.  0.
   594  5.93  0.  0.
   595  5.94  0.  0.
   596  5.95  0.  0.
   597  5.96  0.  0.
   598  5.97  0.  0.
   599  5.98  0.  0.
   600  5.99  0.  0.
   1                        -3.5465636484010E+00 -7.7753319041197E-01
     1  0.0000000000000E+00 -8.3084063240424E-09 -4.7413494103088E-09
     2  1.0000000000000E-02  2.6516130563809E-03 -1.8839376688227E-03
     3  2.0000000000000E-02  1.0588320765291E-02 -7.4987616316667E-03
     4  3.0000000000000E-02  2.3755760672918E-02 -1.6734004370785E-02
     5  4.0000000000000E-02  4.2063442588513E-02 -2.9407220248112E-02
     6  5.0000000000000E-02  6.5384945159971E-02 -4.5266490621387E-02
     7  6.0000000000000E-02  9.3558240973166E-02 -6.3993938715270E-02
     8  7.0000000000000E-02  1.2638619649635E-01 -8.5210257747834E-02
     9  8.0000000000000E-02  1.6363730149941E-01 -1.0848025107149E-01
    10  9.0000000000000E-02  2.0504668749211E-01 -1.3331937449696E-01
    11  1.0000000000000E-01  2.5031749581374E-01 -1.5920125816175E-01
    12  1.1000000000000E-01  2.9912265300468E-01 -1.8556616816426E-01
    13  1.2000000000000E-01  3.5110710392584E-01 -2.1183034687552E-01
    14  1.3000000000000E-01  4.0589054188115E-01 -2.3739614580282E-01
    15  1.4000000000000E-01  4.6307066005111E-01 -2.6166283682759E-01
    16  1.5000000000000E-01  5.2222693035877E-01 -2.8403795754412E-01
    17  1.6000000000000E-01  5.8292489511988E-01 -3.0394901546967E-01
    18  1.7000000000000E-01  6.4472093428534E-01 -3.2085534544857E-01
    19  1.8000000000000E-01  7.0716744768325E-01 -3.3425988611753E-01
    20  1.9000000000000E-01  7.6981836840939E-01 -3.4372061638919E-01
    21  2.0000000000000E-01  8.3223490143845E-01 -3.4886137308976E-01
    22  2.1000000000000E-01  8.9399136167379E-01 -3.4938175762857E-01
    23  2.2000000000000E-01  9.5468096901731E-01 -3.4506583421311E-01
    24  2.3000000000000E-01  1.0139214455380E+00 -3.3578932577277E-01
    25  2.4000000000000E-01  1.0713602522372E+00 -3.2152502727079E-01
    26  2.5000000000000E-01  1.1266793008813E+00 -3.0234617999426E-01
    27  2.6000000000000E-01  1.1795989803464E+00 -2.7842758487828E-01
    28  2.7000000000000E-01  1.2298813471093E+00 -2.5004427770953E-01
    29  2.8000000000000E-01  1.2773323459447E+00 -2.1756764352041E-01
    30  2.9000000000000E-01  1.3218029492843E+00 -1.8145891056824E-01
    31  3.0000000000000E-01  1.3631891316020E+00 -1.4226003453986E-01
    32  3.1000000000000E-01  1.4014306278840E+00 -1.0058205920431E-01
    33  3.2000000000000E-01  1.4365084618153E+00 -5.7091118514164E-02
    34  3.3000000000000E-01  1.4684412686418E+00 -1.2492324721140E-02
    35  3.4000000000000E-01  1.4972804785060E+00  3.2488135164998E-02
    36  3.5000000000000E-01  1.5231044670172E+00  7.7122298983779E-02
    37  3.6000000000000E-01  1.5460118194688E+00  1.2070066345661E-01
    38  3.7000000000000E-01  1.5661138920030E+00  1.6255283479490E-01
    39  3.8000000000000E-01  1.5835268857162E+00  2.0206803411977E-01
    40  3.9000000000000E-01  1.5983636768580E+00  2.3871486648970E-01
    41  4.0000000000000E-01  1.6107256667114E+00  2.7205974918534E-01
    42  4.1000000000000E-01  1.6206949274131E+00  3.0178339942529E-01
    43  4.2000000000000E-01  1.6283269241083E+00  3.2769480474884E-01
    44  4.3000000000000E-01  1.6336440888788E+00  3.4974214120697E-01
    45  4.4000000000000E-01  1.6366305076081E+00  3.6802016495394E-01
    46  4.5000000000000E-01  1.6372279574012E+00  3.8277368091801E-01
    47  4.6000000000000E-01  1.6353334997409E+00  3.9439678641972E-01
    48  4.7000000000000E-01  1.6307987939261E+00  4.0342769578407E-01
    49  4.8000000000000E-01  1.6234312474835E+00  4.1053907149035E-01
    50  4.9000000000000E-01  1.6129970664456E+00  4.1652391507203E-01
    51  5.0000000000000E-01  1.5992262101489E+00  4.2227720326886E-01
    52  5.1000000000000E-01  1.5818191942346E+00  4.2877358799457E-01
    53  5.2000000000000E-01  1.5604556237015E+00  4.3704160847254E-01
    54  5.3000000000000E-01  1.5348042771073E+00  4.4813498630468E-01
    55  5.4000000000000E-01  1.5045345053387E+00  4.6310168522528E-01
    56  5.5000000000000E-01  1.4693286557290E+00  4.8295151300238E-01
    57  5.6000000000000E-01  1.4288951865401E+00  5.0862311985079E-01
    58  5.7000000000000E-01  1.3829820996648E+00  5.4095130272911E-01
    59  5.8000000000000E-01  1.3313902923078E+00  5.8063555548118E-01
    60  5.9000000000000E-01  1.2739864125849E+00  6.2821080907980E-01
    61  6.0000000000000E-01  1.2107148003264E+00  6.8402128310652E-01
    62  6.1000000000000E-01  1.1416081034080E+00  7.4819831872111E-01
    63  6.2000000000000E-01  1.0667961818103E+00  8.2064298523795E-01
    64  6.3000000000000E-01  9.8651294606709E-01  9.0101414838000E-01
    65  6.4000000000000E-01  9.0110082315320E-01  9.8872256049875E-01
    66  6.5000000000000E-01  8.1101260013201E-01  1.0829313844941E+00
    67  6.6000000000000E-01  7.1681046262279E-01  1.1825633975250E+00
    68  6.7000000000000E-01  6.1916211960298E-01  1.2863149421896E+00
    69  6.8000000000000E-01  5.1883398620884E-01  1.3926765064824E+00
    70  6.9000000000000E-01  4.1668147976290E-01  1.4999596247471E+00
    71  7.0000000000000E-01  3.1363656883049E-01  1.6063296054399E+00
    72  7.1000000000000E-01  2.1069279815341E-01  1.7098434133626E+00
    73  7.2000000000000E-01  1.0888809131465E-01  1.8084918695010E+00
    74  7.3000000000000E-01  9.2857054645387E-03  1.9002451859218E+00
    75  7.4000000000000E-01 -8.7046223926070E-02  1.9831007310579E+00
    76  7.5000000000000E-01 -1.7905605765076E-01  2.0551318263467E+00
    77  7.6000000000000E-01 -2.6573041617520E-01  2.1145363120276E+00
    78  7.7000000000000E-01 -3.4611577573965E-01  2.1596835905916E+00
    79  7.8000000000000E-01 -4.1933933076852E-01  2.1891588625959E+00
    80  7.9000000000000E-01 -4.8462856192759E-01  2.2018033120111E+00
    81  8.0000000000000E-01 -5.4132897106230E-01  2.1967490766021E+00
    82  8.1000000000000E-01 -5.8891948199109E-01  2.1734479516339E+00
    83  8.2000000000000E-01 -6.2702505893327E-01  2.1316929200160E+00
    84  8.3000000000000E-01 -6.5542616095507E-01  2.0716317753843E+00
    85  8.4000000000000E-01 -6.7406472953548E-01  1.9937723022557E+00
    86  8.5000000000000E-01 -6.8304649509851E-01  1.8989786941256E+00
    87  8.6000000000000E-01 -6.8263948471708E-01  1.7884591204322E+00
    88  8.7000000000000E-01 -6.7326871448246E-01  1.6637445903987E+00
    89  8.8000000000000E-01 -6.5550715338391E-01  1.5266594992724E+00
    90  8.9000000000000E-01 -6.3006314798043E-01  1.3792844736856E+00
    91  9.0000000000000E-01 -5.9776459568156E-01  1.2239123510875E+00
    92  9.1000000000000E-01 -5.5954024617328E-01  1.0629983270401E+00
    93  9.2000000000000E-01 -5.1639859266869E-01  8.9910547768072E-01
    94  9.3000000000000E-01 -4.6940488473999E-01  7.3484700752501E-01
    95  9.4000000000000E-01 -4.1965685030839E-01  5.7282668050494E-01
    96  9.5000000000000E-01 -3.6825975415688E-01  4.1557896114150E-01
    97  9.6000000000000E-01 -3.1630144275833E-01  2.6551042055253E-01
    98  9.7000000000000E-01 -2.6482802944557E-01  1.2484394723319E-01
    99  9.8000000000000E-01 -2.1482085970832E-01 -4.4327548733083E-03
   100  9.9000000000000E-01 -1.6717536389597E-01 -1.2061299757550E-01
   101  1.0000000000000E+00 -1.2268235464523E-01 -2.2231002383340E-01
   102  1.0100000000000E+00 -8.2012260249744E-02 -3.0848793649512E-01
   103  1.0200000000000E+00 -4.5702704728788E-02 -3.7848377507242E-01
   104  1.0300000000000E+00 -1.4149752726450E-02 -4.3202010681044E-01
   105  1.0400000000000E+00  1.2396964687763E-02 -4.6920774930001E-01
   106  1.0500000000000E+00  3.3835135946140E-02 -4.9053850571673E-01
   107  1.0600000000000E+00  5.0206671526041E-02 -4.9686806322998E-01
   108  1.0700000000000E+00  6.1690740264502E-02 -4.8938947196989E-01
   109  1.0800000000000E+00  6.8593166105275E-02 -4.6959787983259E-01
   110  1.0900000000000E+00  7.1332514957137E-02 -4.3924743878944E-01
   111  1.1000000000000E+00  7.0423295163825E-02 -4.0030151514567E-01
   112  1.1100000000000E+00  6.6456776910184E-02 -3.5487752303483E-01
   113  1.1200000000000E+00  6.0080003015045E-02 -3.0518785132461E-01
   114  1.1300000000000E+00  5.1973615814407E-02 -2.5347846785147E-01
   115  1.1400000000000E+00  4.2829148987809E-02 -2.0196683948100E-01
   116  1.1500000000000E+00  3.3323668001075E-02 -1.5277626885809E-01
   117  1.1600000000000E+00  2.4076671806371E-02 -1.0784263534211E-01
   118  1.1700000000000E+00  1.5693132491850E-02 -6.8964036423781E-02
   119  1.1800000000000E+00  8.7129485004448E-03 -3.7699016937533E-02
   120  1.1900000000000E+00  3.5825262076717E-03 -1.5307951087584E-02
   121  1.2000000000000E+00  6.3637269407115E-04 -2.6925807412694E-03
   122  1.2100000000000E+00 -3.2249492308764E-05  1.3546705702461E-04
   123  1.2200000000000E+00  5.7709486108628E-06 -2.4290431436456E-05
   124  1.23  0. -0.
   125  1.24  0.  0.
   126  1.25  0.  0.
   127  1.26  0.  0.
   128  1.27  0.  0.
   129  1.28  0.  0.
   130  1.29  0.  0.
   131  1.30  0.  0.
   132  1.31  0.  0.
   133  1.32  0.  0.
   134  1.33  0.  0.
   135  1.34  0.  0.
   136  1.35  0.  0.
   137  1.36  0.  0.
   138  1.37  0.  0.
   139  1.38  0.  0.
   140  1.39  0.  0.
   141  1.40  0.  0.
   142  1.41  0.  0.
   143  1.42  0.  0.
   144  1.43  0.  0.
   145  1.44  0.  0.
   146  1.45  0.  0.
   147  1.46  0.  0.
   148  1.47  0.  0.
   149  1.48  0.  0.
   150  1.49  0.  0.
   151  1.50  0.  0.
   152  1.51  0.  0.
   153  1.52  0.  0.
   154  1.53  0.  0.
   155  1.54  0.  0.
   156  1.55  0.  0.
   157  1.56  0.  0.
   158  1.57  0.  0.
   159  1.58  0.  0.
   160  1.59  0.  0.
   161  1.60  0.  0.
   162  1.61  0.  0.
   163  1.62  0.  0.
   164  1.63  0.  0.
   165  1.64  0.  0.
   166  1.65  0.  0.
   167  1.66  0.  0.
   168  1.67  0.  0.
   169  1.68  0.  0.
   170  1.69  0.  0.
   171  1.70  0.  0.
   172  1.71  0.  0.
   173  1.72  0.  0.
   174  1.73  0.  0.
   175  1.74  0.  0.
   176  1.75  0.  0.
   177  1.76  0.  0.
   178  1.77  0.  0.
   179  1.78  0.  0.
   180  1.79  0.  0.
   181  1.80  0.  0.
   182  1.81  0.  0.
   183  1.82  0.  0.
   184  1.83  0.  0.
   185  1.84  0.  0.
   186  1.85  0.  0.
   187  1.86  0.  0.
   188  1.87  0.  0.
   189  1.88  0.  0.
   190  1.89  0.  0.
   191  1.90  0.  0.
   192  1.91  0.  0.
   193  1.92  0.  0.
   194  1.93  0.  0.
   195  1.94  0.  0.
   196  1.95  0.  0.
   197  1.96  0.  0.
   198  1.97  0.  0.
   199  1.98  0.  0.
   200  1.99  0.  0.
   201  2.00  0.  0.
   202  2.01  0.  0.
   203  2.02  0.  0.
   204  2.03  0.  0.
   205  2.04  0.  0.
   206  2.05  0.  0.
   207  2.06  0.  0.
   208  2.07  0.  0.
   209  2.08  0.  0.
   210  2.09  0.  0.
   211  2.10  0.  0.
   212  2.11  0.  0.
   213  2.12  0.  0.
   214  2.13  0.  0.
   215  2.14  0.  0.
   216  2.15  0.  0.
   217  2.16  0.  0.
   218  2.17  0.  0.
   219  2.18  0.  0.
   220  2.19  0.  0.
   221  2.20  0.  0.
   222  2.21  0.  0.
   223  2.22  0.  0.
   224  2.23  0.  0.
   225  2.24  0.  0.
   226  2.25  0.  0.
   227  2.26  0.  0.
   228  2.27  0.  0.
   229  2.28  0.  0.
   230  2.29  0.  0.
   231  2.30  0.  0.
   232  2.31  0.  0.