B     ONCVPSP-4.0.1  r_core=   1.20622   1.20622
      5.0000      3.0000      250925    zatom,zion,pspd
     8   -1012   1     4   600     0    pspcod,pspxc,lmax,lloc,mmax,r2well
  5.99000000  2.90000000  0.00000000    rchrg fchrg qchrg
     2     2     0     0    nproj
     3     1           extension_switch
     3     0     0    nprojso
   0                         7.9783182415657E+00  1.0854102741428E+00
     1  0.0000000000000E+00 -5.4924569226067E-08  9.4576204257013E-08
     2  1.0000000000000E-02  8.2806790334472E-02 -5.1249647079824E-02
     3  2.0000000000000E-02  1.6496697935208E-01 -1.0153682978172E-01
     4  3.0000000000000E-02  2.4585047435052E-01 -1.4992641544713E-01
     5  4.0000000000000E-02  3.2485970469927E-01 -1.9553709464684E-01
     6  5.0000000000000E-02  4.0144465978583E-01 -2.3756621778461E-01
     7  6.0000000000000E-02  4.7511650026738E-01 -2.7531221236248E-01
     8  7.0000000000000E-02  5.4545933412164E-01 -3.0819388999268E-01
     9  8.0000000000000E-02  6.1213980391510E-01 -3.3576604681752E-01
    10  9.0000000000000E-02  6.7491419725797E-01 -3.5773087381020E-01
    11  1.0000000000000E-01  7.3363286665674E-01 -3.7394482110631E-01
    12  1.1000000000000E-01  7.8824182571365E-01 -3.8442069923892E-01
    13  1.2000000000000E-01  8.3878147346874E-01 -3.8932494576733E-01
    14  1.3000000000000E-01  8.8538248512189E-01 -3.8897013393249E-01
    15  1.4000000000000E-01  9.2825899284597E-01 -3.8380294619246E-01
    16  1.5000000000000E-01  9.6769926236769E-01 -3.7438797538376E-01
    17  1.6000000000000E-01  1.0040541470092E+00 -3.6138784559590E-01
    18  1.7000000000000E-01  1.0377236686801E+00 -3.4554025971232E-01
    19  1.8000000000000E-01  1.0691421328526E+00 -3.2763267746120E-01
    20  1.9000000000000E-01  1.0987622301041E+00 -3.0847540375434E-01
    21  2.0000000000000E-01  1.1270386089874E+00 -2.8887391970970E-01
    22  2.1000000000000E-01  1.1544114227867E+00 -2.6960131637270E-01
    23  2.2000000000000E-01  1.1812903555617E+00 -2.5137169283604E-01
    24  2.3000000000000E-01  1.2080396206389E+00 -2.3481535603064E-01
    25  2.4000000000000E-01  1.2349643976731E+00 -2.2045660952981E-01
    26  2.5000000000000E-01  1.2622991333250E+00 -2.0869484463390E-01
    27  2.6000000000000E-01  1.2901980766333E+00 -1.9978955087621E-01
    28  2.7000000000000E-01  1.3187283548457E+00 -1.9384974766300E-01
    29  2.8000000000000E-01  1.3478658206872E+00 -1.9082820737266E-01
    30  2.9000000000000E-01  1.3774938199668E+00 -1.9052069672357E-01
    31  3.0000000000000E-01  1.4074049414220E+00 -1.9257031178791E-01
    32  3.1000000000000E-01  1.4373057213465E+00 -1.9647682715197E-01
    33  3.2000000000000E-01  1.4668241864424E+00 -2.0161082600059E-01
    34  3.3000000000000E-01  1.4955200321335E+00 -2.0723222992839E-01
    35  3.4000000000000E-01  1.5228971528161E+00 -2.1251270950385E-01
    36  3.5000000000000E-01  1.5484181676329E+00 -2.1656133321480E-01
    37  3.6000000000000E-01  1.5715205225200E+00 -2.1845270718503E-01
    38  3.7000000000000E-01  1.5916336984101E+00 -2.1725677424610E-01
    39  3.8000000000000E-01  1.6081970181561E+00 -2.1206938123492E-01
    40  3.9000000000000E-01  1.6206775221425E+00 -2.0204268973901E-01
    41  4.0000000000000E-01  1.6285873754473E+00 -1.8641449914598E-01
    42  4.1000000000000E-01  1.6315002781143E+00 -1.6453557219374E-01
    43  4.2000000000000E-01  1.6290663744492E+00 -1.3589410187697E-01
    44  4.3000000000000E-01  1.6210251966611E+00 -1.0013653335213E-01
    45  4.4000000000000E-01  1.6072162315833E+00 -5.7084053426294E-02
    46  4.5000000000000E-01  1.5875867651702E+00 -6.7441806243690E-03
    47  4.6000000000000E-01  1.5621967361390E+00  5.0682972640305E-02
    48  4.7000000000000E-01  1.5312204153494E+00  1.1480404151554E-01
    49  4.8000000000000E-01  1.4949448188711E+00  1.8503746688045E-01
    50  4.9000000000000E-01  1.4537648575610E+00  2.6062421551680E-01
    51  5.0000000000000E-01  1.4081753216206E+00  3.4064393941118E-01
    52  5.1000000000000E-01  1.3587598922621E+00  4.2403618775290E-01
    53  5.2000000000000E-01  1.3061774615220E+00  5.0962613104258E-01
    54  5.3000000000000E-01  1.2511461228314E+00  5.9615411658521E-01
    55  5.4000000000000E-01  1.1944252667220E+00  6.8230825274165E-01
    56  5.5000000000000E-01  1.1367962758899E+00  7.6675911938941E-01
    57  5.6000000000000E-01  1.0790423598953E+00  8.4819562723565E-01
    58  5.7000000000000E-01  1.0219281006210E+00  9.2536100136671E-01
    59  5.8000000000000E-01  9.6617929421090E-01  9.9708784637195E-01
    60  5.9000000000000E-01  9.1246367301514E-01  1.0623312623793E+00
    61  6.0000000000000E-01  8.6137307199494E-01  1.1201990233563E+00
    62  6.1000000000000E-01  8.1340756850099E-01  1.1699779001770E+00
    63  6.2000000000000E-01  7.6896207321041E-01  1.2111553094852E+00
    64  6.3000000000000E-01  7.2831578463051E-01  1.2434355927630E+00
    65  6.4000000000000E-01  6.9162484170964E-01  1.2667503749518E+00
    66  6.5000000000000E-01  6.5891842085889E-01  1.2812626145481E+00
    67  6.6000000000000E-01  6.3009842752797E-01  1.2873641328261E+00
    68  6.7000000000000E-01  6.0494283108186E-01  1.2856665938396E+00
    69  6.8000000000000E-01  5.8311258793801E-01  1.2769860939484E+00
    70  6.9000000000000E-01  5.6416199470643E-01  1.2623217044856E+00
    71  7.0000000000000E-01  5.4755221336523E-01  1.2428284885379E+00
    72  7.1000000000000E-01  5.3266761718713E-01  1.2197856775114E+00
    73  7.2000000000000E-01  5.1883452191076E-01  1.1945608403868E+00
    74  7.3000000000000E-01  5.0534179401209E-01  1.1685710039450E+00
    75  7.4000000000000E-01  4.9146276902518E-01  1.1432417819967E+00
    76  7.5000000000000E-01  4.7647786949244E-01  1.1199656426565E+00
    77  7.6000000000000E-01  4.5969728564332E-01  1.1000604826644E+00
    78  7.7000000000000E-01  4.4048307320838E-01  1.0847296852159E+00
    79  7.8000000000000E-01  4.1827003226322E-01  1.0750248121577E+00
    80  7.9000000000000E-01  3.9258475855471E-01  1.0718120231235E+00
    81  8.0000000000000E-01  3.6306230375250E-01  1.0757432245257E+00
    82  8.1000000000000E-01  3.2945994238081E-01  1.0872328324681E+00
    83  8.2000000000000E-01  2.9166761921152E-01  1.1064408886554E+00
    84  8.3000000000000E-01  2.4971473963075E-01  1.1332631010293E+00
    85  8.4000000000000E-01  2.0377306452672E-01  1.1673281956279E+00
    86  8.5000000000000E-01  1.5415557789553E-01  1.2080027680284E+00
    87  8.6000000000000E-01  1.0131130668480E-01  1.2544036171077E+00
    88  8.7000000000000E-01  4.5816185315327E-02  1.3054173363804E+00
    89  8.8000000000000E-01 -1.1639831312909E-02  1.3597267346100E+00
    90  8.9000000000000E-01 -7.0269095837643E-02  1.4158434634262E+00
    91  9.0000000000000E-01 -1.2920562798845E-01  1.4721460507806E+00
    92  9.1000000000000E-01 -1.8752700771270E-01  1.5269223803287E+00
    93  9.2000000000000E-01 -2.4427822848292E-01  1.5784155228103E+00
    94  9.3000000000000E-01 -2.9849687722227E-01  1.6248717201269E+00
    95  9.4000000000000E-01 -3.4923896413499E-01  1.6645892492292E+00
    96  9.5000000000000E-01 -3.9560470093076E-01  1.6959668534399E+00
    97  9.6000000000000E-01 -4.3676352028935E-01  1.7175504247940E+00
    98  9.7000000000000E-01 -4.7197764321606E-01  1.7280766528001E+00
    99  9.8000000000000E-01 -5.0062353391749E-01  1.7265124220798E+00
   100  9.9000000000000E-01 -5.2221063321079E-01  1.7120888421040E+00
   101  1.0000000000000E+00 -5.3639682995160E-01  1.6843289241866E+00
   102  1.0100000000000E+00 -5.4300021375488E-01  1.6430680806681E+00
   103  1.0200000000000E+00 -5.4200674907880E-01  1.5884668044843E+00
   104  1.0300000000000E+00 -5.3357361815663E-01  1.5210150896245E+00
   105  1.0400000000000E+00 -5.1802809517261E-01  1.4415283685193E+00
   106  1.0500000000000E+00 -4.9586193340705E-01  1.3511349654727E+00
   107  1.0600000000000E+00 -4.6772136784302E-01  1.2512552903516E+00
   108  1.0700000000000E+00 -4.3439295413155E-01  1.1435732168560E+00
   109  1.0800000000000E+00 -3.9678557805025E-01  1.0300002996623E+00
   110  1.0900000000000E+00 -3.5590907437865E-01  9.1263367852181E-01
   111  1.1000000000000E+00 -3.1284998731733E-01  7.9370868925886E-01
   112  1.1100000000000E+00 -2.6874508417509E-01  6.7554734785009E-01
   113  1.1200000000000E+00 -2.2475329706559E-01  5.6050398894643E-01
   114  1.1300000000000E+00 -1.8202682311807E-01  4.5090944216697E-01
   115  1.1400000000000E+00 -1.4168206426430E-01  3.4901502802213E-01
   116  1.1500000000000E+00 -1.0477849571666E-01  2.5695166343659E-01
   117  1.1600000000000E+00 -7.2330606237036E-02  1.7675072036929E-01
   118  1.1700000000000E+00 -4.5167921575426E-02  1.1007938825856E-01
   119  1.1800000000000E+00 -2.3966101682381E-02  5.8300344163556E-02
   120  1.1900000000000E+00 -9.2503779826447E-03  2.2479178869144E-02
   121  1.2000000000000E+00 -1.3912341400203E-03  3.3798551306683E-03
   122  1.2100000000000E+00  8.2906624593379E-05 -2.0147960479127E-04
   123  1.2200000000000E+00 -7.4361299551680E-06  1.8066748062539E-05
   124  1.23  0.  0.
   125  1.24  0.  0.
   126  1.25  0.  0.
   127  1.26  0.  0.
   128  1.27  0.  0.
   129  1.28  0.  0.
   130  1.29  0.  0.
   131  1.30  0.  0.
   132  1.31  0.  0.
   133  1.32  0.  0.
   134  1.33  0.  0.
   135  1.34  0.  0.
   136  1.35  0.  0.
   137  1.36  0.  0.
   138  1.37  0.  0.
   139  1.38  0.  0.
   140  1.39  0.  0.
   141  1.40  0.  0.
   142  1.41  0.  0.
   143  1.42  0.  0.
   144  1.43  0.  0.
   145  1.44  0.  0.
   146  1.45  0.  0.
   147  1.46  0.  0.
   148  1.47  0.  0.
   149  1.48  0.  0.
   150  1.49  0.  0.
   151  1.50  0.  0.
   152  1.51  0.  0.
   153  1.52  0.  0.
   154  1.53  0.  0.
   155  1.54  0.  0.
   156  1.55  0.  0.
   157  1.56  0.  0.
   158  1.57  0.  0.
   159  1.58  0.  0.
   160  1.59  0.  0.
   161  1.60  0.  0.
   162  1.61  0.  0.
   163  1.62  0.  0.
   164  1.63  0.  0.
   165  1.64  0.  0.
   166  1.65  0.  0.
   167  1.66  0.  0.
   168  1.67  0.  0.
   169  1.68  0.  0.
   170  1.69  0.  0.
   171  1.70  0.  0.
   172  1.71  0.  0.
   173  1.72  0.  0.
   174  1.73  0.  0.
   175  1.74  0.  0.
   176  1.75  0.  0.
   177  1.76  0.  0.
   178  1.77  0.  0.
   179  1.78  0.  0.
   180  1.79  0.  0.
   181  1.80  0.  0.
   182  1.81  0.  0.
   183  1.82  0.  0.
   184  1.83  0.  0.
   185  1.84  0.  0.
   186  1.85  0.  0.
   187  1.86  0.  0.
   188  1.87  0.  0.
   189  1.88  0.  0.
   190  1.89  0.  0.
   191  1.90  0.  0.
   192  1.91  0.  0.
   193  1.92  0.  0.
   194  1.93  0.  0.
   195  1.94  0.  0.
   196  1.95  0.  0.
   197  1.96  0.  0.
   198  1.97  0.  0.
   199  1.98  0.  0.
   200  1.99  0.  0.
   201  2.00  0.  0.
   202  2.01  0.  0.
   203  2.02  0.  0.
   204  2.03  0.  0.
   205  2.04  0.  0.
   206  2.05  0.  0.
   207  2.06  0.  0.
   208  2.07  0.  0.
   209  2.08  0.  0.
   210  2.09  0.  0.
   211  2.10  0.  0.
   212  2.11  0.  0.
   213  2.12  0.  0.
   214  2.13  0.  0.
   215  2.14  0.  0.
   216  2.15  0.  0.
   217  2.16  0.  0.
   218  2.17  0.  0.
   219  2.18  0.  0.
   220  2.19  0.  0.
   221  2.20  0.  0.
   222  2.21  0.  0.
   223  2.22  0.  0.
   224  2.23  0.  0.
   225  2.24  0.  0.
   226  2.25  0.  0.
   227  2.26  0.  0.
   228  2.27  0.  0.
   229  2.28  0.  0.
   230  2.29  0.  0.
   231  2.30  0.  0.
   232  2.31  0.  0.
   233  2.32  0.  0.
   234  2.33  0.  0.
   235  2.34  0.  0.
   236  2.35  0.  0.
   237  2.36  0.  0.
   238  2.37  0.  0.
   239  2.38  0.  0.
   240  2.39  0.  0.
   241  2.40  0.  0.
   242  2.41  0.  0.
   243  2.42  0.  0.
   244  2.43  0.  0.
   245  2.44  0.  0.
   246  2.45  0.  0.
   247  2.46  0.  0.
   248  2.47  0.  0.
   249  2.48  0.  0.
   250  2.49  0.  0.
   251  2.50  0.  0.
   252  2.51  0.  0.
   253  2.52  0.  0.
   254  2.53  0.  0.
   255  2.54  0.  0.
   256  2.55  0.  0.
   257  2.56  0.  0.
   258  2.57  0.  0.
   259  2.58  0.  0.
   260  2.59  0.  0.
   261  2.60  0.  0.
   262  2.61  0.  0.
   263  2.62  0.  0.
   264  2.63  0.  0.
   265  2.64  0.  0.
   266  2.65  0.  0.
   267  2.66  0.  0.
   268  2.67  0.  0.
   269  2.68  0.  0.
   270  2.69  0.  0.
   271  2.70  0.  0.
   272  2.71  0.  0.
   273  2.72  0.  0.
   274  2.73  0.  0.
   275  2.74  0.  0.
   276  2.75  0.  0.
   277  2.76  0.  0.
   278  2.77  0.  0.
   279  2.78  0.  0.
   280  2.79  0.  0.
   281  2.80  0.  0.
   282  2.81  0.  0.
   283  2.82  0.  0.
   284  2.83  0.  0.
   285  2.84  0.  0.
   286  2.85  0.  0.
   287  2.86  0.  0.
   288  2.87  0.  0.
   289  2.88  0.  0.
   290  2.89  0.  0.
   291  2.90  0.  0.
   292  2.91  0.  0.
   293  2.92  0.  0.
   294  2.93  0.  0.
   295  2.94  0.  0.
   296  2.95  0.  0.
   297  2.96  0.  0.
   298  2.97  0.  0.
   299  2.98  0.  0.
   300  2.99  0.  0.
   301  3.00  0.  0.
   302  3.01  0.  0.
   303  3.02  0.  0.
   304  3.03  0.  0.
   305  3.04  0.  0.
   306  3.05  0.  0.
   307  3.06  0.  0.
   308  3.07  0.  0.
   309  3.08  0.  0.
   310  3.09  0.  0.
   311  3.10  0.  0.
   312  3.11  0.  0.
   313  3.12  0.  0.
   314  3.13  0.  0.
   315  3.14  0.  0.
   316  3.15  0.  0.
   317  3.16  0.  0.
   318  3.17  0.  0.
   319  3.18  0.  0.
   320  3.19  0.  0.
   321  3.20  0.  0.
   322  3.21  0.  0.
   323  3.22  0.  0.
   324  3.23  0.  0.
   325  3.24  0.  0.
   326  3.25  0.  0.
   327  3.26  0.  0.
   328  3.27  0.  0.
   329  3.28  0.  0.
   330  3.29  0.  0.
   331  3.30  0.  0.
   332  3.31  0.  0.
   333  3.32  0.  0.
   334  3.33  0.  0.
   335  3.34  0.  0.
   336  3.35  0.  0.
   337  3.36  0.  0.
   338  3.37  0.  0.
   339  3.38  0.  0.
   340  3.39  0.  0.
   341  3.40  0.  0.
   342  3.41  0.  0.
   343  3.42  0.  0.
   344  3.43  0.  0.
   345  3.44  0.  0.
   346  3.45  0.  0.
   347  3.46  0.  0.
   348  3.47  0.  0.
   349  3.48  0.  0.
   350  3.49  0.  0.
   351  3.50  0.  0.
   352  3.51  0.  0.
   353  3.52  0.  0.
   354  3.53  0.  0.
   355  3.54  0.  0.
   356  3.55  0.  0.
   357  3.56  0.  0.
   358  3.57  0.  0.
   359  3.58  0.  0.
   360  3.59  0.  0.
   361  3.60  0.  0.
   362  3.61  0.  0.
   363  3.62  0.  0.
   364  3.63  0.  0.
   365  3.64  0.  0.
   366  3.65  0.  0.
   367  3.66  0.  0.
   368  3.67  0.  0.
   369  3.68  0.  0.
   370  3.69  0.  0.
   371  3.70  0.  0.
   372  3.71  0.  0.
   373  3.72  0.  0.
   374  3.73  0.  0.
   375  3.74  0.  0.
   376  3.75  0.  0.
   377  3.76  0.  0.
   378  3.77  0.  0.
   379  3.78  0.  0.
   380  3.79  0.  0.
   381  3.80  0.  0.
   382  3.81  0.  0.
   383  3.82  0.  0.
   384  3.83  0.  0.
   385  3.84  0.  0.
   386  3.85  0.  0.
   387  3.86  0.  0.
   388  3.87  0.  0.
   389  3.88  0.  0.
   390  3.89  0.  0.
   391  3.90  0.  0.
   392  3.91  0.  0.
   393  3.92  0.  0.
   394  3.93  0.  0.
   395  3.94  0.  0.
   396  3.95  0.  0.
   397  3.96  0.  0.
   398  3.97  0.  0.
   399  3.98  0.  0.
   400  3.99  0.  0.
   401  4.00  0.  0.
   402  4.01  0.  0.
   403  4.02  0.  0.
   404  4.03  0.  0.
   405  4.04  0.  0.
   406  4.05  0.  0.
   407  4.06  0.  0.
   408  4.07  0.  0.
   409  4.08  0.  0.
   410  4.09  0.  0.
   411  4.10  0.  0.
   412  4.11  0.  0.
   413  4.12  0.  0.
   414  4.13  0.  0.
   415  4.14  0.  0.
   416  4.15  0.  0.
   417  4.16  0.  0.
   418  4.17  0.  0.
   419  4.18  0.  0.
   420  4.19  0.  0.
   421  4.20  0.  0.
   422  4.21  0.  0.
   423  4.22  0.  0.
   424  4.23  0.  0.
   425  4.24  0.  0.
   426  4.25  0.  0.
   427  4.26  0.  0.
   428  4.27  0.  0.
   429  4.28  0.  0.
   430  4.29  0.  0.
   431  4.30  0.  0.
   432  4.31  0.  0.
   433  4.32  0.  0.
   434  4.33  0.  0.
   435  4.34  0.  0.
   436  4.35  0.  0.
   437  4.36  0.  0.
   438  4.37  0.  0.
   439  4.38  0.  0.
   440  4.39  0.  0.
   441  4.40  0.  0.
   442  4.41  0.  0.
   443  4.42  0.  0.
   444  4.43  0.  0.
   445  4.44  0.  0.
   446  4.45  0.  0.
   447  4.46  0.  0.
   448  4.47  0.  0.
   449  4.48  0.  0.
   450  4.49  0.  0.
   451  4.50  0.  0.
   452  4.51  0.  0.
   453  4.52  0.  0.
   454  4.53  0.  0.
   455  4.54  0.  0.
   456  4.55  0.  0.
   457  4.56  0.  0.
   458  4.57  0.  0.
   459  4.58  0.  0.
   460  4.59  0.  0.
   461  4.60  0.  0.
   462  4.61  0.  0.
   463  4.62  0.  0.
   464  4.63  0.  0.
   465  4.64  0.  0.
   466  4.65  0.  0.
   467  4.66  0.  0.
   468  4.67  0.  0.
   469  4.68  0.  0.
   470  4.69  0.  0.
   471  4.70  0.  0.
   472  4.71  0.  0.
   473  4.72  0.  0.
   474  4.73  0.  0.
   475  4.74  0.  0.
   476  4.75  0.  0.
   477  4.76  0.  0.
   478  4.77  0.  0.
   479  4.78  0.  0.
   480  4.79  0.  0.
   481  4.80  0.  0.
   482  4.81  0.  0.
   483  4.82  0.  0.
   484  4.83  0.  0.
   485  4.84  0.  0.
   486  4.85  0.  0.
   487  4.86  0.  0.
   488  4.87  0.  0.
   489  4.88  0.  0.
   490  4.89  0.  0.
   491  4.90  0.  0.
   492  4.91  0.  0.
   493  4.92  0.  0.
   494  4.93  0.  0.
   495  4.94  0.  0.
   496  4.95  0.  0.
   497  4.96  0.  0.
   498  4.97  0.  0.
   499  4.98  0.  0.
   500  4.99  0.  0.
   501  5.00  0.  0.
   502  5.01  0.  0.
   503  5.02  0.  0.
   504  5.03  0.  0.
   505  5.04  0.  0.
   506  5.05  0.  0.
   507  5.06  0.  0.
   508  5.07  0.  0.
   509  5.08  0.  0.
   510  5.09  0.  0.
   511  5.10  0.  0.
   512  5.11  0.  0.
   513  5.12  0.  0.
   514  5.13  0.  0.
   515  5.14  0.  0.
   516  5.15  0.  0.
   517  5.16  0.  0.
   518  5.17  0.  0.
   519  5.18  0.  0.
   520  5.19  0.  0.
   521  5.20  0.  0.
   522  5.21  0.  0.
   523  5.22  0.  0.
   524  5.23  0.  0.
   525  5.24  0.  0.
   526  5.25  0.  0.
   527  5.26  0.  0.
   528  5.27  0.  0.
   529  5.28  0.  0.
   530  5.29  0.  0.
   531  5.30  0.  0.
   532  5.31  0.  0.
   533  5.32  0.  0.
   534  5.33  0.  0.
   535  5.34  0.  0.
   536  5.35  0.  0.
   537  5.36  0.  0.
   538  5.37  0.  0.
   539  5.38  0.  0.
   540  5.39  0.  0.
   541  5.40  0.  0.
   542  5.41  0.  0.
   543  5.42  0.  0.
   544  5.43  0.  0.
   545  5.44  0.  0.
   546  5.45  0.  0.
   547  5.46  0.  0.
   548  5.47  0.  0.
   549  5.48  0.  0.
   550  5.49  0.  0.
   551  5.50  0.  0.
   552  5.51  0.  0.
   553  5.52  0.  0.
   554  5.53  0.  0.
   555  5.54  0.  0.
   556  5.55  0.  0.
   557  5.56  0.  0.
   558  5.57  0.  0.
   559  5.58  0.  0.
   560  5.59  0.  0.
   561  5.60  0.  0.
   562  5.61  0.  0.
   563  5.62  0.  0.
   564  5.63  0.  0.
   565  5.64  0.  0.
   566  5.65  0.  0.
   567  5.66  0.  0.
   568  5.67  0.  0.
   569  5.68  0.  0.
   570  5.69  0.  0.
   571  5.70  0.  0.
   572  5.71  0.  0.
   573  5.72  0.  0.
   574  5.73  0.  0.
   575  5.74  0.  0.
   576  5.75  0.  0.
   577  5.76  0.  0.
   578  5.77  0.  0.
   579  5.78  0.  0.
   580  5.79  0.  0.
   581  5.80  0.  0.
   582  5.81  0.  0.
   583  5.82  0.  0.
   584  5.83  0.  0.
   585  5.84  0.  0.
   586  5.85  0.  0.
   587  5.86  0.  0.
   588  5.87  0.  0.
   589  5.88  0.  0.
   590  5.89  0.  0.
   591  5.90  0.  0.
   592  5.91  0.  0.
   593  5.92  0.  0.
   594  5.93  0.  0.
   595  5.94  0.  0.
   596  5.95  0.  0.
   597  5.96  0.  0.
   598  5.97  0.  0.
   599  5.98  0.  0.
   600  5.99  0.  0.
   1                        -3.5447267981239E+00 -7.8450241313804E-01
     1  0.0000000000000E+00 -7.2715597987383E-09 -7.7432750489326E-09
     2  1.0000000000000E-02  2.6693398572827E-03 -1.9301787195574E-03
     3  2.0000000000000E-02  1.0658381313688E-02 -7.6815654242479E-03
     4  3.0000000000000E-02  2.3910246936201E-02 -1.7137278946202E-02
     5  4.0000000000000E-02  4.2330337561360E-02 -3.0104407610910E-02
     6  5.0000000000000E-02  6.5786650673123E-02 -4.6316842860826E-02
     7  6.0000000000000E-02  9.4110271702861E-02 -6.5439241090407E-02
     8  7.0000000000000E-02  1.2709608036711E-01 -8.7072104659571E-02
     9  8.0000000000000E-02  1.6450372143028E-01 -1.1075796530932E-01
    10  9.0000000000000E-02  2.0605889327624E-01 -1.3598864202490E-01
    11  1.0000000000000E-01  2.5145500798323E-01 -1.6221353047889E-01
    12  1.1000000000000E-01  3.0035527297785E-01 -1.8884886248348E-01
    13  1.2000000000000E-01  3.5239523673671E-01 -2.1528785159167E-01
    14  1.3000000000000E-01  4.0718582953807E-01 -2.4091161558239E-01
    15  1.4000000000000E-01  4.6431691526073E-01 -2.6510073877189E-01
    16  1.5000000000000E-01  5.2336135217934E-01 -2.8724730787672E-01
    17  1.6000000000000E-01  5.8387954027670E-01 -3.0676722567962E-01
    18  1.7000000000000E-01  6.4542441058398E-01 -3.2311257834829E-01
    19  1.8000000000000E-01  7.0754678937901E-01 -3.3578380636411E-01
    20  1.9000000000000E-01  7.6980104770707E-01 -3.4434140711878E-01
    21  2.0000000000000E-01  8.3175092565881E-01 -3.4841688080218E-01
    22  2.1000000000000E-01  8.9297540216561E-01 -3.4772262161850E-01
    23  2.2000000000000E-01  9.5307446572436E-01 -3.4206045486646E-01
    24  2.3000000000000E-01  1.0116746303279E+00 -3.3132852802253E-01
    25  2.4000000000000E-01  1.0684340347126E+00 -3.1552628142205E-01
    26  2.5000000000000E-01  1.1230469624413E+00 -2.9475725186408E-01
    27  2.6000000000000E-01  1.1752476257215E+00 -2.6922950053212E-01
    28  2.7000000000000E-01  1.2248130674167E+00 -2.3925350469304E-01
    29  2.8000000000000E-01  1.2715650533997E+00 -2.0523740997545E-01
    30  2.9000000000000E-01  1.3153708509488E+00 -1.6767960549508E-01
    31  3.0000000000000E-01  1.3561428177941E+00 -1.2715865616793E-01
    32  3.1000000000000E-01  1.3938367599356E+00 -8.4320703348961E-02
    33  3.2000000000000E-01  1.4284490535375E+00 -3.9864524277723E-02
    34  3.3000000000000E-01  1.4600125659229E+00  5.4754797288453E-03
    35  3.4000000000000E-01  1.4885914516693E+00  5.0948019416354E-02
    36  3.5000000000000E-01  1.5142749406644E+00  9.5804959328924E-02
    37  3.6000000000000E-01  1.5371702742678E+00  1.3932218243252E-01
    38  3.7000000000000E-01  1.5573949819938E+00  1.8082074136994E-01
    39  3.8000000000000E-01  1.5750687229563E+00  2.1968771935975E-01
    40  3.9000000000000E-01  1.5903049423892E+00  2.5539619793532E-01
    41  4.0000000000000E-01  1.6032026126785E+00  2.8752371954812E-01
    42  4.1000000000000E-01  1.6138383395417E+00  3.1576864180748E-01
    43  4.2000000000000E-01  1.6222591164833E+00  3.3996380755573E-01
    44  4.3000000000000E-01  1.6284760039707E+00  3.6008700127346E-01
    45  4.4000000000000E-01  1.6324589936814E+00  3.7626772706141E-01
    46  4.5000000000000E-01  1.6341332928031E+00  3.8878992562668E-01
    47  4.6000000000000E-01  1.6333772291204E+00  3.9809034567164E-01
    48  4.7000000000000E-01  1.6300219352522E+00  4.0475239662064E-01
    49  4.8000000000000E-01  1.6238529209308E+00  4.0949543196384E-01
    50  4.9000000000000E-01  1.6146135869593E+00  4.1315954241688E-01
    51  5.0000000000000E-01  1.6020106749974E+00  4.1668607197564E-01
    52  5.1000000000000E-01  1.5857215853450E+00  4.2109420388412E-01
    53  5.2000000000000E-01  1.5654034323275E+00  4.2745409346146E-01
    54  5.3000000000000E-01  1.5407036457022E+00  4.3685714652902E-01
    55  5.4000000000000E-01  1.5112718687142E+00  4.5038415180519E-01
    56  5.5000000000000E-01  1.4767728510023E+00  4.6907206926799E-01
    57  5.6000000000000E-01  1.4368999893396E+00  4.9388035064115E-01
    58  5.7000000000000E-01  1.3913891328984E+00  5.2565771982015E-01
    59  5.8000000000000E-01  1.3400322438044E+00  5.6511036777569E-01
    60  5.9000000000000E-01  1.2826904893822E+00  6.1277251648349E-01
    61  6.0000000000000E-01  1.2193063405421E+00  6.6898027870836E-01
    62  6.1000000000000E-01  1.1499142617078E+00  7.3384968480477E-01
    63  6.2000000000000E-01  1.0746496016321E+00  8.0725966471021E-01
    64  6.3000000000000E-01  9.9375533108647E-01  8.8884066447780E-01
    65  6.4000000000000E-01  9.0758632203330E-01  9.7796944432513E-01
    66  6.5000000000000E-01  8.1661092237944E-01  1.0737704523528E+00
    67  6.6000000000000E-01  7.2140964930827E-01  1.1751239986125E+00
    68  6.7000000000000E-01  6.2267090067005E-01  1.2806812725039E+00
    69  6.8000000000000E-01  5.2118366590425E-01  1.3888860574626E+00
    70  6.9000000000000E-01  4.1782730314310E-01  1.4980028058661E+00
    71  7.0000000000000E-01  3.1355853504234E-01  1.6061505495251E+00
    72  7.1000000000000E-01  2.0939589993601E-01  1.7113419426037E+00
    73  7.2000000000000E-01  1.0640197456217E-01  1.8115265697561E+00
    74  7.3000000000000E-01  5.6637573520512E-03  1.9046375078672E+00
    75  7.4000000000000E-01 -9.1728335209682E-02  1.9886400097231E+00
    76  7.5000000000000E-01 -1.8470235449148E-01  2.0615810863801E+00
    77  7.6000000000000E-01 -2.7222704423904E-01  2.1216387053066E+00
    78  7.7000000000000E-01 -3.5333383571306E-01  2.1671692961018E+00
    79  7.8000000000000E-01 -4.2713803676399E-01  2.1967522663206E+00
    80  7.9000000000000E-01 -4.9285864577590E-01  2.2092302772505E+00
    81  8.0000000000000E-01 -5.4983624542176E-01  2.2037441128795E+00
    82  8.1000000000000E-01 -5.9754847122290E-01  2.1797610932498E+00
    83  8.2000000000000E-01 -6.3562260513567E-01  2.1370961332893E+00
    84  8.3000000000000E-01 -6.6384491347946E-01  2.0759247264947E+00
    85  8.4000000000000E-01 -6.8216642970942E-01  1.9967873350244E+00
    86  8.5000000000000E-01 -6.9070497367273E-01  1.9005848885830E+00
    87  8.6000000000000E-01 -6.8974329758661E-01  1.7885653280500E+00
    88  8.7000000000000E-01 -6.7972335229239E-01  1.6623013697240E+00
    89  8.8000000000000E-01 -6.6123677244566E-01  1.5236599056505E+00
    90  8.9000000000000E-01 -6.3501178317234E-01  1.3747636879689E+00
    91  9.0000000000000E-01 -6.0189683032213E-01  1.2179461638540E+00
    92  9.1000000000000E-01 -5.6284132883671E-01  1.0557005260173E+00
    93  9.2000000000000E-01 -5.1887400614849E-01  8.9062421593695E-01
    94  9.3000000000000E-01 -4.7107938741652E-01  7.2536025771487E-01
    95  9.4000000000000E-01 -4.2057302462864E-01  5.6253690528931E-01
    96  9.5000000000000E-01 -3.6847611037178E-01  4.0470715114828E-01
    97  9.6000000000000E-01 -3.1589013810451E-01  2.5428966831758E-01
    98  9.7000000000000E-01 -2.6387227326114E-01  1.1351273798544E-01
    99  9.8000000000000E-01 -2.1341208323575E-01 -1.5637347297897E-02
   100  9.9000000000000E-01 -1.6541023952501E-01 -1.3146201916482E-01
   101  1.0000000000000E+00 -1.2065975290347E-01 -2.3258906567382E-01
   102  1.0100000000000E+00 -7.9830233832012E-02 -3.1800309765238E-01
   103  1.0200000000000E+00 -4.3455587307014E-02 -3.8706699694876E-01
   104  1.0300000000000E+00 -1.1925456173915E-02 -4.3953373061273E-01
   105  1.0400000000000E+00  1.4519377569583E-02 -4.7554817017105E-01
   106  1.0500000000000E+00  3.5787534805657E-02 -4.9563882231235E-01
   107  1.0600000000000E+00  5.1933540273752E-02 -5.0069964967549E-01
   108  1.0700000000000E+00  6.3150412042968E-02 -4.9196242931751E-01
   109  1.0800000000000E+00  6.9758579721842E-02 -4.7096035524169E-01
   110  1.0900000000000E+00  7.2191475718519E-02 -4.3948383241101E-01
   111  1.1000000000000E+00  7.0978237987249E-02 -3.9952962548557E-01
   112  1.1100000000000E+00  6.6724044684529E-02 -3.5324471123077E-01
   113  1.1200000000000E+00  6.0088667777935E-02 -3.0286633196521E-01
   114  1.1300000000000E+00  5.1763875667471E-02 -2.5065984451558E-01
   115  1.1400000000000E+00  4.2450419162151E-02 -1.9885614240386E-01
   116  1.1500000000000E+00  3.2830837117316E-02 -1.4958313150510E-01
   117  1.1600000000000E+00  2.3528925479258E-02 -1.0477715509132E-01
   118  1.1700000000000E+00  1.5155168529346E-02 -6.6235503185206E-02
   119  1.1800000000000E+00  8.2478555411818E-03 -3.5501957919880E-02
   120  1.1900000000000E+00  3.2491644103429E-03 -1.3815363855122E-02
   121  1.2000000000000E+00  4.9656414269510E-04 -2.0909982232354E-03
   122  1.2100000000000E+00 -2.9920405432683E-05  1.2521884259412E-04
   123  1.2200000000000E+00  2.6735853080066E-06 -1.1212728613153E-05
   124  1.23  0.  0.
   125  1.24  0.  0.
   126  1.25  0.  0.
   127  1.26  0.  0.
   128  1.27  0.  0.
   129  1.28  0.  0.
   130  1.29  0.  0.
   131  1.30  0.  0.
   132  1.31  0.  0.
   133  1.32  0.  0.
   134  1.33  0.  0.
   135  1.34  0.  0.
   136  1.35  0.  0.
   137  1.36  0.  0.
   138  1.37  0.  0.
   139  1.38  0.  0.
   140  1.39  0.  0.
   141  1.40  0.  0.
   142  1.41  0.  0.
   143  1.42  0.  0.
   144  1.43  0.  0.
   145  1.44  0.  0.
   146  1.45  0.  0.
   147  1.46  0.  0.
   148  1.47  0.  0.
   149  1.48  0.  0.
   150  1.49  0.  0.
   151  1.50  0.  0.
   152  1.51  0.  0.
   153  1.52  0.  0.
   154  1.53  0.  0.
   155  1.54  0.  0.
   156  1.55  0.  0.
   157  1.56  0.  0.
   158  1.57  0.  0.
   159  1.58  0.  0.
   160  1.59  0.  0.
   161  1.60  0.  0.
   162  1.61  0.  0.
   163  1.62  0.  0.
   164  1.63  0.  0.
   165  1.64  0.  0.
   166  1.65  0.  0.
   167  1.66  0.  0.
   168  1.67  0.  0.
   169  1.68  0.  0.
   170  1.69  0.  0.
   171  1.70  0.  0.
   172  1.71  0.  0.
   173  1.72  0.  0.
   174  1.73  0.  0.
   175  1.74  0.  0.
   176  1.75  0.  0.
   177  1.76  0.  0.
   178  1.77  0.  0.
   179  1.78  0.  0.
   180  1.79  0.  0.
   181  1.80  0.  0.
   182  1.81  0.  0.
   183  1.82  0.  0.
   184  1.83  0.  0.
   185  1.84  0.  0.
   186  1.85  0.  0.
   187  1.86  0.  0.
   188  1.87  0.  0.
   189  1.88  0.  0.
   190  1.89  0.  0.
   191  1.90  0.  0.
   192  1.91  0.  0.
   193  1.92  0.  0.
   194  1.93  0.  0.
   195  1.94  0.  0.
   196  1.95  0.  0.
   197  1.96  0.  0.
   198  1.97  0.  0.
   199  1.98  0.  0.
   200  1.99  0.  0.
   201  2.00  0.  0.
   202  2.01  0.  0.
   203  2.02  0.  0.
   204  2.03  0.  0.
   205  2.04  0.  0.
   206  2.05  0.  0.
   207  2.06  0.  0.
   208  2.07  0.  0.
   209  2.08  0.  0.
   210  2.09  0.  0.
   211  2.10  0.  0.
   212  2.11  0.  0.
   213  2.12  0.  0.
   214  2.13  0.  0.
   215  2.14  0.  0.
   216  2.15  0.  0.
   217  2.16  0.  0.
   218  2.17  0.  0.
   219  2.18  0.  0.
   220  2.19  0.  0.
   221  2.20  0.  0.
   222  2.21  0.  0.
   223  2.22  0.  0.
   224  2.23  0.  0.
   225  2.24  0.  0.
   226  2.25  0.  0.
   227  2.26  0.  0.
   228  2.27  0.  0.
   229  2.28  0.  0.
   230  2.29  0.  0.
   231  2.30  0.  0.