Cs    ONCVPSP-4.0.1  r_core=   2.26263   1.85729   2.00749   1.90227
     55.0000      9.0000      250925    zatom,zion,pspd
     8   -1012   3     4   600     0    pspcod,pspxc,lmax,lloc,mmax,r2well
  5.99000000  5.00000000  0.00000000    rchrg fchrg qchrg
     2     3     3     2    nproj
     3     1           extension_switch
     3     4     3    nprojso
   0                         6.0506751963560E+00  6.9896844557525E-01
     1  0.0000000000000E+00 -4.7101766931235E-12  1.8164775239526E-11
     2  1.0000000000000E-02  2.5283327905760E-02 -8.5519791983356E-03
     3  2.0000000000000E-02  5.0558034973748E-02 -1.7089734168414E-02
     4  3.0000000000000E-02  7.5815507163643E-02 -2.5599113997656E-02
     5  4.0000000000000E-02  1.0104714389454E-01 -3.4066113756864E-02
     6  5.0000000000000E-02  1.2624436443712E-01 -4.2476945876536E-02
     7  6.0000000000000E-02  1.5139861390406E-01 -5.0818109597640E-02
     8  7.0000000000000E-02  1.7650136871044E-01 -5.9076457876341E-02
     9  8.0000000000000E-02  2.0154414138031E-01 -6.7239261140364E-02
    10  9.0000000000000E-02  2.2651848458168E-01 -7.5294267317174E-02
    11  1.0000000000000E-01  2.5141599427900E-01 -8.3229757580848E-02
    12  1.1000000000000E-01  2.7622831190003E-01 -9.1034597295271E-02
    13  1.2000000000000E-01  3.0094712542316E-01 -9.8698281665899E-02
    14  1.3000000000000E-01  3.2556416930089E-01 -1.0621097565060E-01
    15  1.4000000000000E-01  3.5007122314601E-01 -1.1356354772179E-01
    16  1.5000000000000E-01  3.7446010911868E-01 -1.2074759711704E-01
    17  1.6000000000000E-01  3.9872268796457E-01 -1.2775547426296E-01
    18  1.7000000000000E-01  4.2285085366746E-01 -1.3458029410781E-01
    19  1.8000000000000E-01  4.4683652669299E-01 -1.4121594215076E-01
    20  1.9000000000000E-01  4.7067164581426E-01 -1.4765707301093E-01
    21  2.0000000000000E-01  4.9434815852428E-01 -1.5389910143490E-01
    22  2.1000000000000E-01  5.1785801005503E-01 -1.5993818570023E-01
    23  2.2000000000000E-01  5.4119313103744E-01 -1.6577120343002E-01
    24  2.3000000000000E-01  5.6434542385185E-01 -1.7139571989376E-01
    25  2.4000000000000E-01  5.8730674773310E-01 -1.7680994892844E-01
    26  2.5000000000000E-01  6.1006890270932E-01 -1.8201270667373E-01
    27  2.6000000000000E-01  6.3262361246806E-01 -1.8700335837342E-01
    28  2.7000000000000E-01  6.5496250625752E-01 -1.9178175855321E-01
    29  2.8000000000000E-01  6.7707709994455E-01 -1.9634818494164E-01
    30  2.9000000000000E-01  6.9895877636423E-01 -2.0070326655522E-01
    31  3.0000000000000E-01  7.2059876510858E-01 -2.0484790642233E-01
    32  3.1000000000000E-01  7.4198812191375E-01 -2.0878319946983E-01
    33  3.2000000000000E-01  7.6311770781617E-01 -2.1251034614473E-01
    34  3.3000000000000E-01  7.8397816825813E-01 -2.1603056238696E-01
    35  3.4000000000000E-01  8.0455991233272E-01 -2.1934498661059E-01
    36  3.5000000000000E-01  8.2485309236551E-01 -2.2245458438789E-01
    37  3.6000000000000E-01  8.4484758403791E-01 -2.2536005156375E-01
    38  3.7000000000000E-01  8.6453296726218E-01 -2.2806171655667E-01
    39  3.8000000000000E-01  8.8389850802252E-01 -2.3055944262671E-01
    40  3.9000000000000E-01  9.0293314139993E-01 -2.3285253091045E-01
    41  4.0000000000000E-01  9.2162545599935E-01 -2.3493962503664E-01
    42  4.1000000000000E-01  9.3996367999828E-01 -2.3681861814631E-01
    43  4.2000000000000E-01  9.5793566903416E-01 -2.3848656314412E-01
    44  4.3000000000000E-01  9.7552889614502E-01 -2.3993958700639E-01
    45  4.4000000000000E-01  9.9273044397312E-01 -2.4117280996439E-01
    46  4.5000000000000E-01  1.0095269994354E+00 -2.4218027036789E-01
    47  4.6000000000000E-01  1.0259048510564E+00 -2.4295485601644E-01
    48  4.7000000000000E-01  1.0418498891515E+00 -2.4348824272123E-01
    49  4.8000000000000E-01  1.0573476090344E+00 -2.4377084083122E-01
    50  4.9000000000000E-01  1.0723831174143E+00 -2.4379175042161E-01
    51  5.0000000000000E-01  1.0869411421323E+00 -2.4353872580331E-01
    52  5.1000000000000E-01  1.1010060453710E+00 -2.4299814996536E-01
    53  5.2000000000000E-01  1.1145618404556E+00 -2.4215501951228E-01
    54  5.3000000000000E-01  1.1275922123471E+00 -2.4099294060293E-01
    55  5.4000000000000E-01  1.1400805419091E+00 -2.3949413633669E-01
    56  5.5000000000000E-01  1.1520099340078E+00 -2.3763946597000E-01
    57  5.6000000000000E-01  1.1633632494864E+00 -2.3540845627590E-01
    58  5.7000000000000E-01  1.1741231410300E+00 -2.3277934528990E-01
    59  5.8000000000000E-01  1.1842720929171E+00 -2.2972913860805E-01
    60  5.9000000000000E-01  1.1937924646267E+00 -2.2623367832688E-01
    61  6.0000000000000E-01  1.2026665382488E+00 -2.2226772463380E-01
    62  6.1000000000000E-01  1.2108765696197E+00 -2.1780504997413E-01
    63  6.2000000000000E-01  1.2184048430778E+00 -2.1281854563772E-01
    64  6.3000000000000E-01  1.2252337297130E+00 -2.0728034052277E-01
    65  6.4000000000000E-01  1.2313457489543E+00 -2.0116193174946E-01
    66  6.5000000000000E-01  1.2367236333182E+00 -1.9443432671061E-01
    67  6.6000000000000E-01  1.2413503961122E+00 -1.8706819606178E-01
    68  6.7000000000000E-01  1.2452094018677E+00 -1.7903403706985E-01
    69  6.8000000000000E-01  1.2482844392482E+00 -1.7030234665633E-01
    70  6.9000000000000E-01  1.2505597961595E+00 -1.6084380339275E-01
    71  7.0000000000000E-01  1.2520203367639E+00 -1.5062945762713E-01
    72  7.1000000000000E-01  1.2526515800811E+00 -1.3963092884722E-01
    73  7.2000000000000E-01  1.2524397798369E+00 -1.2782060931572E-01
    74  7.3000000000000E-01  1.2513720052050E+00 -1.1517187294642E-01
    75  7.4000000000000E-01  1.2494362220668E+00 -1.0165928832878E-01
    76  7.5000000000000E-01  1.2466213744021E+00 -8.7258834752948E-02
    77  7.6000000000000E-01  1.2429174654082E+00 -7.1948120035776E-02
    78  7.7000000000000E-01  1.2383156379325E+00 -5.5706598904737E-02
    79  7.8000000000000E-01  1.2328082537979E+00 -3.8515790658379E-02
    80  7.9000000000000E-01  1.2263889715872E+00 -2.0359494790780E-02
    81  8.0000000000000E-01  1.2190528224526E+00 -1.2240032438128E-03
    82  8.1000000000000E-01  1.2107962835102E+00  1.8901692065656E-02
    83  8.2000000000000E-01  1.2016173483800E+00  4.0025697805170E-02
    84  8.3000000000000E-01  1.1915155944329E+00  6.2153025235013E-02
    85  8.4000000000000E-01  1.1804922463123E+00  8.5285405020470E-02
    86  8.5000000000000E-01  1.1685502353026E+00  1.0942111218751E-01
    87  8.6000000000000E-01  1.1556942541259E+00  1.3455480253761E-01
    88  8.7000000000000E-01  1.1419308067641E+00  1.6067736180512E-01
    89  8.8000000000000E-01  1.1272682529115E+00  1.8777576880034E-01
    90  8.9000000000000E-01  1.1117168466853E+00  2.1583297373248E-01
    91  9.0000000000000E-01  1.0952887692389E+00  2.4482779285029E-01
    92  9.1000000000000E-01  1.0779981549423E+00  2.7473482047295E-01
    93  9.2000000000000E-01  1.0598611108221E+00  3.0552435941189E-01
    94  9.3000000000000E-01  1.0408957289756E+00  3.3716237070394E-01
    95  9.4000000000000E-01  1.0211220917059E+00  3.6961044348972E-01
    96  9.5000000000000E-01  1.0005622691509E+00  4.0282578577709E-01
    97  9.6000000000000E-01  9.7924030921473E-01  4.3676123673025E-01
    98  9.7000000000000E-01  9.5718221964348E-01  4.7136530101846E-01
    99  9.8000000000000E-01  9.3441594212077E-01  5.0658220564847E-01
   100  9.9000000000000E-01  9.1097131829796E-01  5.4235197958799E-01
   101  1.0000000000000E+00  8.8688004771070E-01  5.7861055636839E-01
   102  1.0100000000000E+00  8.6217563757319E-01  6.1528989973107E-01
   103  1.0200000000000E+00  8.3689334448146E-01  6.5231815225600E-01
   104  1.0300000000000E+00  8.1107010809787E-01  6.8961980678225E-01
   105  1.0400000000000E+00  7.8474447692984E-01  7.2711590030092E-01
   106  1.0500000000000E+00  7.5795652635754E-01  7.6472422987007E-01
   107  1.0600000000000E+00  7.3074776910626E-01  8.0235958997093E-01
   108  1.0700000000000E+00  7.0316105840035E-01  8.3993403059522E-01
   109  1.0800000000000E+00  6.7524048407611E-01  8.7735713522495E-01
   110  1.0900000000000E+00  6.4703126197059E-01  9.1453631774139E-01
   111  1.1000000000000E+00  6.1857961694277E-01  9.5137713717563E-01
   112  1.1100000000000E+00  5.8993265992008E-01  9.8778362909703E-01
   113  1.1200000000000E+00  5.6113825940057E-01  1.0236586523196E+00
   114  1.1300000000000E+00  5.3224490787482E-01  1.0589042494993E+00
   115  1.1400000000000E+00  5.0330158366462E-01  1.0934220200929E+00
   116  1.1500000000000E+00  4.7435760870595E-01  1.1271135040520E+00
   117  1.1600000000000E+00  4.4546250283232E-01  1.1598805745403E+00
   118  1.1700000000000E+00  4.1666583513997E-01  1.1916258378796E+00
   119  1.1800000000000E+00  3.8801707303985E-01  1.2222530388608E+00
   120  1.1900000000000E+00  3.5956542962176E-01  1.2516674694932E+00
   121  1.2000000000000E+00  3.3135970997305E-01  1.2797763792137E+00
   122  1.2100000000000E+00  3.0344815710893E-01  1.3064893845344E+00
   123  1.2200000000000E+00  2.7587829818228E-01  1.3317188760768E+00
   124  1.2300000000000E+00  2.4869679164862E-01  1.3553804209203E+00
   125  1.2400000000000E+00  2.2194927606610E-01  1.3773931581815E+00
   126  1.2500000000000E+00  1.9568022121152E-01  1.3976801857446E+00
   127  1.2600000000000E+00  1.6993278219017E-01  1.4161689360770E+00
   128  1.2700000000000E+00  1.4474865721156E-01  1.4327915390854E+00
   129  1.2800000000000E+00  1.2016794969277E-01  1.4474851700111E+00
   130  1.2900000000000E+00  9.6229035338358E-02  1.4601923804030E+00
   131  1.3000000000000E+00  7.2968434828215E-02  1.4708614102749E+00
   132  1.3100000000000E+00  5.0420692725163E-02  1.4794464796163E+00
   133  1.3200000000000E+00  2.8618263189797E-02  1.4859080575144E+00
   134  1.3300000000000E+00  7.5914030634681E-03  1.4902131072310E+00
   135  1.3400000000000E+00 -1.2631927149964E-02  1.4923353056859E+00
   136  1.3500000000000E+00 -3.2026153906044E-02  1.4922552359050E+00
   137  1.3600000000000E+00 -5.0568172383756E-02  1.4899605511160E+00
   138  1.3700000000000E+00 -6.8237418968743E-02  1.4854461093020E+00
   139  1.3800000000000E+00 -8.5015934074108E-02  1.4787140771615E+00
   140  1.3900000000000E+00 -1.0088841496024E-01  1.4697740025666E+00
   141  1.4000000000000E+00 -1.1584225826097E-01  1.4586428547629E+00
   142  1.4100000000000E+00 -1.2986759197039E-01  1.4453450317097E+00
   143  1.4200000000000E+00 -1.4295729669361E-01  1.4299123341216E+00
   144  1.4300000000000E+00 -1.5510701601474E-01  1.4123839059339E+00
   145  1.4400000000000E+00 -1.6631515588657E-01  1.3928061410856E+00
   146  1.4500000000000E+00 -1.7658287299826E-01  1.3712325566801E+00
   147  1.4600000000000E+00 -1.8591405212976E-01  1.3477236327544E+00
   148  1.4700000000000E+00 -1.9431527255376E-01  1.3223466190594E+00
   149  1.4800000000000E+00 -2.0179576359887E-01  1.2951753094194E+00
   150  1.4900000000000E+00 -2.0836734953888E-01  1.2662897844105E+00
   151  1.5000000000000E+00 -2.1404438402467E-01  1.2357761232561E+00
   152  1.5100000000000E+00 -2.1884367432492E-01  1.2037260860024E+00
   153  1.5200000000000E+00 -2.2278439569076E-01  1.1702367671883E+00
   154  1.5300000000000E+00 -2.2588799620656E-01  1.1354102223734E+00
   155  1.5400000000000E+00 -2.2817809253419E-01  1.0993530690313E+00
   156  1.5500000000000E+00 -2.2968035700120E-01  1.0621760634477E+00
   157  1.5600000000000E+00 -2.3042239652392E-01  1.0239936553897E+00
   158  1.5700000000000E+00 -2.3043362389454E-01  9.8492352242620E-01
   159  1.5800000000000E+00 -2.2974512199626E-01  9.4508608589043E-01
   160  1.5900000000000E+00 -2.2838950154245E-01  9.0460401056450E-01
   161  1.6000000000000E+00 -2.2640075296472E-01  8.6360169025450E-01
   162  1.6100000000000E+00 -2.2381409309969E-01  8.2220472149407E-01
   163  1.6200000000000E+00 -2.2066580734598E-01  7.8053936767382E-01
   164  1.6300000000000E+00 -2.1699308798083E-01  7.3873201594085E-01
   165  1.6400000000000E+00 -2.1283386933947E-01  6.9690862924545E-01
   166  1.6500000000000E+00 -2.0822666057068E-01  6.5519419593118E-01
   167  1.6600000000000E+00 -2.0321037668747E-01  6.1371217927119E-01
   168  1.6700000000000E+00 -1.9782416863421E-01  5.7258396934517E-01
   169  1.6800000000000E+00 -1.9210725308900E-01  5.3192833962989E-01
   170  1.6900000000000E+00 -1.8609874271388E-01  4.9186091064092E-01
   171  1.7000000000000E+00 -1.7983747755519E-01  4.5249362291411E-01
   172  1.7100000000000E+00 -1.7336185828219E-01  4.1393422155315E-01
   173  1.7200000000000E+00 -1.6670968193365E-01  3.7628575449451E-01
   174  1.7300000000000E+00 -1.5991798082023E-01  3.3964608655290E-01
   175  1.7400000000000E+00 -1.5302286520498E-01  3.0410743121093E-01
   176  1.7500000000000E+00 -1.4605937035471E-01  2.6975590200482E-01
   177  1.7600000000000E+00 -1.3906130852300E-01  2.3667108523598E-01
   178  1.7700000000000E+00 -1.3206112638945E-01  2.0492563560558E-01
   179  1.7800000000000E+00 -1.2508976844157E-01  1.7458489622722E-01
   180  1.7900000000000E+00 -1.1817654674423E-01  1.4570654432280E-01
   181  1.8000000000000E+00 -1.1134901749804E-01  1.1834026374766E-01
   182  1.8100000000000E+00 -1.0463286474179E-01  9.2527445326593E-02
   183  1.8200000000000E+00 -9.8051791506656E-02  6.8300915811282E-02
   184  1.8300000000000E+00 -9.1627418591703E-02  4.5684695628313E-02
   185  1.8400000000000E+00 -8.5379191217580E-02  2.4693786222368E-02
   186  1.8500000000000E+00 -7.9324297917820E-02  5.3340088231637E-03
   187  1.8600000000000E+00 -7.3477576726812E-02 -1.2398235778509E-02
   188  1.8700000000000E+00 -6.7851546912199E-02 -2.8515560070052E-02
   189  1.8800000000000E+00 -6.2456666720232E-02 -4.3038050400870E-02
   190  1.8900000000000E+00 -5.7301562918461E-02 -5.5991983802263E-02
   191  1.9000000000000E+00 -5.2393056266509E-02 -6.7409673211110E-02
   192  1.9100000000000E+00 -4.7736205477441E-02 -7.7329229874476E-02
   193  1.9200000000000E+00 -4.3334356180413E-02 -8.5794316303268E-02
   194  1.9300000000000E+00 -3.9189198586049E-02 -9.2853868934565E-02
   195  1.9400000000000E+00 -3.5300832846271E-02 -9.8561795401757E-02
   196  1.9500000000000E+00 -3.1667841841155E-02 -1.0297664717786E-01
   197  1.9600000000000E+00 -2.8287370917445E-02 -1.0616126940143E-01
   198  1.9700000000000E+00 -2.5155214089286E-02 -1.0818242969621E-01
   199  1.9800000000000E+00 -2.2265906177040E-02 -1.0911042791233E-01
   200  1.9900000000000E+00 -1.9612820330520E-02 -1.0901868881563E-01
   201  2.0000000000000E+00 -1.7188270352711E-02 -1.0798333985249E-01
   202  2.0100000000000E+00 -1.4983617216795E-02 -1.0608277619443E-01
   203  2.0200000000000E+00 -1.2989379147097E-02 -1.0339721533942E-01
   204  2.0300000000000E+00 -1.1195344616624E-02 -1.0000824360505E-01
   205  2.0400000000000E+00 -9.5906875992185E-03 -9.5998356895115E-02
   206  2.0500000000000E+00 -8.1640844038962E-03 -9.1450498153312E-02
   207  2.0600000000000E+00 -6.9038314111167E-03 -8.6447593940436E-02
   208  2.0700000000000E+00 -5.7979630278386E-03 -8.1072092577043E-02
   209  2.0800000000000E+00 -4.8343691783461E-03 -7.5405506288923E-02
   210  2.0900000000000E+00 -4.0009116521002E-03 -6.9527959773336E-02
   211  2.1000000000000E+00 -3.2855386378016E-03 -6.3517747572199E-02
   212  2.1100000000000E+00 -2.6763959242375E-03 -5.7450904666980E-02
   213  2.1200000000000E+00 -2.1619411481214E-03 -5.1400775728580E-02
   214  2.1300000000000E+00 -1.7310368063983E-03 -4.5437641810483E-02
   215  2.1400000000000E+00 -1.3730603487038E-03 -3.9628312745174E-02
   216  2.1500000000000E+00 -1.0780516362149E-03 -3.4035646880751E-02
   217  2.1600000000000E+00 -8.3746393439037E-04 -2.8716581491297E-02
   218  2.1700000000000E+00 -6.4338151868036E-04 -2.3723888139928E-02
   219  2.1800000000000E+00 -4.8764585934105E-04 -1.9108199216791E-02
   220  2.1900000000000E+00 -3.6316831848612E-04 -1.4914808792986E-02
   221  2.2000000000000E+00 -2.6388210655542E-04 -1.1183688548597E-02
   222  2.2100000000000E+00 -1.8481180460833E-04 -7.9492388287403E-03
   223  2.2200000000000E+00 -1.2212281296343E-04 -5.2401010804969E-03
   224  2.2300000000000E+00 -7.3202235458203E-05 -3.0801903333056E-03
   225  2.2400000000000E+00 -3.6343871247658E-05 -1.4769691536449E-03
   226  2.2500000000000E+00 -1.2035683845296E-05 -4.6484658808029E-04
   227  2.2600000000000E+00 -1.1124461188926E-06 -4.0090863397390E-05
   228  2.2700000000000E+00  6.4956212381431E-07  2.3225506326032E-05
   229  2.2800000000000E+00 -1.8037736909404E-07 -6.7294634564906E-06
   230  2.29  0.  0.
   231  2.30  0.  0.
   232  2.31  0.  0.
   233  2.32  0.  0.
   234  2.33  0.  0.
   235  2.34  0.  0.
   236  2.35  0.  0.
   237  2.36  0.  0.
   238  2.37  0.  0.
   239  2.38  0.  0.
   240  2.39  0.  0.
   241  2.40  0.  0.
   242  2.41  0.  0.
   243  2.42  0.  0.
   244  2.43  0.  0.
   245  2.44  0.  0.
   246  2.45  0.  0.
   247  2.46  0.  0.
   248  2.47  0.  0.
   249  2.48  0.  0.
   250  2.49  0.  0.
   251  2.50  0.  0.
   252  2.51  0.  0.
   253  2.52  0.  0.
   254  2.53  0.  0.
   255  2.54  0.  0.
   256  2.55  0.  0.
   257  2.56  0.  0.
   258  2.57  0.  0.
   259  2.58  0.  0.
   260  2.59  0.  0.
   261  2.60  0.  0.
   262  2.61  0.  0.
   263  2.62  0.  0.
   264  2.63  0.  0.
   265  2.64  0.  0.
   266  2.65  0.  0.
   267  2.66  0.  0.
   268  2.67  0.  0.
   269  2.68  0.  0.
   270  2.69  0.  0.
   271  2.70  0.  0.
   272  2.71  0.  0.
   273  2.72  0.  0.
   274  2.73  0.  0.
   275  2.74  0.  0.
   276  2.75  0.  0.
   277  2.76  0.  0.
   278  2.77  0.  0.
   279  2.78  0.  0.
   280  2.79  0.  0.
   281  2.80  0.  0.
   282  2.81  0.  0.
   283  2.82  0.  0.
   284  2.83  0.  0.
   285  2.84  0.  0.
   286  2.85  0.  0.
   287  2.86  0.  0.
   288  2.87  0.  0.
   289  2.88  0.  0.
   290  2.89  0.  0.
   291  2.90  0.  0.
   292  2.91  0.  0.
   293  2.92  0.  0.
   294  2.93  0.  0.
   295  2.94  0.  0.
   296  2.95  0.  0.
   297  2.96  0.  0.
   298  2.97  0.  0.
   299  2.98  0.  0.
   300  2.99  0.  0.
   301  3.00  0.  0.
   302  3.01  0.  0.
   303  3.02  0.  0.
   304  3.03  0.  0.
   305  3.04  0.  0.
   306  3.05  0.  0.
   307  3.06  0.  0.
   308  3.07  0.  0.
   309  3.08  0.  0.
   310  3.09  0.  0.
   311  3.10  0.  0.
   312  3.11  0.  0.
   313  3.12  0.  0.
   314  3.13  0.  0.
   315  3.14  0.  0.
   316  3.15  0.  0.
   317  3.16  0.  0.
   318  3.17  0.  0.
   319  3.18  0.  0.
   320  3.19  0.  0.
   321  3.20  0.  0.
   322  3.21  0.  0.
   323  3.22  0.  0.
   324  3.23  0.  0.
   325  3.24  0.  0.
   326  3.25  0.  0.
   327  3.26  0.  0.
   328  3.27  0.  0.
   329  3.28  0.  0.
   330  3.29  0.  0.
   331  3.30  0.  0.
   332  3.31  0.  0.
   333  3.32  0.  0.
   334  3.33  0.  0.
   335  3.34  0.  0.
   336  3.35  0.  0.
   337  3.36  0.  0.
   338  3.37  0.  0.
   339  3.38  0.  0.
   340  3.39  0.  0.
   341  3.40  0.  0.
   342  3.41  0.  0.
   343  3.42  0.  0.
   344  3.43  0.  0.
   345  3.44  0.  0.
   346  3.45  0.  0.
   347  3.46  0.  0.
   348  3.47  0.  0.
   349  3.48  0.  0.
   350  3.49  0.  0.
   351  3.50  0.  0.
   352  3.51  0.  0.
   353  3.52  0.  0.
   354  3.53  0.  0.
   355  3.54  0.  0.
   356  3.55  0.  0.
   357  3.56  0.  0.
   358  3.57  0.  0.
   359  3.58  0.  0.
   360  3.59  0.  0.
   361  3.60  0.  0.
   362  3.61  0.  0.
   363  3.62  0.  0.
   364  3.63  0.  0.
   365  3.64  0.  0.
   366  3.65  0.  0.
   367  3.66  0.  0.
   368  3.67  0.  0.
   369  3.68  0.  0.
   370  3.69  0.  0.
   371  3.70  0.  0.
   372  3.71  0.  0.
   373  3.72  0.  0.
   374  3.73  0.  0.
   375  3.74  0.  0.
   376  3.75  0.  0.
   377  3.76  0.  0.
   378  3.77  0.  0.
   379  3.78  0.  0.
   380  3.79  0.  0.
   381  3.80  0.  0.
   382  3.81  0.  0.
   383  3.82  0.  0.
   384  3.83  0.  0.
   385  3.84  0.  0.
   386  3.85  0.  0.
   387  3.86  0.  0.
   388  3.87  0.  0.
   389  3.88  0.  0.
   390  3.89  0.  0.
   391  3.90  0.  0.
   392  3.91  0.  0.
   393  3.92  0.  0.
   394  3.93  0.  0.
   395  3.94  0.  0.
   396  3.95  0.  0.
   397  3.96  0.  0.
   398  3.97  0.  0.
   399  3.98  0.  0.
   400  3.99  0.  0.
   401  4.00  0.  0.
   402  4.01  0.  0.
   403  4.02  0.  0.
   404  4.03  0.  0.
   405  4.04  0.  0.
   406  4.05  0.  0.
   407  4.06  0.  0.
   408  4.07  0.  0.
   409  4.08  0.  0.
   410  4.09  0.  0.
   411  4.10  0.  0.
   412  4.11  0.  0.
   413  4.12  0.  0.
   414  4.13  0.  0.
   415  4.14  0.  0.
   416  4.15  0.  0.
   417  4.16  0.  0.
   418  4.17  0.  0.
   419  4.18  0.  0.
   420  4.19  0.  0.
   421  4.20  0.  0.
   422  4.21  0.  0.
   423  4.22  0.  0.
   424  4.23  0.  0.
   425  4.24  0.  0.
   426  4.25  0.  0.
   427  4.26  0.  0.
   428  4.27  0.  0.
   429  4.28  0.  0.
   430  4.29  0.  0.
   431  4.30  0.  0.
   432  4.31  0.  0.
   433  4.32  0.  0.
   434  4.33  0.  0.
   435  4.34  0.  0.
   436  4.35  0.  0.
   437  4.36  0.  0.
   438  4.37  0.  0.
   439  4.38  0.  0.
   440  4.39  0.  0.
   441  4.40  0.  0.
   442  4.41  0.  0.
   443  4.42  0.  0.
   444  4.43  0.  0.
   445  4.44  0.  0.
   446  4.45  0.  0.
   447  4.46  0.  0.
   448  4.47  0.  0.
   449  4.48  0.  0.
   450  4.49  0.  0.
   451  4.50  0.  0.
   452  4.51  0.  0.
   453  4.52  0.  0.
   454  4.53  0.  0.
   455  4.54  0.  0.
   456  4.55  0.  0.
   457  4.56  0.  0.
   458  4.57  0.  0.
   459  4.58  0.  0.
   460  4.59  0.  0.
   461  4.60  0.  0.
   462  4.61  0.  0.
   463  4.62  0.  0.
   464  4.63  0.  0.
   465  4.64  0.  0.
   466  4.65  0.  0.
   467  4.66  0.  0.
   468  4.67  0.  0.
   469  4.68  0.  0.
   470  4.69  0.  0.
   471  4.70  0.  0.
   472  4.71  0.  0.
   473  4.72  0.  0.
   474  4.73  0.  0.
   475  4.74  0.  0.
   476  4.75  0.  0.
   477  4.76  0.  0.
   478  4.77  0.  0.
   479  4.78  0.  0.
   480  4.79  0.  0.
   481  4.80  0.  0.
   482  4.81  0.  0.
   483  4.82  0.  0.
   484  4.83  0.  0.
   485  4.84  0.  0.
   486  4.85  0.  0.
   487  4.86  0.  0.
   488  4.87  0.  0.
   489  4.88  0.  0.
   490  4.89  0.  0.
   491  4.90  0.  0.
   492  4.91  0.  0.
   493  4.92  0.  0.
   494  4.93  0.  0.
   495  4.94  0.  0.
   496  4.95  0.  0.
   497  4.96  0.  0.
   498  4.97  0.  0.
   499  4.98  0.  0.
   500  4.99  0.  0.
   501  5.00  0.  0.
   502  5.01  0.  0.
   503  5.02  0.  0.
   504  5.03  0.  0.
   505  5.04  0.  0.
   506  5.05  0.  0.
   507  5.06  0.  0.
   508  5.07  0.  0.
   509  5.08  0.  0.
   510  5.09  0.  0.
   511  5.10  0.  0.
   512  5.11  0.  0.
   513  5.12  0.  0.
   514  5.13  0.  0.
   515  5.14  0.  0.
   516  5.15  0.  0.
   517  5.16  0.  0.
   518  5.17  0.  0.
   519  5.18  0.  0.
   520  5.19  0.  0.
   521  5.20  0.  0.
   522  5.21  0.  0.
   523  5.22  0.  0.
   524  5.23  0.  0.
   525  5.24  0.  0.
   526  5.25  0.  0.
   527  5.26  0.  0.
   528  5.27  0.  0.
   529  5.28  0.  0.
   530  5.29  0.  0.
   531  5.30  0.  0.
   532  5.31  0.  0.
   533  5.32  0.  0.
   534  5.33  0.  0.
   535  5.34  0.  0.
   536  5.35  0.  0.
   537  5.36  0.  0.
   538  5.37  0.  0.
   539  5.38  0.  0.
   540  5.39  0.  0.
   541  5.40  0.  0.
   542  5.41  0.  0.
   543  5.42  0.  0.
   544  5.43  0.  0.
   545  5.44  0.  0.
   546  5.45  0.  0.
   547  5.46  0.  0.
   548  5.47  0.  0.
   549  5.48  0.  0.
   550  5.49  0.  0.
   551  5.50  0.  0.
   552  5.51  0.  0.
   553  5.52  0.  0.
   554  5.53  0.  0.
   555  5.54  0.  0.
   556  5.55  0.  0.
   557  5.56  0.  0.
   558  5.57  0.  0.
   559  5.58  0.  0.
   560  5.59  0.  0.
   561  5.60  0.  0.
   562  5.61  0.  0.
   563  5.62  0.  0.
   564  5.63  0.  0.
   565  5.64  0.  0.
   566  5.65  0.  0.
   567  5.66  0.  0.
   568  5.67  0.  0.
   569  5.68  0.  0.
   570  5.69  0.  0.
   571  5.70  0.  0.
   572  5.71  0.  0.
   573  5.72  0.  0.
   574  5.73  0.  0.
   575  5.74  0.  0.
   576  5.75  0.  0.
   577  5.76  0.  0.
   578  5.77  0.  0.
   579  5.78  0.  0.
   580  5.79  0.  0.
   581  5.80  0.  0.
   582  5.81  0.  0.
   583  5.82  0.  0.
   584  5.83  0.  0.
   585  5.84  0.  0.
   586  5.85  0.  0.
   587  5.86  0.  0.
   588  5.87  0.  0.
   589  5.88  0.  0.
   590  5.89  0.  0.
   591  5.90  0.  0.
   592  5.91  0.  0.
   593  5.92  0.  0.
   594  5.93  0.  0.
   595  5.94  0.  0.
   596  5.95  0.  0.
   597  5.96  0.  0.
   598  5.97  0.  0.
   599  5.98  0.  0.
   600  5.99  0.  0.
   1                         6.2039012504745E+00  7.5900242598284E-01  1.4600554633717E-02
     1  0.0000000000000E+00 -1.7328952855999E-10  3.6019885338301E-10  4.7440192746384E-09
     2  1.0000000000000E-02  4.9178107036098E-04 -1.6529948681779E-04  1.8230996032744E-03
     3  2.0000000000000E-02  1.9670501552514E-03 -6.6202386119658E-04  7.2712750614048E-03
     4  3.0000000000000E-02  4.4255771488112E-03 -1.4926339218111E-03  1.6281393906366E-02
     5  4.0000000000000E-02  7.8669528782427E-03 -2.6611747193145E-03  2.8749024727751E-02
     6  5.0000000000000E-02  1.2290550939266E-02 -4.1731918213586E-03  4.4529612199272E-02
     7  6.0000000000000E-02  1.7695474922153E-02 -6.0356154476281E-03  6.3440104157836E-02
     8  7.0000000000000E-02  2.4080491676349E-02 -8.2566138214828E-03  8.5261013003880E-02
     9  8.0000000000000E-02  3.1443951434981E-02 -1.0845417444999E-02  1.0973888894761E-01
    10  9.0000000000000E-02  3.9783695785048E-02 -1.3812116346146E-02  1.3658917811818E-01
    11  1.0000000000000E-01  4.9096954623173E-02 -1.7167432667169E-02  1.6549943432938E-01
    12  1.1000000000000E-01  5.9380233378631E-02 -2.0922471258276E-02  1.9613284940173E-01
    13  1.2000000000000E-01  7.0629191913629E-02 -2.5088451207506E-02  2.2813206341724E-01
    14  1.3000000000000E-01  8.2838516623949E-02 -2.9676421473183E-02  2.6112321316761E-01
    15  1.4000000000000E-01  9.6001787359954E-02 -3.4696963987123E-02  2.9472017438313E-01
    16  1.5000000000000E-01  1.1011134086748E-01 -4.0159887762618E-02  3.2852895112592E-01
    17  1.6000000000000E-01  1.2515813250945E-01 -4.6073917669184E-02  3.6215216402257E-01
    18  1.7000000000000E-01  1.4113159807140E-01 -5.2446381624915E-02  3.9519358781611E-01
    19  1.8000000000000E-01  1.5801951747713E-01 -5.9282900005782E-02  4.2726268804873E-01
    20  1.9000000000000E-01  1.7580788224379E-01 -6.6587081078831E-02  4.5797910655514E-01
    21  2.0000000000000E-01  1.9448076848937E-01 -7.4360226232848E-02  4.8697704585160E-01
    22  2.1000000000000E-01  2.1402021726904E-01 -8.2601048705720E-02  5.1390950344735E-01
    23  2.2000000000000E-01  2.3440612396131E-01 -9.1305409393267E-02  5.3845230857402E-01
    24  2.3000000000000E-01  2.5561613835048E-01 -1.0046607317073E-01  5.6030791580970E-01
    25  2.4000000000000E-01  2.7762557695908E-01 -1.1007248896691E-01  5.7920891255118E-01
    26  2.5000000000000E-01  3.0040734907429E-01 -1.2011059660396E-01  5.9492120023231E-01
    27  2.6000000000000E-01  3.2393189778629E-01 -1.3056266315551E-01  6.0724681257322E-01
    28  2.7000000000000E-01  3.4816715721552E-01 -1.4140715128446E-01  6.1602633793655E-01
    29  2.8000000000000E-01  3.7307852695176E-01 -1.5261862170267E-01  6.2114091702726E-01
    30  2.9000000000000E-01  3.9862886456152E-01 -1.6416767155089E-01  6.2251379165791E-01
    31  3.0000000000000E-01  4.2477849684405E-01 -1.7602091013248E-01  6.2011138506701E-01
    32  3.1000000000000E-01  4.5148525033142E-01 -1.8814097305180E-01  6.1394389927388E-01
    33  3.2000000000000E-01  4.7870450133698E-01 -2.0048657541295E-01  6.0406542012901E-01
    34  3.3000000000000E-01  5.0638924566095E-01 -2.1301260432869E-01  5.9057352602033E-01
    35  3.4000000000000E-01  5.3449018786344E-01 -2.2567025057990E-01  5.7360840156688E-01
    36  3.5000000000000E-01  5.6295584981700E-01 -2.3840717885425E-01  5.5335146301745E-01
    37  3.6000000000000E-01  5.9173269805373E-01 -2.5116773558569E-01  5.3002350741542E-01
    38  3.7000000000000E-01  6.2076528922899E-01 -2.6389319301618E-01  5.0388240283600E-01
    39  3.8000000000000E-01  6.4999643283645E-01 -2.7652202771353E-01  4.7522034209228E-01
    40  3.9000000000000E-01  6.7936737012953E-01 -2.8899023140752E-01  4.4436068718905E-01
    41  4.0000000000000E-01  7.0881796803484E-01 -3.0123165165493E-01  4.1165443642310E-01
    42  4.1000000000000E-01  7.3828692668435E-01 -3.1317835951651E-01  3.7747635033881E-01
    43  4.2000000000000E-01  7.6771199904855E-01 -3.2476104112872E-01  3.4222077669855E-01
    44  4.3000000000000E-01  7.9703022102204E-01 -3.3590940978387E-01  3.0629721817624E-01
    45  4.4000000000000E-01  8.2617815019922E-01 -3.4655263489630E-01  2.7012568958959E-01
    46  4.5000000000000E-01  8.5509211148125E-01 -3.5661978403327E-01  2.3413191411657E-01
    47  4.6000000000000E-01  8.8370844757717E-01 -3.6604027402845E-01  1.9874241006340E-01
    48  4.7000000000000E-01  9.1196377240396E-01 -3.7474432707585E-01  1.6437952134003E-01
    49  4.8000000000000E-01  9.3979522535182E-01 -3.8266342762406E-01  1.3145644583404E-01
    50  4.9000000000000E-01  9.6714072436343E-01 -3.8973077585548E-01  1.0037231633991E-01
    51  5.0000000000000E-01  9.9393921577939E-01 -3.9588173354428E-01  7.1507388590718E-02
    52  5.1000000000000E-01  1.0201309189263E+00 -4.0105425813878E-01  4.5218390247892E-02
    53  5.2000000000000E-01  1.0456575634695E+00 -4.0518932101038E-01  2.1834083437971E-02
    54  5.3000000000000E-01  1.0704626176177E+00 -4.0823130594966E-01  1.6510915894147E-03
    55  5.4000000000000E-01  1.0944915053531E+00 -4.1012838417019E-01 -1.5069961065251E-02
    56  5.5000000000000E-01  1.1176918109651E+00 -4.1083286230115E-01 -2.8107951876172E-02
    57  5.6000000000000E-01  1.1400134692873E+00 -4.1030150010690E-01 -3.7284362031474E-02
    58  5.7000000000000E-01  1.1614089401797E+00 -4.0849579496501E-01 -4.2465940558808E-02
    59  5.8000000000000E-01  1.1818333659499E+00 -4.0538223045929E-01 -4.3566896285219E-02
    60  5.9000000000000E-01  1.2012447105788E+00 -4.0093248679871E-01 -4.0550588695816E-02
    61  6.0000000000000E-01  1.2196038797955E+00 -3.9512361115285E-01 -3.3430693708245E-02
    62  6.1000000000000E-01  1.2368748212382E+00 -3.8793814639591E-01 -2.2271825754034E-02