Cs    ONCVPSP-4.0.1  r_core=   2.26263   1.85729   2.00749   1.90227
     55.0000      9.0000      250217    zatom,zion,pspd
     8       2   3     4   600     0    pspcod,pspxc,lmax,lloc,mmax,r2well
  5.99000000  5.00000000  0.00000000    rchrg fchrg qchrg
     2     3     3     2    nproj
     3     1           extension_switch
     3     4     3    nprojso
   0                         6.0499518248691E+00  6.9879103398075E-01
     1  0.0000000000000E+00 -4.7088721810695E-12  1.8175197458170E-11
     2  1.0000000000000E-02  2.5286830923575E-02 -8.5537915584964E-03
     3  2.0000000000000E-02  5.0565033985558E-02 -1.7093354275404E-02
     4  3.0000000000000E-02  7.5825988134843E-02 -2.5604532626260E-02
     5  4.0000000000000E-02  1.0106108580577E-01 -3.4073317072916E-02
     6  5.0000000000000E-02  1.2626173932326E-01 -4.2485915441458E-02
     7  6.0000000000000E-02  1.5141938690618E-01 -5.0828822374714E-02
     8  7.0000000000000E-02  1.7652549814048E-01 -5.9088886238909E-02
     9  8.0000000000000E-02  2.0157157879860E-01 -6.7253372882222E-02
    10  9.0000000000000E-02  2.2654917488699E-01 -7.5310025665419E-02
    11  1.0000000000000E-01  2.5144987581109E-01 -8.3247121211518E-02
    12  1.1000000000000E-01  2.7626531655452E-01 -9.1053520352167E-02
    13  1.2000000000000E-01  3.0098717877850E-01 -9.8718713782972E-02
    14  1.3000000000000E-01  3.2560719075730E-01 -1.0623286197837E-01
    15  1.4000000000000E-01  3.5011712607616E-01 -1.1358682895831E-01
    16  1.5000000000000E-01  3.7450880102983E-01 -1.2077220954382E-01
    17  1.6000000000000E-01  3.9877407067195E-01 -1.2778134978655E-01
    18  1.7000000000000E-01  4.2290482347869E-01 -1.3460736030744E-01
    19  1.8000000000000E-01  4.4689297460313E-01 -1.4124412233280E-01
    20  1.9000000000000E-01  4.7073045771128E-01 -1.4768628627058E-01
    21  2.0000000000000E-01  4.9440921540464E-01 -1.5392926272595E-01
    22  2.1000000000000E-01  5.1792118824895E-01 -1.5996920591327E-01
    23  2.2000000000000E-01  5.4125830244363E-01 -1.6580298947999E-01
    24  2.3000000000000E-01  5.6441245618123E-01 -1.7142817481721E-01
    25  2.4000000000000E-01  5.8737550476119E-01 -1.7684297199134E-01
    26  2.5000000000000E-01  6.1013924453690E-01 -1.8204619349027E-01
    27  2.6000000000000E-01  6.3269539578968E-01 -1.8703720103649E-01
    28  2.7000000000000E-01  6.5503558463746E-01 -1.9181584577712E-01
    29  2.8000000000000E-01  6.7715132409974E-01 -1.9638240221747E-01
    30  2.9000000000000E-01  6.9903399445371E-01 -2.0073749631959E-01
    31  3.0000000000000E-01  7.2067482302908E-01 -2.0488202823967E-01
    32  3.1000000000000E-01  7.4206486360082E-01 -2.0881709022897E-01
    33  3.2000000000000E-01  7.6319497555042E-01 -2.1254388026975E-01
    34  3.3000000000000E-01  7.8405580297609E-01 -2.1606361206293E-01
    35  3.4000000000000E-01  8.0463775394169E-01 -2.1937742202429E-01
    36  3.5000000000000E-01  8.2493098006204E-01 -2.2248627398362E-01
    37  3.6000000000000E-01  8.4492535662918E-01 -2.2539086231442E-01
    38  3.7000000000000E-01  8.6461046348982E-01 -2.2809151425009E-01
    39  3.8000000000000E-01  8.8397556688831E-01 -2.3058809216708E-01
    40  3.9000000000000E-01  9.0300960249266E-01 -2.3287989663470E-01
    41  4.0000000000000E-01  9.2170115982239E-01 -2.3496557104561E-01
    42  4.1000000000000E-01  9.4003846829716E-01 -2.3684300865015E-01
    43  4.2000000000000E-01  9.5800938512351E-01 -2.3850926282147E-01
    44  4.3000000000000E-01  9.7560138523430E-01 -2.3996046137698E-01
    45  4.4000000000000E-01  9.9280155349038E-01 -2.4119172577400E-01
    46  4.5000000000000E-01  1.0095965793485E+00 -2.4219709598519E-01
    47  4.6000000000000E-01  1.0259727541911E+00 -2.4296946184061E-01
    48  4.7000000000000E-01  1.0419159715053E+00 -2.4350050159937E-01
    49  4.8000000000000E-01  1.0574117300859E+00 -2.4378062848433E-01
    50  4.9000000000000E-01  1.0724451404275E+00 -2.4379894587814E-01
    51  5.0000000000000E-01  1.0870009344544E+00 -2.4354321183861E-01
    52  5.1000000000000E-01  1.1010634787233E+00 -2.4299981354564E-01
    53  5.2000000000000E-01  1.1146167912176E+00 -2.4215375224166E-01
    54  5.3000000000000E-01  1.1276445618319E+00 -2.4098863917163E-01
    55  5.4000000000000E-01  1.1401301766294E+00 -2.3948670296896E-01
    56  5.5000000000000E-01  1.1520567459333E+00 -2.3762880886939E-01
    57  5.6000000000000E-01  1.1634071362894E+00 -2.3539449006655E-01
    58  5.7000000000000E-01  1.1741640063211E+00 -2.3276199145128E-01
    59  5.8000000000000E-01  1.1843098464684E+00 -2.2970832590139E-01
    60  5.9000000000000E-01  1.1938270225823E+00 -2.2620934321109E-01
    61  6.0000000000000E-01  1.2026978233225E+00 -2.2223981166853E-01
    62  6.1000000000000E-01  1.2109045112781E+00 -2.1777351220800E-01
    63  6.2000000000000E-01  1.2184293777096E+00 -2.1278334497919E-01
    64  6.3000000000000E-01  1.2252548007820E+00 -2.0724144809163E-01
    65  6.4000000000000E-01  1.2313633071377E+00 -2.0111932820651E-01
    66  6.5000000000000E-01  1.2367376366271E+00 -1.9438800256335E-01
    67  6.6000000000000E-01  1.2413608099962E+00 -1.8701815194385E-01
    68  6.7000000000000E-01  1.2452161993011E+00 -1.7898028399209E-01
    69  6.8000000000000E-01  1.2482876007987E+00 -1.7024490622731E-01
    70  6.9000000000000E-01  1.2505593100378E+00 -1.6078270800661E-01
    71  7.0000000000000E-01  1.2520161988548E+00 -1.5056475061695E-01
    72  7.1000000000000E-01  1.2526437939549E+00 -1.3956266460195E-01
    73  7.2000000000000E-01  1.2524283567414E+00 -1.2774885335887E-01
    74  7.3000000000000E-01  1.2513569640377E+00 -1.1509670197489E-01
    75  7.4000000000000E-01  1.2494175893265E+00 -1.0158079021060E-01
    76  7.5000000000000E-01  1.2465991841209E+00 -8.7177108482107E-02
    77  7.6000000000000E-01  1.2428917590623E+00 -7.1863275643486E-02
    78  7.7000000000000E-01  1.2382864643337E+00 -5.5618757325958E-02
    79  7.8000000000000E-01  1.2327756689637E+00 -3.8425083552747E-02
    80  7.9000000000000E-01  1.2263530385915E+00 -2.0266064317544E-02
    81  8.0000000000000E-01  1.2190136112561E+00 -1.1280017903688E-03
    82  8.1000000000000E-01  1.2107538707709E+00  1.9000102201782E-02
    83  8.2000000000000E-01  1.2015718172442E+00  4.0126344780650E-02
    84  8.3000000000000E-01  1.1914670343079E+00  6.2255728071119E-02
    85  8.4000000000000E-01  1.1804407526199E+00  8.5389974058834E-02
    86  8.5000000000000E-01  1.1684959092146E+00  1.0952734959047E-01
    87  8.6000000000000E-01  1.1556372022832E+00  1.3466250283182E-01
    88  8.7000000000000E-01  1.1418711409780E+00  1.6078631246730E-01
    89  8.8000000000000E-01  1.1272060898503E+00  1.8788575088331E-01
    90  8.9000000000000E-01  1.1116523075454E+00  2.1594376252966E-01
    91  9.0000000000000E-01  1.0952219794020E+00  2.4493915859651E-01
    92  9.1000000000000E-01  1.0779292436201E+00  2.7484652907911E-01
    93  9.2000000000000E-01  1.0597902106886E+00  3.0563617323093E-01
    94  9.3000000000000E-01  1.0408229757893E+00  3.3727404932520E-01
    95  9.4000000000000E-01  1.0210476239219E+00  3.6972174455846E-01
    96  9.5000000000000E-01  1.0004862275252E+00  4.0293646583611E-01
    97  9.6000000000000E-01  9.7916283640193E-01  4.3687105207991E-01
    98  9.7000000000000E-01  9.5710345978835E-01  4.7147400859150E-01
    99  9.8000000000000E-01  9.3433604044618E-01  5.0668956389575E-01
   100  9.9000000000000E-01  9.1089042069006E-01  5.4245774937122E-01
   101  1.0000000000000E+00  8.8679830030304E-01  5.7871450185560E-01
   102  1.0100000000000E+00  8.6209318633117E-01  6.1539178929077E-01
   103  1.0200000000000E+00  8.3681033478875E-01  6.5241775934555E-01
   104  1.0300000000000E+00  8.1098668434622E-01  6.8971691082623E-01
   105  1.0400000000000E+00  7.8466078211400E-01  7.2721028755499E-01
   106  1.0500000000000E+00  7.5787270167669E-01  7.6481569426589E-01
   107  1.0600000000000E+00  7.3066395357353E-01  8.0244793393793E-01
   108  1.0700000000000E+00  7.0307738846199E-01  8.4001906585456E-01
   109  1.0800000000000E+00  6.7515709324166E-01  8.7743868355183E-01
   110  1.0900000000000E+00  6.4694828045582E-01  9.1461421169080E-01
   111  1.1000000000000E+00  6.1849717132638E-01  9.5145122076842E-01
   112  1.1100000000000E+00  5.8985087281587E-01  9.8785375846151E-01
   113  1.1200000000000E+00  5.6105724914625E-01  1.0237246962854E+00
   114  1.1300000000000E+00  5.3216478823872E-01  1.0589660901400E+00
   115  1.1400000000000E+00  5.0322246357143E-01  1.0934795532136E+00
   116  1.1500000000000E+00  4.7427959198276E-01  1.1271666396193E+00
   117  1.1600000000000E+00  4.4538568797573E-01  1.1599292370516E+00
   118  1.1700000000000E+00  4.1659031510533E-01  1.1916699666693E+00
   119  1.1800000000000E+00  3.8794293505350E-01  1.2222925883413E+00
   120  1.1900000000000E+00  3.5949275501682E-01  1.2517024093284E+00
   121  1.2000000000000E+00  3.3128857404957E-01  1.2798066944242E+00
   122  1.2100000000000E+00  3.0337862901874E-01  1.3065150755322E+00
   123  1.2200000000000E+00  2.7581044083900E-01  1.3317399586303E+00
   124  1.2300000000000E+00  2.4863066166305E-01  1.3553969260472E+00
   125  1.2400000000000E+00  2.2188492370724E-01  1.3774051319714E+00
   126  1.2500000000000E+00  1.9561769039305E-01  1.3976876891108E+00
   127  1.2600000000000E+00  1.6987211048250E-01  1.4161720444381E+00
   128  1.2700000000000E+00  1.4468987587901E-01  1.4327903419787E+00
   129  1.2800000000000E+00  1.2011108375571E-01  1.4474797706387E+00
   130  1.2900000000000E+00  9.6174103659595E-02  1.4601828951130E+00
   131  1.3000000000000E+00  7.2915450223315E-02  1.4708479679801E+00
   132  1.3100000000000E+00  5.0369662095718E-02  1.4794292211529E+00
   133  1.3200000000000E+00  2.8569187678909E-02  1.4858871349438E+00
   134  1.3300000000000E+00  7.5442782325088E-03  1.4901886830895E+00
   135  1.3400000000000E+00 -1.2677111124463E-02  1.4923075521837E+00
   136  1.3500000000000E+00 -3.2069412016472E-02  1.4922243340811E+00
   137  1.3600000000000E+00 -5.0609524557771E-02  1.4899266899523E+00
   138  1.3700000000000E+00 -6.8276889819276E-02  1.4854094848013E+00
   139  1.3800000000000E+00 -8.5053552634403E-02  1.4786748913947E+00
   140  1.3900000000000E+00 -1.0092421440553E-01  1.4697324626943E+00
   141  1.4000000000000E+00 -1.1587627561831E-01  1.4585991720368E+00
   142  1.4100000000000E+00 -1.2989986781835E-01  1.4452994204595E+00
   143  1.4200000000000E+00 -1.4298787485345E-01  1.4298650107323E+00
   144  1.4300000000000E+00 -1.5513594323489E-01  1.4123350878205E+00
   145  1.4400000000000E+00 -1.6634248152214E-01  1.3927560456703E+00
   146  1.4500000000000E+00 -1.7660864868737E-01  1.3711814003777E+00
   147  1.4600000000000E+00 -1.8593833146845E-01  1.3476716299726E+00
   148  1.4700000000000E+00 -1.9433811077134E-01  1.3222939812182E+00
   149  1.4800000000000E+00 -2.0181721723544E-01  1.2951222439975E+00
   150  1.4900000000000E+00 -2.0838747612680E-01  1.2662364940220E+00
   151  1.5000000000000E+00 -2.1406324177568E-01  1.2357228047648E+00
   152  1.5100000000000E+00 -2.1886132182460E-01  1.2036729296774E+00
   153  1.5200000000000E+00 -2.2280089160196E-01  1.1701839559062E+00
   154  1.5300000000000E+00 -2.2590339898336E-01  1.1353579308726E+00
   155  1.5400000000000E+00 -2.2819246014781E-01  1.0993014632223E+00
   156  1.5500000000000E+00 -2.2969374667937E-01  1.0621252997825E+00
   157  1.5600000000000E+00 -2.3043486450490E-01  1.0239438802951E+00
   158  1.5700000000000E+00 -2.3044522519707E-01  9.8487487180396E-01
   159  1.5800000000000E+00 -2.2975591020648E-01  9.4503868468694E-01
   160  1.5900000000000E+00 -2.2839952861878E-01  9.0455797241231E-01
   161  1.6000000000000E+00 -2.2641006906159E-01  8.6355711718784E-01
   162  1.6100000000000E+00 -2.2382274641071E-01  8.2216170373955E-01
   163  1.6200000000000E+00 -2.2067384396735E-01  7.8049798351745E-01
   164  1.6300000000000E+00 -2.1700055179521E-01  7.3869233167170E-01
   165  1.6400000000000E+00 -2.1284080192079E-01  6.9687069917570E-01
   166  1.6500000000000E+00 -2.0823310110986E-01  6.5515806249223E-01
   167  1.6600000000000E+00 -2.0321636193933E-01  6.1367787318445E-01
   168  1.6700000000000E+00 -1.9782973288515E-01  5.7255150986587E-01
   169  1.6800000000000E+00 -1.9211242814534E-01  5.3189773486177E-01
   170  1.6900000000000E+00 -1.8610355791039E-01  4.9183215791907E-01
   171  1.7000000000000E+00 -1.7984195978324E-01  4.5246670925263E-01
   172  1.7100000000000E+00 -1.7336603203675E-01  4.1390912415405E-01
   173  1.7200000000000E+00 -1.6671356937837E-01  3.7626244131359E-01
   174  1.7300000000000E+00 -1.5992160186957E-01  3.3962451691800E-01
   175  1.7400000000000E+00 -1.5302623762227E-01  3.0408755648746E-01
   176  1.7500000000000E+00 -1.4606250986498E-01  2.6973766630316E-01
   177  1.7600000000000E+00 -1.3906422893906E-01  2.3665442615481E-01
   178  1.7700000000000E+00 -1.3206383975002E-01  2.0491048500518E-01
   179  1.7800000000000E+00 -1.2509228515966E-01  1.7457118102602E-01
   180  1.7900000000000E+00 -1.1817887576437E-01  1.4569418731065E-01
   181  1.8000000000000E+00 -1.1135116646038E-01  1.1832918440874E-01
   182  1.8100000000000E+00 -1.0463484015156E-01  9.2517560664861E-02
   183  1.8200000000000E+00 -9.8053598906955E-02  6.8292141171166E-02
   184  1.8300000000000E+00 -9.1629062737837E-02  4.5676945503269E-02
   185  1.8400000000000E+00 -8.5380676250995E-02  2.4686975043900E-02
   186  1.8500000000000E+00 -7.9325627537301E-02  5.3280517212078E-03
   187  1.8600000000000E+00 -7.3478754357153E-02 -1.2403422242576E-02
   188  1.8700000000000E+00 -6.7852575856793E-02 -2.8520057251505E-02
   189  1.8800000000000E+00 -6.2457550277415E-02 -4.3041937073849E-02
   190  1.8900000000000E+00 -5.7302304470664E-02 -5.5995335764639E-02
   191  1.9000000000000E+00 -5.2393659363650E-02 -6.7412562903540E-02
   192  1.9100000000000E+00 -4.7736673913143E-02 -7.7331726021063E-02
   193  1.9200000000000E+00 -4.3334694060670E-02 -8.5796483576888E-02
   194  1.9300000000000E+00 -3.9189410389689E-02 -9.2855767651192E-02
   195  1.9400000000000E+00 -3.5300923476565E-02 -9.8563481247803E-02
   196  1.9500000000000E+00 -3.1667816668004E-02 -1.0297817097431E-01
   197  1.9600000000000E+00 -2.8287235809604E-02 -1.0616267690821E-01
   198  1.9700000000000E+00 -2.5154975436111E-02 -1.0818376146012E-01
   199  1.9800000000000E+00 -2.2265570899327E-02 -1.0911171916136E-01
   200  1.9900000000000E+00 -1.9612395880087E-02 -1.0901996940218E-01
   201  2.0000000000000E+00 -1.7187764700388E-02 -1.0798463424776E-01
   202  2.0100000000000E+00 -1.4983038828614E-02 -1.0608410353571E-01
   203  2.0200000000000E+00 -1.2988736948539E-02 -1.0339858953168E-01
   204  2.0300000000000E+00 -1.1194647944852E-02 -1.0000967347778E-01
   205  2.0400000000000E+00 -9.5899461433302E-03 -9.5999846415016E-02
   206  2.0500000000000E+00 -8.1633081333051E-03 -9.1452046692927E-02
   207  2.0600000000000E+00 -6.9030304922778E-03 -8.6449196602332E-02
   208  2.0700000000000E+00 -5.7971477296159E-03 -8.1073740572852E-02
   209  2.0800000000000E+00 -4.8335497664149E-03 -7.5407187371976E-02
   210  2.0900000000000E+00 -4.0000982728779E-03 -6.9529658723259E-02
   211  2.1000000000000E+00 -3.2847411924802E-03 -6.3519446729375E-02
   212  2.1100000000000E+00 -2.6756239340278E-03 -5.7452584513161E-02
   213  2.1200000000000E+00 -2.1612036082737E-03 -5.1402415519643E-02
   214  2.1300000000000E+00 -1.7303420390322E-03 -4.5439220232410E-02
   215  2.1400000000000E+00 -1.3724158449378E-03 -3.9629808618959E-02
   216  2.1500000000000E+00 -1.0774638584624E-03 -3.4037039993158E-02
   217  2.1600000000000E+00 -8.3693781199734E-04 -2.8717854313183E-02
   218  2.1700000000000E+00 -6.4292039386303E-04 -2.3725026302217E-02
   219  2.1800000000000E+00 -4.8725188856699E-04 -1.9109190713633E-02
   220  2.1900000000000E+00 -3.6284218536870E-04 -1.4915645104373E-02
   221  2.2000000000000E+00 -2.6362280353282E-04 -1.1184365585513E-02
   222  2.2100000000000E+00 -1.8461641531351E-04 -7.9497578864932E-03
   223  2.2200000000000E+00 -1.2198630176032E-04 -5.2404697792689E-03
   224  2.2300000000000E+00 -7.3117201786866E-05 -3.0804236683127E-03
   225  2.2400000000000E+00 -3.6300720728555E-05 -1.4770893374560E-03
   226  2.2500000000000E+00 -1.2021317283613E-05 -4.6488718882107E-04
   227  2.2600000000000E+00 -1.1111730858743E-06 -4.0094513064621E-05
   228  2.2700000000000E+00  6.4875593626145E-07  2.3227830924348E-05
   229  2.2800000000000E+00 -1.8015432280084E-07 -6.7301009611141E-06
   230  2.29  0.  0.
   231  2.30  0.  0.
   232  2.31  0.  0.
   233  2.32  0.  0.
   234  2.33  0.  0.
   235  2.34  0.  0.
   236  2.35  0.  0.
   237  2.36  0.  0.
   238  2.37  0.  0.
   239  2.38  0.  0.
   240  2.39  0.  0.
   241  2.40  0.  0.
   242  2.41  0.  0.
   243  2.42  0.  0.
   244  2.43  0.  0.
   245  2.44  0.  0.
   246  2.45  0.  0.
   247  2.46  0.  0.
   248  2.47  0.  0.
   249  2.48  0.  0.
   250  2.49  0.  0.
   251  2.50  0.  0.
   252  2.51  0.  0.
   253  2.52  0.  0.
   254  2.53  0.  0.
   255  2.54  0.  0.
   256  2.55  0.  0.
   257  2.56  0.  0.
   258  2.57  0.  0.
   259  2.58  0.  0.
   260  2.59  0.  0.
   261  2.60  0.  0.
   262  2.61  0.  0.
   263  2.62  0.  0.
   264  2.63  0.  0.
   265  2.64  0.  0.
   266  2.65  0.  0.
   267  2.66  0.  0.
   268  2.67  0.  0.
   269  2.68  0.  0.
   270  2.69  0.  0.
   271  2.70  0.  0.
   272  2.71  0.  0.
   273  2.72  0.  0.
   274  2.73  0.  0.
   275  2.74  0.  0.
   276  2.75  0.  0.
   277  2.76  0.  0.
   278  2.77  0.  0.
   279  2.78  0.  0.
   280  2.79  0.  0.
   281  2.80  0.  0.
   282  2.81  0.  0.
   283  2.82  0.  0.
   284  2.83  0.  0.
   285  2.84  0.  0.
   286  2.85  0.  0.
   287  2.86  0.  0.
   288  2.87  0.  0.
   289  2.88  0.  0.
   290  2.89  0.  0.
   291  2.90  0.  0.
   292  2.91  0.  0.
   293  2.92  0.  0.
   294  2.93  0.  0.
   295  2.94  0.  0.
   296  2.95  0.  0.
   297  2.96  0.  0.
   298  2.97  0.  0.
   299  2.98  0.  0.
   300  2.99  0.  0.
   301  3.00  0.  0.
   302  3.01  0.  0.
   303  3.02  0.  0.
   304  3.03  0.  0.
   305  3.04  0.  0.
   306  3.05  0.  0.
   307  3.06  0.  0.
   308  3.07  0.  0.
   309  3.08  0.  0.
   310  3.09  0.  0.
   311  3.10  0.  0.
   312  3.11  0.  0.
   313  3.12  0.  0.
   314  3.13  0.  0.
   315  3.14  0.  0.
   316  3.15  0.  0.
   317  3.16  0.  0.
   318  3.17  0.  0.
   319  3.18  0.  0.
   320  3.19  0.  0.
   321  3.20  0.  0.
   322  3.21  0.  0.
   323  3.22  0.  0.
   324  3.23  0.  0.
   325  3.24  0.  0.
   326  3.25  0.  0.
   327  3.26  0.  0.
   328  3.27  0.  0.
   329  3.28  0.  0.
   330  3.29  0.  0.
   331  3.30  0.  0.
   332  3.31  0.  0.
   333  3.32  0.  0.
   334  3.33  0.  0.
   335  3.34  0.  0.
   336  3.35  0.  0.
   337  3.36  0.  0.
   338  3.37  0.  0.
   339  3.38  0.  0.
   340  3.39  0.  0.
   341  3.40  0.  0.
   342  3.41  0.  0.
   343  3.42  0.  0.
   344  3.43  0.  0.
   345  3.44  0.  0.
   346  3.45  0.  0.
   347  3.46  0.  0.
   348  3.47  0.  0.
   349  3.48  0.  0.
   350  3.49  0.  0.
   351  3.50  0.  0.
   352  3.51  0.  0.
   353  3.52  0.  0.
   354  3.53  0.  0.
   355  3.54  0.  0.
   356  3.55  0.  0.
   357  3.56  0.  0.
   358  3.57  0.  0.
   359  3.58  0.  0.
   360  3.59  0.  0.
   361  3.60  0.  0.
   362  3.61  0.  0.
   363  3.62  0.  0.
   364  3.63  0.  0.
   365  3.64  0.  0.
   366  3.65  0.  0.
   367  3.66  0.  0.
   368  3.67  0.  0.
   369  3.68  0.  0.
   370  3.69  0.  0.
   371  3.70  0.  0.
   372  3.71  0.  0.
   373  3.72  0.  0.
   374  3.73  0.  0.
   375  3.74  0.  0.
   376  3.75  0.  0.
   377  3.76  0.  0.
   378  3.77  0.  0.
   379  3.78  0.  0.
   380  3.79  0.  0.
   381  3.80  0.  0.
   382  3.81  0.  0.
   383  3.82  0.  0.
   384  3.83  0.  0.
   385  3.84  0.  0.
   386  3.85  0.  0.
   387  3.86  0.  0.
   388  3.87  0.  0.
   389  3.88  0.  0.
   390  3.89  0.  0.
   391  3.90  0.  0.
   392  3.91  0.  0.
   393  3.92  0.  0.
   394  3.93  0.  0.
   395  3.94  0.  0.
   396  3.95  0.  0.
   397  3.96  0.  0.
   398  3.97  0.  0.
   399  3.98  0.  0.
   400  3.99  0.  0.
   401  4.00  0.  0.
   402  4.01  0.  0.
   403  4.02  0.  0.
   404  4.03  0.  0.
   405  4.04  0.  0.
   406  4.05  0.  0.
   407  4.06  0.  0.
   408  4.07  0.  0.
   409  4.08  0.  0.
   410  4.09  0.  0.
   411  4.10  0.  0.
   412  4.11  0.  0.
   413  4.12  0.  0.
   414  4.13  0.  0.
   415  4.14  0.  0.
   416  4.15  0.  0.
   417  4.16  0.  0.
   418  4.17  0.  0.
   419  4.18  0.  0.
   420  4.19  0.  0.
   421  4.20  0.  0.
   422  4.21  0.  0.
   423  4.22  0.  0.
   424  4.23  0.  0.
   425  4.24  0.  0.
   426  4.25  0.  0.
   427  4.26  0.  0.
   428  4.27  0.  0.
   429  4.28  0.  0.
   430  4.29  0.  0.
   431  4.30  0.  0.
   432  4.31  0.  0.
   433  4.32  0.  0.
   434  4.33  0.  0.
   435  4.34  0.  0.
   436  4.35  0.  0.
   437  4.36  0.  0.
   438  4.37  0.  0.
   439  4.38  0.  0.
   440  4.39  0.  0.
   441  4.40  0.  0.
   442  4.41  0.  0.
   443  4.42  0.  0.
   444  4.43  0.  0.
   445  4.44  0.  0.
   446  4.45  0.  0.
   447  4.46  0.  0.
   448  4.47  0.  0.
   449  4.48  0.  0.
   450  4.49  0.  0.
   451  4.50  0.  0.
   452  4.51  0.  0.
   453  4.52  0.  0.
   454  4.53  0.  0.
   455  4.54  0.  0.
   456  4.55  0.  0.
   457  4.56  0.  0.
   458  4.57  0.  0.
   459  4.58  0.  0.
   460  4.59  0.  0.
   461  4.60  0.  0.
   462  4.61  0.  0.
   463  4.62  0.  0.
   464  4.63  0.  0.
   465  4.64  0.  0.
   466  4.65  0.  0.
   467  4.66  0.  0.
   468  4.67  0.  0.
   469  4.68  0.  0.
   470  4.69  0.  0.
   471  4.70  0.  0.
   472  4.71  0.  0.
   473  4.72  0.  0.
   474  4.73  0.  0.
   475  4.74  0.  0.
   476  4.75  0.  0.
   477  4.76  0.  0.
   478  4.77  0.  0.
   479  4.78  0.  0.
   480  4.79  0.  0.
   481  4.80  0.  0.
   482  4.81  0.  0.
   483  4.82  0.  0.
   484  4.83  0.  0.
   485  4.84  0.  0.
   486  4.85  0.  0.
   487  4.86  0.  0.
   488  4.87  0.  0.
   489  4.88  0.  0.
   490  4.89  0.  0.
   491  4.90  0.  0.
   492  4.91  0.  0.
   493  4.92  0.  0.
   494  4.93  0.  0.
   495  4.94  0.  0.
   496  4.95  0.  0.
   497  4.96  0.  0.
   498  4.97  0.  0.
   499  4.98  0.  0.
   500  4.99  0.  0.
   501  5.00  0.  0.
   502  5.01  0.  0.
   503  5.02  0.  0.
   504  5.03  0.  0.
   505  5.04  0.  0.
   506  5.05  0.  0.
   507  5.06  0.  0.
   508  5.07  0.  0.
   509  5.08  0.  0.
   510  5.09  0.  0.
   511  5.10  0.  0.
   512  5.11  0.  0.
   513  5.12  0.  0.
   514  5.13  0.  0.
   515  5.14  0.  0.
   516  5.15  0.  0.
   517  5.16  0.  0.
   518  5.17  0.  0.
   519  5.18  0.  0.
   520  5.19  0.  0.
   521  5.20  0.  0.
   522  5.21  0.  0.
   523  5.22  0.  0.
   524  5.23  0.  0.
   525  5.24  0.  0.
   526  5.25  0.  0.
   527  5.26  0.  0.
   528  5.27  0.  0.
   529  5.28  0.  0.
   530  5.29  0.  0.
   531  5.30  0.  0.
   532  5.31  0.  0.
   533  5.32  0.  0.
   534  5.33  0.  0.
   535  5.34  0.  0.
   536  5.35  0.  0.
   537  5.36  0.  0.
   538  5.37  0.  0.
   539  5.38  0.  0.
   540  5.39  0.  0.
   541  5.40  0.  0.
   542  5.41  0.  0.
   543  5.42  0.  0.
   544  5.43  0.  0.
   545  5.44  0.  0.
   546  5.45  0.  0.
   547  5.46  0.  0.
   548  5.47  0.  0.
   549  5.48  0.  0.
   550  5.49  0.  0.
   551  5.50  0.  0.
   552  5.51  0.  0.
   553  5.52  0.  0.
   554  5.53  0.  0.
   555  5.54  0.  0.
   556  5.55  0.  0.
   557  5.56  0.  0.
   558  5.57  0.  0.
   559  5.58  0.  0.
   560  5.59  0.  0.
   561  5.60  0.  0.
   562  5.61  0.  0.
   563  5.62  0.  0.
   564  5.63  0.  0.
   565  5.64  0.  0.
   566  5.65  0.  0.
   567  5.66  0.  0.
   568  5.67  0.  0.
   569  5.68  0.  0.
   570  5.69  0.  0.
   571  5.70  0.  0.
   572  5.71  0.  0.
   573  5.72  0.  0.
   574  5.73  0.  0.
   575  5.74  0.  0.
   576  5.75  0.  0.
   577  5.76  0.  0.
   578  5.77  0.  0.
   579  5.78  0.  0.
   580  5.79  0.  0.
   581  5.80  0.  0.
   582  5.81  0.  0.
   583  5.82  0.  0.
   584  5.83  0.  0.
   585  5.84  0.  0.
   586  5.85  0.  0.
   587  5.86  0.  0.
   588  5.87  0.  0.
   589  5.88  0.  0.
   590  5.89  0.  0.
   591  5.90  0.  0.
   592  5.91  0.  0.
   593  5.92  0.  0.
   594  5.93  0.  0.
   595  5.94  0.  0.
   596  5.95  0.  0.
   597  5.96  0.  0.
   598  5.97  0.  0.
   599  5.98  0.  0.
   600  5.99  0.  0.
   1                         6.2027658199118E+00  7.5879348749033E-01  1.4601653509198E-02
     1  0.0000000000000E+00 -1.7341541397320E-10  3.6040016110350E-10  4.7443722284157E-09
     2  1.0000000000000E-02  4.9176236944264E-04 -1.6518221021049E-04  1.8231712506984E-03
     3  2.0000000000000E-02  1.9669759187756E-03 -6.6155618191785E-04  7.2715611936076E-03
     4  3.0000000000000E-02  4.4254122358711E-03 -1.4915869782472E-03  1.6282035992493E-02
     5  4.0000000000000E-02  7.8666649447005E-03 -2.6593267007562E-03  2.8750161970790E-02
     6  5.0000000000000E-02  1.2290111501934E-02 -4.1703306703828E-03  4.4531380659164E-02
     7  6.0000000000000E-02  1.7694860369206E-02 -6.0315414460645E-03  6.3442635903681E-02
     8  7.0000000000000E-02  2.4079684209689E-02 -8.2511420290112E-03  8.5264435303019E-02
     9  8.0000000000000E-02  3.1442939931048E-02 -1.0838379961013E-02  1.0974332349876E-01
    10  9.0000000000000E-02  3.9782476561563E-02 -1.3803364367573E-02  1.3659474033527E-01
    11  1.0000000000000E-01  4.9095532100335E-02 -1.7156838317205E-02  1.6550623268227E-01
    12  1.1000000000000E-01  5.9378620624589E-02 -2.0909929163603E-02  1.9614098481908E-01
    13  1.2000000000000E-01  7.0627411065354E-02 -2.5073879804407E-02  2.2814162875622E-01
    14  1.3000000000000E-01  8.2836599176146E-02 -2.9659764026053E-02  2.6113429275410E-01
    15  1.4000000000000E-01  9.5999774316159E-02 -3.4678189306143E-02  2.9473284362559E-01
    16  1.5000000000000E-01  1.1010928274917E-01 -4.0138990610782E-02  3.2854327620472E-01
    17  1.6000000000000E-01  1.2515608922063E-01 -4.6050918852438E-02  3.6216820165626E-01
    18  1.7000000000000E-01  1.4112963861795E-01 -5.2421327762796E-02  3.9521138510456E-01
    19  1.8000000000000E-01  1.5801771954180E-01 -5.9255862983606E-02  4.2728228239288E-01
    20  1.9000000000000E-01  1.7580633161963E-01 -6.6558157186187E-02  4.5800052565163E-01
    21  2.0000000000000E-01  1.9447955837602E-01 -7.4329534996786E-02  4.8700030776009E-01
    22  2.1000000000000E-01  2.1401944743801E-01 -8.2568731430567E-02  5.1393461672741E-01
    23  2.2000000000000E-01  2.3440589979808E-01 -9.1271627422489E-02  5.3847927248775E-01
    24  2.3000000000000E-01  2.5561656978266E-01 -1.0043100588952E-01  5.6033672058571E-01
    25  2.4000000000000E-01  2.7762677728156E-01 -1.1003633156731E-01  5.7923953970458E-01
    26  2.5000000000000E-01  3.0040943368342E-01 -1.2007355763715E-01  5.9495362293539E-01
    27  2.6000000000000E-01  3.2393498283657E-01 -1.3052496189859E-01  6.0728099607067E-01
    28  2.7000000000000E-01  3.4817135821327E-01 -1.4136901495129E-01  6.1606223999890E-01
    29  2.8000000000000E-01  3.7308395730118E-01 -1.5258028253038E-01  6.2117848843593E-01
    30  2.9000000000000E-01  3.9863563407936E-01 -1.6412936379542E-01  6.2255297671517E-01
    31  3.0000000000000E-01  4.2478671025971E-01 -1.7598286700761E-01  6.2015212212407E-01
    32  3.1000000000000E-01  4.5149500578969E-01 -1.8810342364732E-01  6.1398612127036E-01
    33  3.2000000000000E-01  4.7871588892096E-01 -2.0044974162797E-01  6.0410905513735E-01
    34  3.3000000000000E-01  5.0640234595257E-01 -2.1297669785635E-01  5.9061849778871E-01
    35  3.4000000000000E-01  5.3450507055905E-01 -2.2563546997938E-01  5.7365463005468E-01
    36  3.5000000000000E-01  5.6297257241500E-01 -2.3837370674552E-01  5.5339886491769E-01
    37  3.6000000000000E-01  5.9175130463075E-01 -2.5113573600115E-01  5.3007199665911E-01
    38  3.7000000000000E-01  6.2078580932047E-01 -2.6386280894207E-01  5.0393189107371E-01
    39  3.8000000000000E-01  6.5001888043639E-01 -2.7649337885211E-01  4.7527073914916E-01
    40  3.9000000000000E-01  6.7939174282335E-01 -2.8896341218893E-01  4.4441190148977E-01
    41  4.0000000000000E-01  7.0884424627782E-01 -3.0120672952503E-01  4.1170637538410E-01
    42  4.1000000000000E-01  7.3831507323700E-01 -3.1315537352417E-01  3.7752892072600E-01
    43  4.2000000000000E-01  7.6774195857844E-01 -3.2474000083322E-01  3.4227388494901E-01
    44  4.3000000000000E-01  7.9706191988020E-01 -3.3589029449919E-01  3.0635077068339E-01
    45  4.4000000000000E-01  8.2621149637746E-01 -3.4653539328605E-01  2.7017959295201E-01
    46  4.5000000000000E-01  8.5512699475475E-01 -3.5660433406589E-01  2.3418607535112E-01
    47  4.6000000000000E-01  8.8374473983495E-01 -3.6602650329860E-01  1.9879673678394E-01
    48  4.7000000000000E-01  9.1200132816785E-01 -3.7473209349385E-01  1.6443392190396E-01
    49  4.8000000000000E-01  9.3983388248248E-01 -3.8265256047114E-01  1.3151082945868E-01
    50  4.9000000000000E-01  9.6718030495012E-01 -3.8972107719866E-01  1.0042659319213E-01
    51  5.0000000000000E-01  9.9397952720799E-01 -3.9587298000049E-01  7.1561469852607E-02
    52  5.1000000000000E-01  1.0201717551185E+00 -4.0104620297393E-01  4.5272188162477E-02
    53  5.2000000000000E-01  1.0456987062835E+00 -4.0518169655532E-01  2.1887511338583E-02
    54  5.3000000000000E-01  1.0705038384001E+00 -4.0822382631098E-01  1.7040639166308E-03
    55  5.4000000000000E-01  1.0945325666287E+00 -4.1012074821071E-01 -1.5017528754714E-02
    56  5.5000000000000E-01  1.1177324682497E+00 -4.1082475686118E-01 -2.8056142905158E-02
    57  5.6000000000000E-01  1.1400534730095E+00 -4.1029260343480E-01 -3.7233258598356E-02
    58  5.7000000000000E-01  1.1614480376918E+00 -4.0848578032262E-01 -4.2415623730276E-02
    59  5.8000000000000E-01  1.1818713036125E+00 -4.0537076986541E-01 -4.3517445982238E-02
    60  5.9000000000000E-01  1.2012812358969E+00 -4.0091925487206E-01 -4.0502083670016E-02
    61  6.0000000000000E-01  1.2196387435881E+00 -3.9510828901403E-01 -3.3383211505818E-02
    62  6.1000000000000E-01  1.2369077798192E+00 -3.8792042558689E-01 -2.2225442664917E-02