Cs    ONCVPSP-4.0.1  r_core=   2.26263   1.85729   2.00749   1.90227
     55.0000      9.0000      231019    zatom,zion,pspd
     8       2   3     4   600     0    pspcod,pspxc,lmax,lloc,mmax,r2well
  5.99000000  5.00000000  0.00000000    rchrg fchrg qchrg
     2     2     2     2     0    nproj
     1     1           extension_switch
   0                         6.0500415365593E+00  6.9988705449718E-01
     1  0.0000000000000E+00 -4.7369608235925E-12  1.8268039858604E-11
     2  1.0000000000000E-02  2.5331708536892E-02 -8.5880201571894E-03
     3  2.0000000000000E-02  5.0654682467111E-02 -1.7161629263400E-02
     4  3.0000000000000E-02  7.5960194326808E-02 -2.5706490348701E-02
     5  4.0000000000000E-02  1.0123953080083E-01 -3.4208413953817E-02
     6  5.0000000000000E-02  1.2648399945594E-01 -4.2653430261448E-02
     7  6.0000000000000E-02  1.5168493506792E-01 -5.1027859291734E-02
     8  7.0000000000000E-02  1.7683370541297E-01 -5.9318378537984E-02
     9  8.0000000000000E-02  2.0192171639816E-01 -6.7512087437085E-02
    10  9.0000000000000E-02  2.2694041641190E-01 -7.5596568091551E-02
    11  1.0000000000000E-01  2.5188129978204E-01 -8.3559941686974E-02
    12  1.1000000000000E-01  2.7673590923752E-01 -9.1390920079498E-02
    13  1.2000000000000E-01  3.0149583727814E-01 -9.9078852062729E-02
    14  1.3000000000000E-01  3.2615272636723E-01 -1.0661376386182E-01
    15  1.4000000000000E-01  3.5069826787259E-01 -1.1398639344445E-01
    16  1.5000000000000E-01  3.7512419969290E-01 -1.2118821828332E-01
    17  1.6000000000000E-01  3.9942230251887E-01 -1.2821147625300E-01
    18  1.7000000000000E-01  4.2358439469170E-01 -1.3504917939427E-01
    19  1.8000000000000E-01  4.4760232563467E-01 -1.4169512033226E-01
    20  1.9000000000000E-01  4.7146796784803E-01 -1.4814387118977E-01
    21  2.0000000000000E-01  4.9517320747153E-01 -1.5439077489316E-01
    22  2.1000000000000E-01  5.1870993343381E-01 -1.6043192882703E-01
    23  2.2000000000000E-01  5.4207002522271E-01 -1.6626416085201E-01
    24  2.3000000000000E-01  5.6524533932564E-01 -1.7188499775980E-01
    25  2.4000000000000E-01  5.8822769440402E-01 -1.7729262629946E-01
    26  2.5000000000000E-01  6.1100885528078E-01 -1.8248584696810E-01
    27  2.6000000000000E-01  6.3358051583449E-01 -1.8746402081825E-01
    28  2.7000000000000E-01  6.5593428090809E-01 -1.9222700959255E-01
    29  2.8000000000000E-01  6.7806164735400E-01 -1.9677510955244E-01
    30  2.9000000000000E-01  6.9995398435080E-01 -2.0110897942329E-01
    31  3.0000000000000E-01  7.2160251313938E-01 -2.0522956293084E-01
    32  3.1000000000000E-01  7.4299828633838E-01 -2.0913800645465E-01
    33  3.2000000000000E-01  7.6413216701008E-01 -2.1283557237178E-01
    34  3.3000000000000E-01  7.8499480765780E-01 -2.1632354870870E-01
    35  3.4000000000000E-01  8.0557662934539E-01 -2.1960315576041E-01
    36  3.5000000000000E-01  8.2586780113739E-01 -2.2267545037315E-01
    37  3.6000000000000E-01  8.4585822006521E-01 -2.2554122862049E-01
    38  3.7000000000000E-01  8.6553749183062E-01 -2.2820092763125E-01
    39  3.8000000000000E-01  8.8489491246208E-01 -2.3065452735228E-01
    40  3.9000000000000E-01  9.0391945114220E-01 -2.3290145304855E-01
    41  4.0000000000000E-01  9.2259973442669E-01 -2.3494047935732E-01
    42  4.1000000000000E-01  9.4092403207463E-01 -2.3676963672283E-01
    43  4.2000000000000E-01  9.5888024470889E-01 -2.3838612104132E-01
    44  4.3000000000000E-01  9.7645589352232E-01 -2.3978620734512E-01
    45  4.4000000000000E-01  9.9363811224080E-01 -2.4096516834708E-01
    46  4.5000000000000E-01  1.0104136415483E+00 -2.4191719865405E-01
    47  4.6000000000000E-01  1.0267688261709E+00 -2.4263534543981E-01
    48  4.7000000000000E-01  1.0426896148089E+00 -2.4311144634357E-01
    49  4.8000000000000E-01  1.0581615630920E+00 -2.4333607533107E-01
    50  4.9000000000000E-01  1.0731698397257E+00 -2.4329849721969E-01
    51  5.0000000000000E-01  1.0876992359774E+00 -2.4298663152906E-01
    52  5.1000000000000E-01  1.1017341786388E+00 -2.4238702627267E-01
    53  5.2000000000000E-01  1.1152587465852E+00 -2.4148484225539E-01
    54  5.3000000000000E-01  1.1282566910315E+00 -2.4026384838632E-01
    55  5.4000000000000E-01  1.1407114595678E+00 -2.3870642845617E-01
    56  5.5000000000000E-01  1.1526062240373E+00 -2.3679359976413E-01
    57  5.6000000000000E-01  1.1639239122958E+00 -2.3450504391072E-01
    58  5.7000000000000E-01  1.1746472438728E+00 -2.3181915000118E-01
    59  5.8000000000000E-01  1.1847587695283E+00 -2.2871307042864E-01
    60  5.9000000000000E-01  1.1942409146780E+00 -2.2516278932848E-01
    61  6.0000000000000E-01  1.2030760266333E+00 -2.2114320371435E-01
    62  6.1000000000000E-01  1.2112464255785E+00 -2.1662821722429E-01
    63  6.2000000000000E-01  1.2187344591827E+00 -2.1159084632105E-01
    64  6.3000000000000E-01  1.2255225607190E+00 -2.0600333870603E-01
    65  6.4000000000000E-01  1.2315933105357E+00 -1.9983730362028E-01
    66  6.5000000000000E-01  1.2369295007027E+00 -1.9306385362110E-01
    67  6.6000000000000E-01  1.2415142026290E+00 -1.8565375733721E-01
    68  6.7000000000000E-01  1.2453308374227E+00 -1.7757760262208E-01
    69  6.8000000000000E-01  1.2483632487424E+00 -1.6880596944199E-01
    70  6.9000000000000E-01  1.2505957778645E+00 -1.5930961175628E-01
    71  7.0000000000000E-01  1.2520133406698E+00 -1.4905964756852E-01
    72  7.1000000000000E-01  1.2526015062301E+00 -1.3802775625409E-01
    73  7.2000000000000E-01  1.2523465766577E+00 -1.2618638219856E-01
    74  7.3000000000000E-01  1.2512356678597E+00 -1.1350894371509E-01
    75  7.4000000000000E-01  1.2492567908250E+00 -9.9970046147386E-02
    76  7.5000000000000E-01  1.2463989330530E+00 -8.5545698008925E-02
    77  7.6000000000000E-01  1.2426521397222E+00 -7.0213528957439E-02
    78  7.7000000000000E-01  1.2380075941844E+00 -5.3953008360202E-02
    79  7.8000000000000E-01  1.2324576973590E+00 -3.6745663166693E-02
    80  7.9000000000000E-01  1.2259961455980E+00 -1.8575293774392E-02
    81  8.0000000000000E-01  1.2186180065813E+00  5.7181345093537E-04
    82  8.1000000000000E-01  1.2103197928058E+00  2.0706678355116E-02
    83  8.2000000000000E-01  1.2010995322240E+00  4.1837425240021E-02
    84  8.3000000000000E-01  1.1909568355967E+00  6.3969088537036E-02
    85  8.4000000000000E-01  1.1798929601206E+00  8.7103427267264E-02
    86  8.5000000000000E-01  1.1679108689076E+00  1.1123874963056E-01
    87  8.6000000000000E-01  1.1550152858925E+00  1.3636974904184E-01
    88  8.7000000000000E-01  1.1412127457654E+00  1.6248735290092E-01
    89  8.8000000000000E-01  1.1265116385346E+00  1.8957858534140E-01
    90  8.9000000000000E-01  1.1109222483441E+00  2.1762644515615E-01
    91  9.0000000000000E-01  1.0944567861902E+00  2.4660980003942E-01
    92  9.1000000000000E-01  1.0771294162013E+00  2.7650329822113E-01
    93  9.2000000000000E-01  1.0589562751703E+00  3.0727729849667E-01
    94  9.3000000000000E-01  1.0399554850558E+00  3.3889781957514E-01
    95  9.4000000000000E-01  1.0201471581944E+00  3.7132650958258E-01
    96  9.5000000000000E-01  9.9955339499974E-01  4.0452063646227E-01
    97  9.6000000000000E-01  9.7819827395393E-01  4.3843309991521E-01
    98  9.7000000000000E-01  9.5610783373208E-01  4.7301246541692E-01
    99  9.8000000000000E-01  9.3331004733620E-01  5.0820302073627E-01
   100  9.9000000000000E-01  9.0983478815149E-01  5.4394485526629E-01
   101  1.0000000000000E+00  8.8571378787663E-01  5.8017396235622E-01
   102  1.0100000000000E+00  8.6098058631892E-01  6.1682236471118E-01
   103  1.0200000000000E+00  8.3567047308513E-01  6.5381826279904E-01
   104  1.0300000000000E+00  8.0982042123999E-01  6.9108620607562E-01
   105  1.0400000000000E+00  7.8346901304531E-01  7.2854728670961E-01
   106  1.0500000000000E+00  7.5665635793428E-01  7.6611935535735E-01
   107  1.0600000000000E+00  7.2942400291671E-01  8.0371725840742E-01
   108  1.0700000000000E+00  7.0181483565230E-01  8.4125309598518E-01
   109  1.0800000000000E+00  6.7387298046959E-01  8.7863649987863E-01
   110  1.0900000000000E+00  6.4564368764797E-01  9.1577493042190E-01
   111  1.1000000000000E+00  6.1717321631946E-01  9.5257399124928E-01
   112  1.1100000000000E+00  5.8850871138420E-01  9.8893776071417E-01
   113  1.1200000000000E+00  5.5969807487028E-01  1.0247691386534E+00
   114  1.1300000000000E+00  5.3078983220292E-01  1.0599702070684E+00
   115  1.1400000000000E+00  5.0183299388095E-01  1.0944426031921E+00
   116  1.1500000000000E+00  4.7287691308911E-01  1.1280879033152E+00
   117  1.1600000000000E+00  4.4397113980301E-01  1.1608080156568E+00
   118  1.1700000000000E+00  4.1516527196971E-01  1.1925055804838E+00
   119  1.1800000000000E+00  3.8650880436990E-01  1.2230843756136E+00
   120  1.1900000000000E+00  3.5805097578823E-01  1.2524497253711E+00
   121  1.2000000000000E+00  3.2984061513558E-01  1.2805089110187E+00
   122  1.2100000000000E+00  3.0192598718176E-01  1.3071715806374E+00
   123  1.2200000000000E+00  2.7435463856777E-01  1.3323501564026E+00
   124  1.2300000000000E+00  2.4717324477475E-01  1.3559602371809E+00
   125  1.2400000000000E+00  2.2042745873109E-01  1.3779209943621E+00
   126  1.2500000000000E+00  1.9416176173993E-01  1.3981555588439E+00
   127  1.2600000000000E+00  1.6841931740645E-01  1.4165913970990E+00
   128  1.2700000000000E+00  1.4324182923839E-01  1.4331606742813E+00
   129  1.2800000000000E+00  1.1866940258316E-01  1.4478006023625E+00
   130  1.2900000000000E+00  9.4740411551492E-02  1.4604537713390E+00
   131  1.3000000000000E+00  7.1491371560896E-02  1.4710684616100E+00
   132  1.3100000000000E+00  4.8956818111577E-02  1.4795989356967E+00
   133  1.3200000000000E+00  2.7169192383900E-02  1.4860057075539E+00
   134  1.3300000000000E+00  6.1587342193419E-03  1.4902557878205E+00
   135  1.3400000000000E+00 -1.4046616983298E-02  1.4923229034527E+00
   136  1.3500000000000E+00 -3.3421312957754E-02  1.4921876903013E+00
   137  1.3600000000000E+00 -5.1942278383804E-02  1.4898378573101E+00
   138  1.3700000000000E+00 -6.9588983400637E-02  1.4852683211471E+00
   139  1.3800000000000E+00 -8.6343506437610E-02  1.4784813102127E+00
   140  1.3900000000000E+00 -1.0219058702345E-01  1.4694864371183E+00
   141  1.4000000000000E+00 -1.1711766828040E-01  1.4583007388748E+00
   142  1.4100000000000E+00 -1.3111492885751E-01  1.4449486841922E+00
   143  1.4200000000000E+00 -1.4417530410589E-01  1.4294621474460E+00
   144  1.4300000000000E+00 -1.5629449634923E-01  1.4118803490385E+00
   145  1.4400000000000E+00 -1.6747097415399E-01  1.3922497620432E+00
   146  1.4500000000000E+00 -1.7770596055566E-01  1.3706239851955E+00
   147  1.4600000000000E+00 -1.8700341025023E-01  1.3470635824605E+00
   148  1.4700000000000E+00 -1.9536997581201E-01  1.3216358895803E+00
   149  1.4800000000000E+00 -2.0281496305194E-01  1.2944147881712E+00
   150  1.4900000000000E+00 -2.0935027568222E-01  1.2654804481099E+00
   151  1.5000000000000E+00 -2.1499034950430E-01  1.2349190391107E+00
   152  1.5100000000000E+00 -2.1975207638765E-01  1.2028224125555E+00
   153  1.5200000000000E+00 -2.2365471835525E-01  1.1692877547948E+00
   154  1.5300000000000E+00 -2.2671981213951E-01  1.1344172132861E+00
   155  1.5400000000000E+00 -2.2897106461694E-01  1.0983174970768E+00
   156  1.5500000000000E+00 -2.3043423957372E-01  1.0610994532762E+00
   157  1.5600000000000E+00 -2.3113703629454E-01  1.0228776212842E+00
   158  1.5700000000000E+00 -2.3110896050548E-01  9.8376976666124E-01
   159  1.5800000000000E+00 -2.3038118823665E-01  9.4389639663075E-01
   160  1.5900000000000E+00 -2.2898642320241E-01  9.0338025930104E-01
   161  1.6000000000000E+00 -2.2695874832588E-01  8.6234582877562E-01
   162  1.6100000000000E+00 -2.2433347205943E-01  8.2091877839460E-01
   163  1.6200000000000E+00 -2.2114697017467E-01  7.7922544440837E-01
   164  1.6300000000000E+00 -2.1743652371330E-01  7.3739228243105E-01
   165  1.6400000000000E+00 -2.1324015380406E-01  6.9554531905449E-01
   166  1.6500000000000E+00 -2.0859645406102E-01  6.5380960102337E-01
   167  1.6600000000000E+00 -2.0354442128454E-01  6.1230864437743E-01
   168  1.6700000000000E+00 -1.9812328518790E-01  5.7116388595932E-01
   169  1.6800000000000E+00 -1.9237233787057E-01  5.3049413966473E-01
   170  1.6900000000000E+00 -1.8633076375268E-01  4.9041505977587E-01
   171  1.7000000000000E+00 -1.8003747067490E-01  4.5103861367060E-01
   172  1.7100000000000E+00 -1.7353092285367E-01  4.1247256613708E-01
   173  1.7200000000000E+00 -1.6684897636326E-01  3.7481997744823E-01
   174  1.7300000000000E+00 -1.6002871779444E-01  3.3817871726287E-01
   175  1.7400000000000E+00 -1.5310630671326E-01  3.0264099631957E-01
   176  1.7500000000000E+00 -1.4611682251468E-01  2.6829291777841E-01
   177  1.7600000000000E+00 -1.3909411623290E-01  2.3521404994282E-01
   178  1.7700000000000E+00 -1.3207066783455E-01  2.0347702196114E-01
   179  1.7800000000000E+00 -1.2507744948200E-01  1.7314714396481E-01
   180  1.7900000000000E+00 -1.1814379521312E-01  1.4428205295081E-01
   181  1.8000000000000E+00 -1.1129727743940E-01  1.1693138555533E-01
   182  1.8100000000000E+00 -1.0456359061860E-01  9.1136478702008E-02
   183  1.8200000000000E+00 -9.7966442409984E-02  6.6930098936293E-02
   184  1.8300000000000E+00 -9.1527452482392E-02  4.4336200616508E-02
   185  1.8400000000000E+00 -8.5266059232052E-02  2.3369713766192E-02
   186  1.8500000000000E+00 -7.9199438770300E-02  4.0363833789533E-03
   187  1.8600000000000E+00 -7.3342411236829E-02 -1.3667470014543E-02
   188  1.8700000000000E+00 -6.7707472707408E-02 -2.9754543386393E-02
   189  1.8800000000000E+00 -6.2305053153387E-02 -4.4245013872778E-02
   190  1.8900000000000E+00 -5.7143746165446E-02 -5.7165257237482E-02
   191  1.9000000000000E+00 -5.2230334576409E-02 -6.8547692745438E-02
   192  1.9100000000000E+00 -4.7569834602734E-02 -7.8430545256942E-02
   193  1.9200000000000E+00 -4.3165545010879E-02 -8.6857597791229E-02
   194  1.9300000000000E+00 -3.9019105010203E-02 -9.3877913757771E-02
   195  1.9400000000000E+00 -3.5130559862704E-02 -9.9545533751155E-02
   196  1.9500000000000E+00 -3.1498433940970E-02 -1.0391914767875E-01
   197  1.9600000000000E+00 -2.8119810757541E-02 -1.0706174403318E-01
   198  1.9700000000000E+00 -2.4990419474683E-02 -1.0904023812394E-01
   199  1.9800000000000E+00 -2.2104727368823E-02 -1.0992508119914E-01
   200  1.9900000000000E+00 -1.9456037694241E-02 -1.0978985248743E-01
   201  2.0000000000000E+00 -1.7036592360287E-02 -1.0871083629106E-01
   202  2.0100000000000E+00 -1.4837678812999E-02 -1.0676658633813E-01
   203  2.0200000000000E+00 -1.2849740489815E-02 -1.0403747967489E-01
   204  2.0300000000000E+00 -1.1062490198047E-02 -1.0060526243701E-01
   205  2.0400000000000E+00 -9.4650257530164E-03 -9.6552589885685E-02
   206  2.0500000000000E+00 -8.0459472014150E-03 -9.1962563126203E-02
   207  2.0600000000000E+00 -6.7934749474824E-03 -8.6918264949429E-02
   208  2.0700000000000E+00 -5.6955680967440E-03 -8.1502297242502E-02
   209  2.0800000000000E+00 -4.7400423322047E-03 -7.5796322410004E-02
   210  2.0900000000000E+00 -3.9146866421566E-03 -6.9880611227677E-02
   211  2.1000000000000E+00 -3.2073782267127E-03 -6.3833599518903E-02
   212  2.1100000000000E+00 -2.6061940604072E-03 -5.7731458074501E-02
   213  2.1200000000000E+00 -2.0995254993084E-03 -5.1647661236586E-02
   214  2.1300000000000E+00 -1.6761716133898E-03 -4.5652612994754E-02
   215  2.1400000000000E+00 -1.3254496135458E-03 -3.9813238770860E-02
   216  2.1500000000000E+00 -1.0373427092165E-03 -3.4192504419075E-02
   217  2.1600000000000E+00 -8.0325225737586E-04 -2.8847444857785E-02
   218  2.1700000000000E+00 -6.1521435452172E-04 -2.3830921034622E-02
   219  2.1800000000000E+00 -4.6502496173435E-04 -1.9193647998486E-02
   220  2.1900000000000E+00 -3.4555475597164E-04 -1.4980992069407E-02
   221  2.2000000000000E+00 -2.5070109604192E-04 -1.1232986752240E-02
   222  2.2100000000000E+00 -1.7545771914898E-04 -7.9840835161868E-03
   223  2.2200000000000E+00 -1.1596432163049E-04 -5.2629640323213E-03
   224  2.2300000000000E+00 -6.9586153992446E-05 -3.0935776522816E-03
   225  2.2400000000000E+00 -3.4612632771814E-05 -1.4833653806455E-03
   226  2.2500000000000E+00 -1.1494228313134E-05 -4.6684531304071E-04
   227  2.2600000000000E+00 -1.0707767984264E-06 -4.0246667139856E-05
   228  2.2700000000000E+00  6.1988753345784E-07  2.3333684943020E-05
   229  2.2800000000000E+00 -1.7198411264739E-07 -6.7601590354418E-06
   230  2.29  0.  0.
   231  2.30  0.  0.
   232  2.31  0. -0.
   233  2.32  0.  0.
   234  2.33  0.  0.
   235  2.34  0.  0.
   236  2.35  0.  0.
   237  2.36  0.  0.
   238  2.37  0.  0.
   239  2.38  0.  0.
   240  2.39  0.  0.
   241  2.40  0.  0.
   242  2.41  0.  0.
   243  2.42  0.  0.
   244  2.43  0.  0.
   245  2.44  0.  0.
   246  2.45  0.  0.
   247  2.46  0.  0.
   248  2.47  0.  0.
   249  2.48  0.  0.
   250  2.49  0.  0.
   251  2.50  0.  0.
   252  2.51  0.  0.
   253  2.52  0.  0.
   254  2.53  0.  0.
   255  2.54  0.  0.
   256  2.55  0.  0.
   257  2.56  0.  0.
   258  2.57  0.  0.
   259  2.58  0.  0.
   260  2.59  0.  0.
   261  2.60  0.  0.
   262  2.61  0.  0.
   263  2.62  0.  0.
   264  2.63  0.  0.
   265  2.64  0.  0.
   266  2.65  0.  0.
   267  2.66  0.  0.
   268  2.67  0.  0.
   269  2.68  0.  0.
   270  2.69  0.  0.
   271  2.70  0.  0.
   272  2.71  0.  0.
   273  2.72  0.  0.
   274  2.73  0.  0.
   275  2.74  0.  0.
   276  2.75  0.  0.
   277  2.76  0.  0.
   278  2.77  0.  0.
   279  2.78  0.  0.
   280  2.79  0.  0.
   281  2.80  0.  0.
   282  2.81  0.  0.
   283  2.82  0.  0.
   284  2.83  0.  0.
   285  2.84  0.  0.
   286  2.85  0.  0.
   287  2.86  0.  0.
   288  2.87  0.  0.
   289  2.88  0.  0.
   290  2.89  0.  0.
   291  2.90  0.  0.
   292  2.91  0.  0.
   293  2.92  0.  0.
   294  2.93  0.  0.
   295  2.94  0.  0.
   296  2.95  0.  0.
   297  2.96  0.  0.
   298  2.97  0.  0.
   299  2.98  0.  0.
   300  2.99  0.  0.
   301  3.00  0.  0.
   302  3.01  0.  0.
   303  3.02  0.  0.
   304  3.03  0.  0.
   305  3.04  0.  0.
   306  3.05  0.  0.
   307  3.06  0.  0.
   308  3.07  0.  0.
   309  3.08  0.  0.
   310  3.09  0.  0.
   311  3.10  0.  0.
   312  3.11  0.  0.
   313  3.12  0.  0.
   314  3.13  0.  0.
   315  3.14  0.  0.
   316  3.15  0.  0.
   317  3.16  0.  0.
   318  3.17  0.  0.
   319  3.18  0.  0.
   320  3.19  0.  0.
   321  3.20  0.  0.
   322  3.21  0.  0.
   323  3.22  0.  0.
   324  3.23  0.  0.
   325  3.24  0.  0.
   326  3.25  0.  0.
   327  3.26  0.  0.
   328  3.27  0.  0.
   329  3.28  0.  0.
   330  3.29  0.  0.
   331  3.30  0.  0.
   332  3.31  0.  0.
   333  3.32  0.  0.
   334  3.33  0.  0.
   335  3.34  0.  0.
   336  3.35  0.  0.
   337  3.36  0.  0.
   338  3.37  0.  0.
   339  3.38  0.  0.
   340  3.39  0.  0.
   341  3.40  0.  0.
   342  3.41  0.  0.
   343  3.42  0.  0.
   344  3.43  0.  0.
   345  3.44  0.  0.
   346  3.45  0.  0.
   347  3.46  0.  0.
   348  3.47  0.  0.
   349  3.48  0.  0.
   350  3.49  0.  0.
   351  3.50  0.  0.
   352  3.51  0.  0.
   353  3.52  0.  0.
   354  3.53  0.  0.
   355  3.54  0.  0.
   356  3.55  0.  0.
   357  3.56  0.  0.
   358  3.57  0.  0.
   359  3.58  0.  0.
   360  3.59  0.  0.
   361  3.60  0.  0.
   362  3.61  0.  0.
   363  3.62  0.  0.
   364  3.63  0.  0.
   365  3.64  0.  0.
   366  3.65  0.  0.
   367  3.66  0.  0.
   368  3.67  0.  0.
   369  3.68  0.  0.
   370  3.69  0.  0.
   371  3.70  0.  0.
   372  3.71  0.  0.
   373  3.72  0.  0.
   374  3.73  0.  0.
   375  3.74  0.  0.
   376  3.75  0.  0.
   377  3.76  0.  0.
   378  3.77  0.  0.
   379  3.78  0.  0.
   380  3.79  0.  0.
   381  3.80  0.  0.
   382  3.81  0.  0.
   383  3.82  0.  0.
   384  3.83  0.  0.
   385  3.84  0.  0.
   386  3.85  0.  0.
   387  3.86  0.  0.
   388  3.87  0.  0.
   389  3.88  0.  0.
   390  3.89  0.  0.
   391  3.90  0.  0.
   392  3.91  0.  0.
   393  3.92  0.  0.
   394  3.93  0.  0.
   395  3.94  0.  0.
   396  3.95  0.  0.
   397  3.96  0.  0.
   398  3.97  0.  0.
   399  3.98  0.  0.
   400  3.99  0.  0.
   401  4.00  0.  0.
   402  4.01  0.  0.
   403  4.02  0.  0.
   404  4.03  0.  0.
   405  4.04  0.  0.
   406  4.05  0.  0.
   407  4.06  0.  0.
   408  4.07  0.  0.
   409  4.08  0.  0.
   410  4.09  0.  0.
   411  4.10  0.  0.
   412  4.11  0.  0.
   413  4.12  0.  0.
   414  4.13  0.  0.
   415  4.14  0.  0.
   416  4.15  0.  0.
   417  4.16  0.  0.
   418  4.17  0.  0.
   419  4.18  0.  0.
   420  4.19  0.  0.
   421  4.20  0.  0.
   422  4.21  0.  0.
   423  4.22  0.  0.
   424  4.23  0.  0.
   425  4.24  0.  0.
   426  4.25  0.  0.
   427  4.26  0.  0.
   428  4.27  0.  0.
   429  4.28  0.  0.
   430  4.29  0.  0.
   431  4.30  0.  0.
   432  4.31  0.  0.
   433  4.32  0.  0.
   434  4.33  0.  0.
   435  4.34  0.  0.
   436  4.35  0.  0.
   437  4.36  0.  0.
   438  4.37  0.  0.
   439  4.38  0.  0.
   440  4.39  0.  0.
   441  4.40  0.  0.
   442  4.41  0.  0.
   443  4.42  0.  0.
   444  4.43  0.  0.
   445  4.44  0.  0.
   446  4.45  0.  0.
   447  4.46  0.  0.
   448  4.47  0.  0.
   449  4.48  0.  0.
   450  4.49  0.  0.
   451  4.50  0.  0.
   452  4.51  0.  0.
   453  4.52  0.  0.
   454  4.53  0.  0.
   455  4.54  0.  0.
   456  4.55  0.  0.
   457  4.56  0.  0.
   458  4.57  0.  0.
   459  4.58  0.  0.
   460  4.59  0.  0.
   461  4.60  0.  0.
   462  4.61  0.  0.
   463  4.62  0.  0.
   464  4.63  0.  0.
   465  4.64  0.  0.
   466  4.65  0.  0.
   467  4.66  0.  0.
   468  4.67  0.  0.
   469  4.68  0.  0.
   470  4.69  0.  0.
   471  4.70  0.  0.
   472  4.71  0.  0.
   473  4.72  0.  0.
   474  4.73  0.  0.
   475  4.74  0.  0.
   476  4.75  0.  0.
   477  4.76  0.  0.
   478  4.77  0.  0.
   479  4.78  0.  0.
   480  4.79  0.  0.
   481  4.80  0.  0.
   482  4.81  0.  0.
   483  4.82  0.  0.
   484  4.83  0.  0.
   485  4.84  0.  0.
   486  4.85  0.  0.
   487  4.86  0.  0.
   488  4.87  0.  0.
   489  4.88  0.  0.
   490  4.89  0.  0.
   491  4.90  0.  0.
   492  4.91  0.  0.
   493  4.92  0.  0.
   494  4.93  0.  0.
   495  4.94  0.  0.
   496  4.95  0.  0.
   497  4.96  0.  0.
   498  4.97  0.  0.
   499  4.98  0.  0.
   500  4.99  0.  0.
   501  5.00  0.  0.
   502  5.01  0.  0.
   503  5.02  0.  0.
   504  5.03  0.  0.
   505  5.04  0.  0.
   506  5.05  0.  0.
   507  5.06  0.  0.
   508  5.07  0.  0.
   509  5.08  0.  0.
   510  5.09  0.  0.
   511  5.10  0.  0.
   512  5.11  0.  0.
   513  5.12  0.  0.
   514  5.13  0.  0.
   515  5.14  0.  0.
   516  5.15  0.  0.
   517  5.16  0.  0.
   518  5.17  0.  0.
   519  5.18  0.  0.
   520  5.19  0.  0.
   521  5.20  0.  0.
   522  5.21  0.  0.
   523  5.22  0.  0.
   524  5.23  0.  0.
   525  5.24  0.  0.
   526  5.25  0.  0.
   527  5.26  0.  0.
   528  5.27  0.  0.
   529  5.28  0.  0.
   530  5.29  0.  0.
   531  5.30  0.  0.
   532  5.31  0.  0.
   533  5.32  0.  0.
   534  5.33  0.  0.
   535  5.34  0.  0.
   536  5.35  0.  0.
   537  5.36  0.  0.
   538  5.37  0.  0.
   539  5.38  0.  0.
   540  5.39  0.  0.
   541  5.40  0.  0.
   542  5.41  0.  0.
   543  5.42  0.  0.
   544  5.43  0.  0.
   545  5.44  0.  0.
   546  5.45  0.  0.
   547  5.46  0.  0.
   548  5.47  0.  0.
   549  5.48  0.  0.
   550  5.49  0.  0.
   551  5.50  0.  0.
   552  5.51  0.  0.
   553  5.52  0.  0.
   554  5.53  0.  0.
   555  5.54  0.  0.
   556  5.55  0.  0.
   557  5.56  0.  0.
   558  5.57  0.  0.
   559  5.58  0.  0.
   560  5.59  0.  0.
   561  5.60  0.  0.
   562  5.61  0.  0.
   563  5.62  0.  0.
   564  5.63  0.  0.
   565  5.64  0.  0.
   566  5.65  0.  0.
   567  5.66  0.  0.
   568  5.67  0.  0.
   569  5.68  0.  0.
   570  5.69  0.  0.
   571  5.70  0.  0.
   572  5.71  0.  0.
   573  5.72  0.  0.
   574  5.73  0.  0.
   575  5.74  0.  0.
   576  5.75  0.  0.
   577  5.76  0.  0.
   578  5.77  0.  0.
   579  5.78  0.  0.
   580  5.79  0.  0.
   581  5.80  0.  0.
   582  5.81  0.  0.
   583  5.82  0.  0.
   584  5.83  0.  0.
   585  5.84  0.  0.
   586  5.85  0.  0.
   587  5.86  0.  0.
   588  5.87  0.  0.
   589  5.88  0.  0.
   590  5.89  0.  0.
   591  5.90  0.  0.
   592  5.91  0.  0.
   593  5.92  0.  0.
   594  5.93  0.  0.
   595  5.94  0.  0.
   596  5.95  0.  0.
   597  5.96  0.  0.
   598  5.97  0.  0.
   599  5.98  0.  0.
   600  5.99  0.  0.
   1                         6.2148972445471E+00  7.5171002568534E-01
     1  0.0000000000000E+00 -1.6832620713947E-10  4.0314022085874E-10
     2  1.0000000000000E-02  4.9264251736605E-04 -1.4690329069999E-04
     3  2.0000000000000E-02  1.9704769395714E-03 -5.8863948344173E-04
     4  3.0000000000000E-02  4.4332163932032E-03 -1.3282684156237E-03
     5  4.0000000000000E-02  7.8803579019907E-03 -2.3708262878104E-03
     6  5.0000000000000E-02  1.2311145426555E-02 -3.7232311387782E-03
     7  6.0000000000000E-02  1.7724518757773E-02 -5.3941520375604E-03
     8  7.0000000000000E-02  2.4119048893334E-02 -7.3938435001037E-03
     9  8.0000000000000E-02  3.1492860695401E-02 -9.7339470412884E-03
    10  9.0000000000000E-02  3.9843543787097E-02 -1.2427262156037E-02
    11  1.0000000000000E-01  4.9168052795200E-02 -1.5487489381867E-02
    12  1.1000000000000E-01  5.9462598184213E-02 -1.8928948425653E-02
    13  1.2000000000000E-01  7.0722529051537E-02 -2.2766274636143E-02
    14  1.3000000000000E-01  8.2942209363335E-02 -2.7014097367640E-02
    15  1.4000000000000E-01  9.6114889204750E-02 -3.1686704006277E-02
    16  1.5000000000000E-01  1.1023257269533E-01 -3.6797693616302E-02
    17  1.6000000000000E-01  1.2528588427999E-01 -4.2359624307245E-02
    18  1.7000000000000E-01  1.4126393514691E-01 -4.8383658522677E-02
    19  1.8000000000000E-01  1.5815419154603E-01 -5.4879210505858E-02
    20  1.9000000000000E-01  1.7594234678466E-01 -6.1853600206570E-02
    21  2.0000000000000E-01  1.9461219866090E-01 -6.9311717856359E-02
    22  2.1000000000000E-01  2.1414553405962E-01 -7.7255703356760E-02
    23  2.2000000000000E-01  2.3452202238222E-01 -8.5684644497374E-02
    24  2.3000000000000E-01  2.5571911940831E-01 -9.4594297849255E-02
    25  2.4000000000000E-01  2.7771198309780E-01 -1.0397683596560E-01
    26  2.5000000000000E-01  3.0047340273467E-01 -1.1382062426821E-01
    27  2.6000000000000E-01  3.2397374269131E-01 -1.2411003070721E-01
    28  2.7000000000000E-01  3.4818090195559E-01 -1.3482527095629E-01
    29  2.8000000000000E-01  3.7306029041230E-01 -1.4594229154868E-01
    30  2.9000000000000E-01  3.9857482270962E-01 -1.5743269297516E-01
    31  3.0000000000000E-01  4.2468493036942E-01 -1.6926369435726E-01
    32  3.1000000000000E-01  4.5134859262103E-01 -1.8139814088150E-01
    33  3.2000000000000E-01  4.7852138625208E-01 -1.9379455473809E-01
    34  3.3000000000000E-01  5.0615655458003E-01 -2.0640722985450E-01
    35  3.4000000000000E-01  5.3420509545543E-01 -2.1918637025592E-01
    36  3.5000000000000E-01  5.6261586801519E-01 -2.3207827142466E-01
    37  3.6000000000000E-01  5.9133571771293E-01 -2.4502554357513E-01
    38  3.7000000000000E-01  6.2030961896595E-01 -2.5796737531387E-01
    39  3.8000000000000E-01  6.4948083457652E-01 -2.7083983572044E-01
    40  3.9000000000000E-01  6.7879109091096E-01 -2.8357621246942E-01
    41  4.0000000000000E-01  7.0818076765516E-01 -2.9610738322054E-01
    42  4.1000000000000E-01  7.3758910081140E-01 -3.0836221713780E-01
    43  4.2000000000000E-01  7.6695439746104E-01 -3.2026800306255E-01
    44  4.3000000000000E-01  7.9621426069068E-01 -3.3175090056408E-01
    45  4.4000000000000E-01  8.2530582296945E-01 -3.4273640982806E-01
    46  4.5000000000000E-01  8.5416598617115E-01 -3.5314985611989E-01
    47  4.6000000000000E-01  8.8273166635976E-01 -3.6291688438047E-01
    48  4.7000000000000E-01  9.1094004140010E-01 -3.7196395937763E-01
    49  4.8000000000000E-01  9.3872879941891E-01 -3.8021886674919E-01
    50  4.9000000000000E-01  9.6603638612440E-01 -3.8761121023418E-01
    51  5.0000000000000E-01  9.9280224899625E-01 -3.9407290039884E-01
    52  5.1000000000000E-01  1.0189670763820E+00 -3.9953863022250E-01
    53  5.2000000000000E-01  1.0444730295797E+00 -4.0394633301572E-01
    54  5.3000000000000E-01  1.0692639660518E+00 -4.0723761829860E-01
    55  5.4000000000000E-01  1.0932856519966E+00 -4.0935818146833E-01
    56  5.5000000000000E-01  1.1164859626091E+00 -4.1025818333152E-01
    57  5.6000000000000E-01  1.1388150684783E+00 -4.0989259586514E-01
    58  5.7000000000000E-01  1.1602256067067E+00 -4.0822151089780E-01
    59  5.8000000000000E-01  1.1806728354881E+00 -4.0521040876705E-01
    60  5.9000000000000E-01  1.2001147710428E+00 -4.0083038440497E-01
    61  6.0000000000000E-01  1.2185123059850E+00 -3.9505832872961E-01
    62  6.1000000000000E-01  1.2358293083861E+00 -3.8787706366921E-01
    63  6.2000000000000E-01  1.2520327009866E+00 -3.7927542961489E-01
    64  6.3000000000000E-01  1.2670925202127E+00 -3.6924832458188E-01
    65  6.4000000000000E-01  1.2809819548562E+00 -3.5779669485229E-01
    66  6.5000000000000E-01  1.2936773644800E+00 -3.4492747737107E-01
    67  6.6000000000000E-01  1.3051582778195E+00 -3.3065349466381E-01
    68  6.7000000000000E-01  1.3154073716488E+00 -3.1499330353690E-01
    69  6.8000000000000E-01  1.3244104307792E+00 -2.9797099930031E-01
    70  6.9000000000000E-01  1.3321562900485E+00 -2.7961597771752E-01
    71  7.0000000000000E-01  1.3386367593378E+00 -2.5996265732877E-01
    72  7.1000000000000E-01  1.3438465328256E+00 -2.3905016521044E-01
    73  7.2000000000000E-01  1.3477830838417E+00 -2.1692198961767E-01
    74  7.3000000000000E-01  1.3504465468289E+00 -1.9362560330739E-01
    75  7.4000000000000E-01  1.3518395880427E+00 -1.6921206164918E-01
    76  7.5000000000000E-01  1.3519672667286E+00 -1.4373557989879E-01
    77  7.6000000000000E-01  1.3508368886033E+00 -1.1725309423083E-01
    78  7.7000000000000E-01  1.3484578535339E+00 -8.9823811299377E-02
    79  7.8000000000000E-01  1.3448414993579E+00 -6.1508751217563E-02
    80  7.9000000000000E-01  1.3400009438058E+00 -3.2370288915554E-02
    81  8.0000000000000E-01  1.3339509264985E+00 -2.4716988520800E-03