Ce    ONCVPSP-4.0.1  r_core=   2.00895   1.60047   1.85864   1.65896
     58.0000     12.0000      250925    zatom,zion,pspd
     8      11   3     4   600     0    pspcod,pspxc,lmax,lloc,mmax,r2well
  5.99000000  0.25000000  0.00000000    rchrg fchrg qchrg
     2     3     3     2    nproj
     3     1           extension_switch
     4     3     3    nprojso
   0                         6.8845815371667E+00  5.5648639654232E-01
     1  0.0000000000000E+00  7.4847988917881E-11 -2.7807953856263E-10
     2  1.0000000000000E-02  3.0630341181784E-02 -2.3077007422304E-03
     3  2.0000000000000E-02  6.1263642002947E-02 -4.6562226440265E-03
     4  3.0000000000000E-02  9.1902652349804E-02 -7.0858061312214E-03
     5  4.0000000000000E-02  1.2254970462833E-01 -9.6355367306489E-03
     6  5.0000000000000E-02  1.5320651006931E-01 -1.2342783970477E-02
     7  6.0000000000000E-02  1.8387396103431E-01 -1.5242659701320E-02
     8  7.0000000000000E-02  2.1455194123435E-01 -1.8367501982267E-02
     9  8.0000000000000E-02  2.4523914569795E-01 -2.1746390397885E-02
    10  9.0000000000000E-02  2.7593291223343E-01 -2.5404698330293E-02
    11  1.0000000000000E-01  3.0662906602129E-01 -2.9363687307647E-02
    12  1.1000000000000E-01  3.3732177884872E-01 -3.3640148091594E-02
    13  1.2000000000000E-01  3.6800344435955E-01 -3.8246092655718E-02
    14  1.3000000000000E-01  3.9866457054206E-01 -4.3188500650231E-02
    15  1.4000000000000E-01  4.2929369051381E-01 -4.8469123351152E-02
    16  1.5000000000000E-01  4.5987729249040E-01 -5.4084347460749E-02
    17  1.6000000000000E-01  4.9039976964368E-01 -6.0025120467313E-02
    18  1.7000000000000E-01  5.2084339036765E-01 -6.6276938592773E-02
    19  1.8000000000000E-01  5.5118828927801E-01 -7.2819897663817E-02
    20  1.9000000000000E-01  5.8141247907617E-01 -7.9628806543234E-02
    21  2.0000000000000E-01  6.1149188321237E-01 -8.6673362060461E-02
    22  2.1000000000000E-01  6.4140038908732E-01 -9.3918383691667E-02
    23  2.2000000000000E-01  6.7110992133952E-01 -1.0132410556702E-01
    24  2.3000000000000E-01  7.0059053457731E-01 -1.0884652273377E-01
    25  2.4000000000000E-01  7.2981052473353E-01 -1.1643778798524E-01
    26  2.5000000000000E-01  7.5873655804753E-01 -1.2404665498472E-01
    27  2.6000000000000E-01  7.8733381651594E-01 -1.3161896287604E-01
    28  2.7000000000000E-01  8.1556615850191E-01 -1.3909815708467E-01
    29  2.8000000000000E-01  8.4339629305396E-01 -1.4642584058188E-01
    30  2.9000000000000E-01  8.7078596636053E-01 -1.5354234951188E-01
    31  3.0000000000000E-01  8.9769615865826E-01 -1.6038734677554E-01
    32  3.1000000000000E-01  9.2408728981883E-01 -1.6690042692539E-01
    33  3.2000000000000E-01  9.4991943176511E-01 -1.7302172556008E-01
    34  3.3000000000000E-01  9.7515252581021E-01 -1.7869252631323E-01
    35  3.4000000000000E-01  9.9974660297565E-01 -1.8385585851409E-01
    36  3.5000000000000E-01  1.0236620053260E+00 -1.8845707865624E-01
    37  3.6000000000000E-01  1.0468596063581E+00 -1.9244442894538E-01
    38  3.7000000000000E-01  1.0693010285026E+00 -1.9576956640741E-01
    39  3.8000000000000E-01  1.0909488558360E+00 -1.9838805632208E-01
    40  3.9000000000000E-01  1.1117668401564E+00 -2.0025982410292E-01
    41  4.0000000000000E-01  1.1317200986556E+00 -2.0134956016677E-01
    42  4.1000000000000E-01  1.1507753015100E+00 -2.0162707282463E-01
    43  4.2000000000000E-01  1.1689008478247E+00 -2.0106758477116E-01
    44  4.3000000000000E-01  1.1860670284883E+00 -1.9965196935169E-01
    45  4.4000000000000E-01  1.2022461746354E+00 -1.9736692343371E-01
    46  4.5000000000000E-01  1.2174127905655E+00 -1.9420507439991E-01
    47  4.6000000000000E-01  1.2315436701263E+00 -1.9016501950409E-01
    48  4.7000000000000E-01  1.2446179957451E+00 -1.8525129658186E-01
    49  4.8000000000000E-01  1.2566174194664E+00 -1.7947428587794E-01
    50  4.9000000000000E-01  1.2675261255407E+00 -1.7285004353157E-01
    51  5.0000000000000E-01  1.2773308742965E+00 -1.6540006804410E-01
    52  5.1000000000000E-01  1.2860210272179E+00 -1.5715100182836E-01
    53  5.2000000000000E-01  1.2935885533376E+00 -1.4813427070007E-01
    54  5.3000000000000E-01  1.3000280172445E+00 -1.3838566490915E-01
    55  5.4000000000000E-01  1.3053365491857E+00 -1.2794486601380E-01
    56  5.5000000000000E-01  1.3095137979199E+00 -1.1685492456603E-01
    57  5.6000000000000E-01  1.3125618671484E+00 -1.0516169419511E-01
    58  5.7000000000000E-01  1.3144852365050E+00 -9.2913228238216E-02
    59  5.8000000000000E-01  1.3152906682367E+00 -8.0159145568829E-02
    60  5.9000000000000E-01  1.3149871008387E+00 -6.6949972706906E-02
    61  6.0000000000000E-01  1.3135855310252E+00 -5.3336469654160E-02
    62  6.1000000000000E-01  1.3110988855222E+00 -3.9368947180000E-02
    63  6.2000000000000E-01  1.3075418842546E+00 -2.5096583483087E-02
    64  6.3000000000000E-01  1.3029308965658E+00 -1.0566748267536E-02
    65  6.4000000000000E-01  1.2972837921619E+00  4.1756576999435E-03
    66  6.5000000000000E-01  1.2906197884984E+00  1.9088839547070E-02
    67  6.6000000000000E-01  1.2829592963426E+00  3.4134713913567E-02
    68  6.7000000000000E-01  1.2743237652343E+00  4.9279475613153E-02
    69  6.8000000000000E-01  1.2647355305423E+00  6.4494118049623E-02
    70  6.9000000000000E-01  1.2542176637652E+00  7.9754900504524E-02
    71  7.0000000000000E-01  1.2427938276639E+00  9.5043755903262E-02
    72  7.1000000000000E-01  1.2304881377291E+00  1.1034863322916E-01
    73  7.2000000000000E-01  1.2173250313902E+00  1.2566376939007E-01
    74  7.3000000000000E-01  1.2033291462580E+00  1.4098988603798E-01
    75  7.4000000000000E-01  1.1885252085676E+00  1.5633430759618E-01
    76  7.5000000000000E-01  1.1729379328470E+00  1.7171099755038E-01
    77  7.6000000000000E-01  1.1565919336899E+00  1.8714051090220E-01
    78  7.7000000000000E-01  1.1395116503490E+00  2.0264986155627E-01
    79  7.8000000000000E-01  1.1217212847058E+00  2.1827230430747E-01
    80  7.9000000000000E-01  1.1032447529980E+00  2.3404703200122E-01
    81  8.0000000000000E-01  1.0841056515185E+00  2.5001878934900E-01
    82  8.1000000000000E-01  1.0643272363225E+00  2.6623740578240E-01
    83  8.2000000000000E-01  1.0439324168106E+00  2.8275725061214E-01
    84  8.3000000000000E-01  1.0229437628884E+00  2.9963661461519E-01
    85  8.4000000000000E-01  1.0013835252386E+00  3.1693702299125E-01
    86  8.5000000000000E-01  9.7927366809000E-01  3.3472248540399E-01
    87  8.6000000000000E-01  9.5663591372185E-01  3.5305868954032E-01
    88  8.7000000000000E-01  9.3349179780696E-01  3.7201214527835E-01
    89  8.8000000000000E-01  9.0986273457790E-01  3.9164928714080E-01
    90  8.9000000000000E-01  8.8577009069168E-01  4.1203554322324E-01
    91  9.0000000000000E-01  8.6123526657687E-01  4.3323437921667E-01
    92  9.1000000000000E-01  8.3627978397097E-01  4.5530632648908E-01
    93  9.2000000000000E-01  8.1092537829604E-01  4.7830800344895E-01
    94  9.3000000000000E-01  7.8519409447863E-01  5.0229113957899E-01
    95  9.4000000000000E-01  7.5910838479487E-01  5.2730161160471E-01
    96  9.5000000000000E-01  7.3269120731373E-01  5.5337850124577E-01
    97  9.6000000000000E-01  7.0596612352061E-01  5.8055318389330E-01
    98  9.7000000000000E-01  6.7895739372864E-01  6.0884845736262E-01
    99  9.8000000000000E-01  6.5169006892579E-01  6.3827771959560E-01
   100  9.9000000000000E-01  6.2419007776105E-01  6.6884420383111E-01
   101  1.0000000000000E+00  5.9648430744068E-01  7.0054027933432E-01
   102  1.0100000000000E+00  5.6860067738533E-01  7.3334682528199E-01
   103  1.0200000000000E+00  5.4056820458785E-01  7.6723268484628E-01
   104  1.0300000000000E+00  5.1241705970888E-01  8.0215420591706E-01
   105  1.0400000000000E+00  4.8417861305056E-01  8.3805487425563E-01
   106  1.0500000000000E+00  4.5588546965550E-01  8.7486504419372E-01
   107  1.0600000000000E+00  4.2757149288734E-01  9.1250177128816E-01
   108  1.0700000000000E+00  3.9927181595725E-01  9.5086875062420E-01
   109  1.0800000000000E+00  3.7102284096754E-01  9.8985636373618E-01
   110  1.0900000000000E+00  3.4286222514432E-01  1.0293418363957E+00
   111  1.1000000000000E+00  3.1482885402763E-01  1.0691895088072E+00
   112  1.1100000000000E+00  2.8696280147381E-01  1.1092512190641E+00
   113  1.1200000000000E+00  2.5930527640329E-01  1.1493668000547E+00
   114  1.1300000000000E+00  2.3189855629367E-01  1.1893646893766E+00
   115  1.1400000000000E+00  2.0478590747301E-01  1.2290626512251E+00
   116  1.1500000000000E+00  1.7801149231091E-01  1.2682686086655E+00
   117  1.1600000000000E+00  1.5162026343439E-01  1.3067815841879E+00
   118  1.1700000000000E+00  1.2565784511269E-01  1.3443927459693E+00
   119  1.1800000000000E+00  1.0017040195971E-01  1.3808865568383E+00
   120  1.1900000000000E+00  7.5204495095894E-02  1.4160420225405E+00
   121  1.2000000000000E+00  5.0806925895011E-02  1.4496340355366E+00
   122  1.2100000000000E+00  2.7024567416275E-02  1.4814348102241E+00
   123  1.2200000000000E+00  3.9041835922373E-03  1.5112154051423E+00
   124  1.2300000000000E+00 -1.8507763790508E-02  1.5387473273932E+00
   125  1.2400000000000E+00 -4.0165320313048E-02  1.5638042141694E+00
   126  1.2500000000000E+00 -6.1023256371771E-02  1.5861635859118E+00
   127  1.2600000000000E+00 -8.1037296894296E-02  1.6056086652052E+00
   128  1.2700000000000E+00 -1.0016436337192E-01  1.6219302550390E+00
   129  1.2800000000000E+00 -1.1836282824299E-01  1.6349286694907E+00
   130  1.2900000000000E+00 -1.3559278162395E-01  1.6444157092150E+00
   131  1.3000000000000E+00 -1.5181631031554E-01  1.6502166733026E+00
   132  1.3100000000000E+00 -1.6699778890529E-01  1.6521723980946E+00
   133  1.3200000000000E+00 -1.8110418263786E-01  1.6501413123777E+00
   134  1.3300000000000E+00 -1.9410536152212E-01  1.6440014969900E+00
   135  1.3400000000000E+00 -2.0597442488400E-01  1.6336527352327E+00
   136  1.3500000000000E+00 -2.1668803524625E-01  1.6190185385603E+00
   137  1.3600000000000E+00 -2.2622676001649E-01  1.6000481297937E+00
   138  1.3700000000000E+00 -2.3457541897812E-01  1.5767183635064E+00
   139  1.3800000000000E+00 -2.4172343500528E-01  1.5490355602754E+00
   140  1.3900000000000E+00 -2.4766518474572E-01  1.5170372280927E+00
   141  1.4000000000000E+00 -2.5240034523620E-01  1.4807936404155E+00
   142  1.4100000000000E+00 -2.5593423150925E-01  1.4404092359718E+00
   143  1.4200000000000E+00 -2.5827811922639E-01  1.3960238006009E+00
   144  1.4300000000000E+00 -2.5944954521084E-01  1.3478133859706E+00
   145  1.4400000000000E+00 -2.5947257744136E-01  1.2959909139667E+00
   146  1.4500000000000E+00 -2.5837804461733E-01  1.2408064089020E+00
   147  1.4600000000000E+00 -2.5620371376808E-01  1.1825467922687E+00
   148  1.4700000000000E+00 -2.5299440258904E-01  1.1215351666862E+00
   149  1.4800000000000E+00 -2.4880201120100E-01  1.0581295067973E+00
   150  1.4900000000000E+00 -2.4368545585242E-01  9.9272066515878E-01
   151  1.5000000000000E+00 -2.3771048470011E-01  9.2572959058227E-01
   152  1.5100000000000E+00 -2.3094935320576E-01  8.5760364487844E-01
   153  1.5200000000000E+00 -2.2348033386175E-01  7.8881189148951E-01
   154  1.5300000000000E+00 -2.1538703188314E-01  7.1983921593804E-01
   155  1.5400000000000E+00 -2.0675747519049E-01  6.5117912344814E-01
   156  1.5500000000000E+00 -1.9768294341766E-01  5.8332504331845E-01
   157  1.5600000000000E+00 -1.8825649681319E-01  5.1675995265027E-01
   158  1.5700000000000E+00 -1.7857116174270E-01  4.5194411377162E-01
   159  1.5800000000000E+00 -1.6871772445722E-01  3.8930069549979E-01
   160  1.5900000000000E+00 -1.5878208197664E-01  3.2919904407408E-01
   161  1.6000000000000E+00 -1.4884210377168E-01  2.7193541947874E-01
   162  1.6100000000000E+00 -1.3896433297614E-01  2.1771405663324E-01
   163  1.6200000000000E+00 -1.2920615077720E-01  1.6667248225427E-01
   164  1.6300000000000E+00 -1.1962047263470E-01  1.1892315633021E-01
   165  1.6400000000000E+00 -1.1025612958125E-01  7.4557778445301E-02
   166  1.6500000000000E+00 -1.0115765325510E-01  3.3646534657340E-02
   167  1.6600000000000E+00 -9.2365107556399E-02 -3.7623968602146E-03
   168  1.6700000000000E+00 -8.3913956632537E-02 -3.7643171126809E-02
   169  1.6800000000000E+00 -7.5834971713649E-02 -6.7992416649388E-02
   170  1.6900000000000E+00 -6.8154177437063E-02 -9.4829189052252E-02
   171  1.7000000000000E+00 -6.0892838086434E-02 -1.1819473690500E-01
   172  1.7100000000000E+00 -5.4067483771299E-02 -1.3815208058280E-01
   173  1.7200000000000E+00 -4.7689976244723E-02 -1.5478540643200E-01
   174  1.7300000000000E+00 -4.1767613665572E-02 -1.6819928040471E-01
   175  1.7400000000000E+00 -3.6303273241305E-02 -1.7851768706457E-01
   176  1.7500000000000E+00 -3.1295590370160E-02 -1.8588290125440E-01
   177  1.7600000000000E+00 -2.6739172533067E-02 -1.9045420148493E-01
   178  1.7700000000000E+00 -2.2624845848013E-02 -1.9240643567114E-01
   179  1.7800000000000E+00 -1.8939931937921E-02 -1.9192845095120E-01
   180  1.7900000000000E+00 -1.5668552426745E-02 -1.8922140095958E-01
   181  1.8000000000000E+00 -1.2791958153231E-02 -1.8449694487469E-01
   182  1.8100000000000E+00 -1.0288879931965E-02 -1.7797535378192E-01
   183  1.8200000000000E+00 -8.1358975054866E-03 -1.6988354068827E-01
   184  1.8300000000000E+00 -6.3078231549844E-03 -1.6045303131344E-01
   185  1.8400000000000E+00 -4.7780962783255E-03 -1.4991789350739E-01
   186  1.8500000000000E+00 -3.5191851604428E-03 -1.3851264345915E-01
   187  1.8600000000000E+00 -2.5029920880526E-03 -1.2647014716397E-01
   188  1.8700000000000E+00 -1.7012578097855E-03 -1.1401953613191E-01
   189  1.8800000000000E+00 -1.0859615357887E-03 -1.0138415562684E-01
   190  1.8900000000000E+00 -6.2971980798974E-04 -8.8779542452802E-02
   191  1.9000000000000E+00 -3.0613274903013E-04 -7.6411589614482E-02
   192  1.9100000000000E+00 -9.0362806996350E-05 -6.4474075031876E-02
   193  1.9200000000000E+00  3.8870905927649E-05 -5.3141829543073E-02
   194  1.9300000000000E+00  1.0190383937655E-04 -4.2577918434725E-02
   195  1.9400000000000E+00  1.1893576077596E-04 -3.2935641310887E-02
   196  1.9500000000000E+00  1.0715807585761E-04 -2.4349462358303E-02
   197  1.9600000000000E+00  8.0846010353062E-05 -1.6934759800415E-02
   198  1.9700000000000E+00  5.1098497351795E-05 -1.0786620277002E-02
   199  1.9800000000000E+00  2.5661185097134E-05 -5.9812749078902E-03
   200  1.9900000000000E+00  8.8125230251349E-06 -2.5508981634719E-03
   201  2.0000000000000E+00  1.2906796816486E-06 -5.9775084570933E-04
   202  2.0100000000000E+00 -1.6911841490623E-08  2.1853556039926E-05
   203  2.0200000000000E+00 -2.2422169176695E-09  8.7805219801571E-06
   204  2.03  0.  0.
   205  2.04  0.  0.
   206  2.05  0.  0.
   207  2.06  0.  0.
   208  2.07  0.  0.
   209  2.08  0.  0.
   210  2.09  0.  0.
   211  2.10  0.  0.
   212  2.11  0.  0.
   213  2.12  0.  0.
   214  2.13  0.  0.
   215  2.14  0.  0.
   216  2.15  0.  0.
   217  2.16  0.  0.
   218  2.17  0.  0.
   219  2.18  0.  0.
   220  2.19  0.  0.
   221  2.20  0.  0.
   222  2.21  0.  0.
   223  2.22  0.  0.
   224  2.23  0.  0.
   225  2.24  0.  0.
   226  2.25  0.  0.
   227  2.26  0.  0.
   228  2.27  0.  0.
   229  2.28  0.  0.
   230  2.29  0.  0.
   231  2.30  0.  0.
   232  2.31  0.  0.
   233  2.32  0.  0.
   234  2.33  0.  0.
   235  2.34  0.  0.
   236  2.35  0.  0.
   237  2.36  0.  0.
   238  2.37  0.  0.
   239  2.38  0.  0.
   240  2.39  0.  0.
   241  2.40  0.  0.
   242  2.41  0.  0.
   243  2.42  0.  0.
   244  2.43  0.  0.
   245  2.44  0.  0.
   246  2.45  0.  0.
   247  2.46  0.  0.
   248  2.47  0.  0.
   249  2.48  0.  0.
   250  2.49  0.  0.
   251  2.50  0.  0.
   252  2.51  0.  0.
   253  2.52  0.  0.
   254  2.53  0.  0.
   255  2.54  0.  0.
   256  2.55  0.  0.
   257  2.56  0.  0.
   258  2.57  0.  0.
   259  2.58  0.  0.
   260  2.59  0.  0.
   261  2.60  0.  0.
   262  2.61  0.  0.
   263  2.62  0.  0.
   264  2.63  0.  0.
   265  2.64  0.  0.
   266  2.65  0.  0.
   267  2.66  0.  0.
   268  2.67  0.  0.
   269  2.68  0.  0.
   270  2.69  0.  0.
   271  2.70  0.  0.
   272  2.71  0.  0.
   273  2.72  0.  0.
   274  2.73  0.  0.
   275  2.74  0.  0.
   276  2.75  0.  0.
   277  2.76  0.  0.
   278  2.77  0.  0.
   279  2.78  0.  0.
   280  2.79  0.  0.
   281  2.80  0.  0.
   282  2.81  0.  0.
   283  2.82  0.  0.
   284  2.83  0.  0.
   285  2.84  0.  0.
   286  2.85  0.  0.
   287  2.86  0.  0.
   288  2.87  0.  0.
   289  2.88  0.  0.
   290  2.89  0.  0.
   291  2.90  0.  0.
   292  2.91  0.  0.
   293  2.92  0.  0.
   294  2.93  0.  0.
   295  2.94  0.  0.
   296  2.95  0.  0.
   297  2.96  0.  0.
   298  2.97  0.  0.
   299  2.98  0.  0.
   300  2.99  0.  0.
   301  3.00  0.  0.
   302  3.01  0.  0.
   303  3.02  0.  0.
   304  3.03  0.  0.
   305  3.04  0.  0.
   306  3.05  0.  0.
   307  3.06  0.  0.
   308  3.07  0.  0.
   309  3.08  0.  0.
   310  3.09  0.  0.
   311  3.10  0.  0.
   312  3.11  0.  0.
   313  3.12  0.  0.
   314  3.13  0.  0.
   315  3.14  0.  0.
   316  3.15  0.  0.
   317  3.16  0.  0.
   318  3.17  0.  0.
   319  3.18  0.  0.
   320  3.19  0.  0.
   321  3.20  0.  0.
   322  3.21  0.  0.
   323  3.22  0.  0.
   324  3.23  0.  0.
   325  3.24  0.  0.
   326  3.25  0.  0.
   327  3.26  0.  0.
   328  3.27  0.  0.
   329  3.28  0.  0.
   330  3.29  0.  0.
   331  3.30  0.  0.
   332  3.31  0.  0.
   333  3.32  0.  0.
   334  3.33  0.  0.
   335  3.34  0.  0.
   336  3.35  0.  0.
   337  3.36  0.  0.
   338  3.37  0.  0.
   339  3.38  0.  0.
   340  3.39  0.  0.
   341  3.40  0.  0.
   342  3.41  0.  0.
   343  3.42  0.  0.
   344  3.43  0.  0.
   345  3.44  0.  0.
   346  3.45  0.  0.
   347  3.46  0.  0.
   348  3.47  0.  0.
   349  3.48  0.  0.
   350  3.49  0.  0.
   351  3.50  0.  0.
   352  3.51  0.  0.
   353  3.52  0.  0.
   354  3.53  0.  0.
   355  3.54  0.  0.
   356  3.55  0.  0.
   357  3.56  0.  0.
   358  3.57  0.  0.
   359  3.58  0.  0.
   360  3.59  0.  0.
   361  3.60  0.  0.
   362  3.61  0.  0.
   363  3.62  0.  0.
   364  3.63  0.  0.
   365  3.64  0.  0.
   366  3.65  0.  0.
   367  3.66  0.  0.
   368  3.67  0.  0.
   369  3.68  0.  0.
   370  3.69  0.  0.
   371  3.70  0.  0.
   372  3.71  0.  0.
   373  3.72  0.  0.
   374  3.73  0.  0.
   375  3.74  0.  0.
   376  3.75  0.  0.
   377  3.76  0.  0.
   378  3.77  0.  0.
   379  3.78  0.  0.
   380  3.79  0.  0.
   381  3.80  0.  0.
   382  3.81  0.  0.
   383  3.82  0.  0.
   384  3.83  0.  0.
   385  3.84  0.  0.
   386  3.85  0.  0.
   387  3.86  0.  0.
   388  3.87  0.  0.
   389  3.88  0.  0.
   390  3.89  0.  0.
   391  3.90  0.  0.
   392  3.91  0.  0.
   393  3.92  0.  0.
   394  3.93  0.  0.
   395  3.94  0.  0.
   396  3.95  0.  0.
   397  3.96  0.  0.
   398  3.97  0.  0.
   399  3.98  0.  0.
   400  3.99  0.  0.
   401  4.00  0.  0.
   402  4.01  0.  0.
   403  4.02  0.  0.
   404  4.03  0.  0.
   405  4.04  0.  0.
   406  4.05  0.  0.
   407  4.06  0.  0.
   408  4.07  0.  0.
   409  4.08  0.  0.
   410  4.09  0.  0.
   411  4.10  0.  0.
   412  4.11  0.  0.
   413  4.12  0.  0.
   414  4.13  0.  0.
   415  4.14  0.  0.
   416  4.15  0.  0.
   417  4.16  0.  0.
   418  4.17  0.  0.
   419  4.18  0.  0.
   420  4.19  0.  0.
   421  4.20  0.  0.
   422  4.21  0.  0.
   423  4.22  0.  0.
   424  4.23  0.  0.
   425  4.24  0.  0.
   426  4.25  0.  0.
   427  4.26  0.  0.
   428  4.27  0.  0.
   429  4.28  0.  0.
   430  4.29  0.  0.
   431  4.30  0.  0.
   432  4.31  0.  0.
   433  4.32  0.  0.
   434  4.33  0.  0.
   435  4.34  0.  0.
   436  4.35  0.  0.
   437  4.36  0.  0.
   438  4.37  0.  0.
   439  4.38  0.  0.
   440  4.39  0.  0.
   441  4.40  0.  0.
   442  4.41  0.  0.
   443  4.42  0.  0.
   444  4.43  0.  0.
   445  4.44  0.  0.
   446  4.45  0.  0.
   447  4.46  0.  0.
   448  4.47  0.  0.
   449  4.48  0.  0.
   450  4.49  0.  0.
   451  4.50  0.  0.
   452  4.51  0.  0.
   453  4.52  0.  0.
   454  4.53  0.  0.
   455  4.54  0.  0.
   456  4.55  0.  0.
   457  4.56  0.  0.
   458  4.57  0.  0.
   459  4.58  0.  0.
   460  4.59  0.  0.
   461  4.60  0.  0.
   462  4.61  0.  0.
   463  4.62  0.  0.
   464  4.63  0.  0.
   465  4.64  0.  0.
   466  4.65  0.  0.
   467  4.66  0.  0.
   468  4.67  0.  0.
   469  4.68  0.  0.
   470  4.69  0.  0.
   471  4.70  0.  0.
   472  4.71  0.  0.
   473  4.72  0.  0.
   474  4.73  0.  0.
   475  4.74  0.  0.
   476  4.75  0.  0.
   477  4.76  0.  0.
   478  4.77  0.  0.
   479  4.78  0.  0.
   480  4.79  0.  0.
   481  4.80  0.  0.
   482  4.81  0.  0.
   483  4.82  0.  0.
   484  4.83  0.  0.
   485  4.84  0.  0.
   486  4.85  0.  0.
   487  4.86  0.  0.
   488  4.87  0.  0.
   489  4.88  0.  0.
   490  4.89  0.  0.
   491  4.90  0.  0.
   492  4.91  0.  0.
   493  4.92  0.  0.
   494  4.93  0.  0.
   495  4.94  0.  0.
   496  4.95  0.  0.
   497  4.96  0.  0.
   498  4.97  0.  0.
   499  4.98  0.  0.
   500  4.99  0.  0.
   501  5.00  0.  0.
   502  5.01  0.  0.
   503  5.02  0.  0.
   504  5.03  0.  0.
   505  5.04  0.  0.
   506  5.05  0.  0.
   507  5.06  0.  0.
   508  5.07  0.  0.
   509  5.08  0.  0.
   510  5.09  0.  0.
   511  5.10  0.  0.
   512  5.11  0.  0.
   513  5.12  0.  0.
   514  5.13  0.  0.
   515  5.14  0.  0.
   516  5.15  0.  0.
   517  5.16  0.  0.
   518  5.17  0.  0.
   519  5.18  0.  0.
   520  5.19  0.  0.
   521  5.20  0.  0.
   522  5.21  0.  0.
   523  5.22  0.  0.
   524  5.23  0.  0.
   525  5.24  0.  0.
   526  5.25  0.  0.
   527  5.26  0.  0.
   528  5.27  0.  0.
   529  5.28  0.  0.
   530  5.29  0.  0.
   531  5.30  0.  0.
   532  5.31  0.  0.
   533  5.32  0.  0.
   534  5.33  0.  0.
   535  5.34  0.  0.
   536  5.35  0.  0.
   537  5.36  0.  0.
   538  5.37  0.  0.
   539  5.38  0.  0.
   540  5.39  0.  0.
   541  5.40  0.  0.
   542  5.41  0.  0.
   543  5.42  0.  0.
   544  5.43  0.  0.
   545  5.44  0.  0.
   546  5.45  0.  0.
   547  5.46  0.  0.
   548  5.47  0.  0.
   549  5.48  0.  0.
   550  5.49  0.  0.
   551  5.50  0.  0.
   552  5.51  0.  0.
   553  5.52  0.  0.
   554  5.53  0.  0.
   555  5.54  0.  0.
   556  5.55  0.  0.
   557  5.56  0.  0.
   558  5.57  0.  0.
   559  5.58  0.  0.
   560  5.59  0.  0.
   561  5.60  0.  0.
   562  5.61  0.  0.
   563  5.62  0.  0.
   564  5.63  0.  0.
   565  5.64  0.  0.
   566  5.65  0.  0.
   567  5.66  0.  0.
   568  5.67  0.  0.
   569  5.68  0.  0.
   570  5.69  0.  0.
   571  5.70  0.  0.
   572  5.71  0.  0.
   573  5.72  0.  0.
   574  5.73  0.  0.
   575  5.74  0.  0.
   576  5.75  0.  0.
   577  5.76  0.  0.
   578  5.77  0.  0.
   579  5.78  0.  0.
   580  5.79  0.  0.
   581  5.80  0.  0.
   582  5.81  0.  0.
   583  5.82  0.  0.
   584  5.83  0.  0.
   585  5.84  0.  0.
   586  5.85  0.  0.
   587  5.86  0.  0.
   588  5.87  0.  0.
   589  5.88  0.  0.
   590  5.89  0.  0.
   591  5.90  0.  0.
   592  5.91  0.  0.
   593  5.92  0.  0.
   594  5.93  0.  0.
   595  5.94  0.  0.
   596  5.95  0.  0.
   597  5.96  0.  0.
   598  5.97  0.  0.
   599  5.98  0.  0.
   600  5.99  0.  0.
   1                         6.0224726357860E+00  7.4418549312639E-01  4.8930391472292E-02
     1  0.0000000000000E+00  1.3272977494871E-08 -3.6192808791635E-08  3.4386191352653E-08
     2  1.0000000000000E-02  1.3817861104426E-03 -1.9814968925264E-03  1.0858067647930E-03
     3  2.0000000000000E-02  5.5081313564959E-03 -7.8773868788559E-03  4.3000727131427E-03
     4  3.0000000000000E-02  1.2322382006749E-02 -1.7542913437149E-02  9.5143200793420E-03
     5  4.0000000000000E-02  2.1731392408148E-02 -3.0740279461810E-02  1.6517683155972E-02
     6  5.0000000000000E-02  3.3607413519639E-02 -4.7143768402775E-02  2.5021733363345E-02
     7  6.0000000000000E-02  4.7790682784510E-02 -6.6346766365715E-02  3.4667094221723E-02
     8  7.0000000000000E-02  6.4092662552866E-02 -8.7870541192838E-02  4.5031709439273E-02
     9  8.0000000000000E-02  8.2299860992674E-02 -1.1117459835121E-01  5.5640592942561E-02
    10  9.0000000000000E-02  1.0217815746380E-01 -1.3566840083915E-01  6.5976858687599E-02
    11  1.0000000000000E-01  1.2347754391279E-01 -1.6072421193240E-01  7.5493801116069E-02
    12  1.1000000000000E-01  1.4593718518528E-01 -1.8569079600057E-01  8.3627774706184E-02
    13  1.2000000000000E-01  1.6929069442281E-01 -2.0990769430592E-01  8.9811603662173E-02
    14  1.3000000000000E-01  1.9327151504800E-01 -2.3271978002686E-01  9.3488240748426E-02
    15  1.4000000000000E-01  2.1761829834415E-01 -2.5349178999044E-01  9.4124387855557E-02
    16  1.5000000000000E-01  2.4208016535752E-01 -2.7162252990233E-01  9.1223790229111E-02
    17  1.6000000000000E-01  2.6642174380368E-01 -2.8655845525973E-01  8.4339921428837E-02
    18  1.7000000000000E-01  2.9042787481316E-01 -2.9780634153497E-01  7.3087786935154E-02
    19  1.8000000000000E-01  3.1390789063008E-01 -3.0494477441981E-01  5.7154590686379E-02
    20  1.9000000000000E-01  3.3669937266496E-01 -3.0763421360263E-01  3.6309030412951E-02
    21  2.0000000000000E-01  3.5867130944285E-01 -3.0562541128565E-01  1.0409014029324E-02
    22  2.1000000000000E-01  3.7972658578791E-01 -2.9876599890829E-01 -2.0592379950676E-02
    23  2.2000000000000E-01  3.9980374781956E-01 -2.8700509170782E-01 -5.6642840578575E-02
    24  2.3000000000000E-01  4.1887800274802E-01 -2.7039580012137E-01 -9.7588766326616E-02
    25  2.4000000000000E-01  4.3696142777093E-01 -2.4909557885174E-01 -1.4317527591024E-01
    26  2.5000000000000E-01  4.5410237828796E-01 -2.2336438786844E-01 -1.9304831195560E-01
    27  2.6000000000000E-01  4.7038410185831E-01 -1.9356068384508E-01 -2.4675881923118E-01
    28  2.7000000000000E-01  4.8592258050707E-01 -1.6013530467487E-01 -3.0376893707202E-01
    29  2.8000000000000E-01  5.0086363982185E-01 -1.2362335288594E-01 -3.6346010443138E-01
    30  2.9000000000000E-01  5.1537937845730E-01 -8.4634225138130E-02 -4.2514293651413E-01
    31  3.0000000000000E-01  5.2966398587800E-01 -4.3839973696500E-02 -4.8806869496850E-01
    32  3.1000000000000E-01  5.4392902913489E-01 -1.9622210629554E-03 -5.5144213987928E-01
    33  3.2000000000000E-01  5.5839830092253E-01  4.0242119912696E-02 -6.1443552200535E-01
    34  3.3000000000000E-01  5.7330233086903E-01  8.1996041768317E-02 -6.7620344844698E-01
    35  3.4000000000000E-01  5.8887266976448E-01  1.2251825432581E-01 -7.3589833474699E-01
    36  3.5000000000000E-01  6.0533606207005E-01  1.6103929784322E-01 -7.9268614175536E-01
    37  3.6000000000000E-01  6.2290862544348E-01  1.9681763343321E-01 -8.4576208675178E-01
    38  3.7000000000000E-01  6.4179015708228E-01  2.2915538403460E-01 -8.9436601554305E-01
    39  3.8000000000000E-01  6.6215868538632E-01  2.5741340296282E-01 -9.3779712563630E-01
    40  3.9000000000000E-01  6.8416538178202E-01  2.8102535724546E-01 -9.7542774011861E-01
    41  4.0000000000000E-01  7.0792994158426E-01  2.9951052942275E-01 -1.0067158474146E+00
    42  4.1000000000000E-01  7.3353653459748E-01  3.1248506398839E-01 -1.0312161433939E+00
    43  4.2000000000000E-01  7.6103041591448E-01  3.1967141277409E-01 -1.0485893389936E+00
    44  4.3000000000000E-01  7.9041527524463E-01  3.2090576683687E-01 -1.0586095281347E+00
    45  4.4000000000000E-01  8.2165138931097E-01  3.1614330018656E-01 -1.0611694466737E+00
    46  4.5000000000000E-01  8.5465462665467E-01  3.0546109229104E-01 -1.0562834927779E+00
    47  4.6000000000000E-01  8.8929633785823E-01  2.8905864093968E-01 -1.0440884217127E+00
    48  4.7000000000000E-01  9.2540414705461E-01  2.6725592388564E-01 -1.0248416727720E+00
    49  4.8000000000000E-01  9.6276364295447E-01  2.4048901582926E-01 -9.9891733212700E-01
    50  4.9000000000000E-01  1.0011209498371E+00  2.0930331582067E-01 -9.6679978182539E-01
    51  5.0000000000000E-01  1.0401861413571E+00  1.7434448810430E-01 -9.2907513114788E-01
    52  5.1000000000000E-01  1.0796374429632E+00  1.3634726586156E-01 -8.8642057112309E-01
    53  5.2000000000000E-01  1.1191261525424E+00  9.6122311308897E-02 -8.3959183533515E-01
    54  5.3000000000000E-01  1.1582821939203E+00  5.4541366295179E-02 -7.8940898939110E-01
    55  5.4000000000000E-01  1.1967202043608E+00  1.2520964089352E-02 -7.3674080675166E-01
    56  5.5000000000000E-01  1.2340460455023E+00 -2.8994995298083E-02 -6.8248801934785E-01
    57  5.6000000000000E-01  1.2698636174805E+00 -6.9053477822593E-02 -6.2756575686436E-01
    58  5.7000000000000E-01  1.3037818485300E+00 -1.0671100773629E-01 -5.7288550822221E-01
    59  5.8000000000000E-01  1.3354217272969E+00 -1.4105245774361E-01 -5.1933695219654E-01
    60  5.9000000000000E-01  1.3644232425548E+00 -1.7120956869660E-01 -4.6777001093793E-01
    61  6.0000000000000E-01  1.3904520950670E+00 -1.9637883116219E-01 -4.1897748022316E-01
    62  6.1000000000000E-01  1.4132060490133E+00 -2.1583836897844E-01 -3.7367858347564E-01
    63  6.2000000000000E-01  1.4324207956683E+00 -2.2896347979608E-01 -3.3250378301754E-01
    64  6.3000000000000E-01  1.4478752098042E+00 -2.3524050936152E-01 -2.9598116184248E-01
    65  6.4000000000000E-01  1.4593958894840E+00 -2.3427876459250E-01 -2.6452466273895E-01
    66  6.5000000000000E-01  1.4668608823162E+00 -2.2582020485075E-01 -2.3842443929712E-01
    67  6.6000000000000E-01  1.4702025156686E+00 -2.0974669062800E-01 -2.1783953575127E-01
    68  6.7000000000000E-01  1.4694092645123E+00 -1.8608461342444E-01 -2.0279307041165E-01
    69  6.8000000000000E-01  1.4645266082007E+00 -1.5500677910339E-01 -1.9317005138293E-01
    70  6.9000000000000E-01  1.4556568462633E+00 -1.1683146855638E-01 -1.8871790419678E-01
    71  7.0000000000000E-01  1.4429578628492E+00 -7.2018653156242E-02 -1.8904973980449E-01
    72  7.1000000000000E-01  1.4266408494375E+00 -2.1163397189608E-02 -1.9365033905095E-01
    73  7.2000000000000E-01  1.4069670154503E+00  3.5013465784571E-02 -2.0188477726054E-01
    74  7.3000000000000E-01  1.3842433360815E+00  9.5677241972002E-02 -2.1300956092321E-01
    75  7.4000000000000E-01  1.3588174056081E+00  1.5989367942678E-01 -2.2618609866426E-01
    76  7.5000000000000E-01  1.3310714823096E+00  2.2664542224079E-01 -2.4049628168830E-01