Ce    ONCVPSP-4.0.1  r_core=   2.00895   1.60047   1.85864   1.65896
     58.0000     12.0000      250217    zatom,zion,pspd
     8      11   3     4   600     0    pspcod,pspxc,lmax,lloc,mmax,r2well
  5.99000000  0.25000000  0.00000000    rchrg fchrg qchrg
     2     3     3     2    nproj
     3     1           extension_switch
     4     3     3    nprojso
   0                         6.8845815385997E+00  5.5648639674624E-01
     1  0.0000000000000E+00  7.4839467956167E-11 -2.7801969060270E-10
     2  1.0000000000000E-02  3.0630341173829E-02 -2.3077007440909E-03
     3  2.0000000000000E-02  6.1263641987063E-02 -4.6562226477623E-03
     4  3.0000000000000E-02  9.1902652326045E-02 -7.0858061368613E-03
     5  4.0000000000000E-02  1.2254970459678E-01 -9.6355367382370E-03
     6  5.0000000000000E-02  1.5320651003006E-01 -1.2342783980072E-02
     7  6.0000000000000E-02  1.8387396098750E-01 -1.5242659712995E-02
     8  7.0000000000000E-02  2.1455194118013E-01 -1.8367501996104E-02
     9  8.0000000000000E-02  2.4523914563650E-01 -2.1746390413991E-02
    10  9.0000000000000E-02  2.7593291216496E-01 -2.5404698348778E-02
    11  1.0000000000000E-01  3.0662906594603E-01 -2.9363687328636E-02
    12  1.1000000000000E-01  3.3732177876691E-01 -3.3640148115226E-02
    13  1.2000000000000E-01  3.6800344427147E-01 -3.8246092682141E-02
    14  1.3000000000000E-01  3.9866457044799E-01 -4.3188500679608E-02
    15  1.4000000000000E-01  4.2929369041408E-01 -4.8469123383657E-02
    16  1.5000000000000E-01  4.5987729238535E-01 -5.4084347496568E-02
    17  1.6000000000000E-01  4.9039976953366E-01 -6.0025120506631E-02
    18  1.7000000000000E-01  5.2084339025302E-01 -6.6276938635788E-02
    19  1.8000000000000E-01  5.5118828915916E-01 -7.2819897710735E-02
    20  1.9000000000000E-01  5.8141247895351E-01 -7.9628806594267E-02
    21  2.0000000000000E-01  6.1149188308631E-01 -8.6673362115820E-02
    22  2.1000000000000E-01  6.4140038895829E-01 -9.3918383751567E-02
    23  2.2000000000000E-01  6.7110992120796E-01 -1.0132410563168E-01
    24  2.3000000000000E-01  7.0059053444366E-01 -1.0884652280340E-01
    25  2.4000000000000E-01  7.2981052459826E-01 -1.1643778806005E-01
    26  2.5000000000000E-01  7.5873655791110E-01 -1.2404665506494E-01
    27  2.6000000000000E-01  7.8733381637881E-01 -1.3161896296185E-01
    28  2.7000000000000E-01  8.1556615836457E-01 -1.3909815717627E-01
    29  2.8000000000000E-01  8.4339629291686E-01 -1.4642584067945E-01
    30  2.9000000000000E-01  8.7078596622415E-01 -1.5354234961559E-01
    31  3.0000000000000E-01  8.9769615852307E-01 -1.6038734688554E-01
    32  3.1000000000000E-01  9.2408728968530E-01 -1.6690042704180E-01
    33  3.2000000000000E-01  9.4991943163369E-01 -1.7302172568303E-01
    34  3.3000000000000E-01  9.7515252568136E-01 -1.7869252644279E-01
    35  3.4000000000000E-01  9.9974660284982E-01 -1.8385585865034E-01
    36  3.5000000000000E-01  1.0236620052036E+00 -1.8845707879921E-01
    37  3.6000000000000E-01  1.0468596062395E+00 -1.9244442909507E-01
    38  3.7000000000000E-01  1.0693010283884E+00 -1.9576956656378E-01
    39  3.8000000000000E-01  1.0909488557264E+00 -1.9838805648508E-01
    40  3.9000000000000E-01  1.1117668400518E+00 -2.0025982427243E-01
    41  4.0000000000000E-01  1.1317200985564E+00 -2.0134956034268E-01
    42  4.1000000000000E-01  1.1507753014166E+00 -2.0162707300675E-01
    43  4.2000000000000E-01  1.1689008477373E+00 -2.0106758495925E-01
    44  4.3000000000000E-01  1.1860670284072E+00 -1.9965196954550E-01
    45  4.4000000000000E-01  1.2022461745609E+00 -1.9736692363293E-01
    46  4.5000000000000E-01  1.2174127904978E+00 -1.9420507460419E-01
    47  4.6000000000000E-01  1.2315436700656E+00 -1.9016501971301E-01
    48  4.7000000000000E-01  1.2446179956917E+00 -1.8525129679498E-01
    49  4.8000000000000E-01  1.2566174194203E+00 -1.7947428609476E-01
    50  4.9000000000000E-01  1.2675261255021E+00 -1.7285004375156E-01
    51  5.0000000000000E-01  1.2773308742655E+00 -1.6540006826668E-01
    52  5.1000000000000E-01  1.2860210271945E+00 -1.5715100205289E-01
    53  5.2000000000000E-01  1.2935885533220E+00 -1.4813427092589E-01
    54  5.3000000000000E-01  1.3000280172365E+00 -1.3838566513555E-01
    55  5.4000000000000E-01  1.3053365491853E+00 -1.2794486624002E-01
    56  5.5000000000000E-01  1.3095137979272E+00 -1.1685492479130E-01
    57  5.6000000000000E-01  1.3125618671633E+00 -1.0516169441861E-01
    58  5.7000000000000E-01  1.3144852365272E+00 -9.2913228459082E-02
    59  5.8000000000000E-01  1.3152906682661E+00 -8.0159145786198E-02
    60  5.9000000000000E-01  1.3149871008753E+00 -6.6949972919897E-02
    61  6.0000000000000E-01  1.3135855310686E+00 -5.3336469861852E-02
    62  6.1000000000000E-01  1.3110988855724E+00 -3.9368947381473E-02
    63  6.2000000000000E-01  1.3075418843111E+00 -2.5096583677421E-02
    64  6.3000000000000E-01  1.3029308966285E+00 -1.0566748453771E-02
    65  6.4000000000000E-01  1.2972837922304E+00  4.1756575227259E-03
    66  6.5000000000000E-01  1.2906197885725E+00  1.9088839379778E-02
    67  6.6000000000000E-01  1.2829592964218E+00  3.4134713757116E-02
    68  6.7000000000000E-01  1.2743237653184E+00  4.9279475468437E-02
    69  6.8000000000000E-01  1.2647355306309E+00  6.4494117917489E-02
    70  6.9000000000000E-01  1.2542176638579E+00  7.9754900385849E-02
    71  7.0000000000000E-01  1.2427938277603E+00  9.5043755798798E-02
    72  7.1000000000000E-01  1.2304881378288E+00  1.1034863313968E-01
    73  7.2000000000000E-01  1.2173250314927E+00  1.2566376931628E-01
    74  7.3000000000000E-01  1.2033291463630E+00  1.4098988598053E-01
    75  7.4000000000000E-01  1.1885252086746E+00  1.5633430755565E-01
    76  7.5000000000000E-01  1.1729379329557E+00  1.7171099752731E-01
    77  7.6000000000000E-01  1.1565919337998E+00  1.8714051089704E-01
    78  7.7000000000000E-01  1.1395116504597E+00  2.0264986156940E-01
    79  7.8000000000000E-01  1.1217212848168E+00  2.1827230433917E-01
    80  7.9000000000000E-01  1.1032447531090E+00  2.3404703205173E-01
    81  8.0000000000000E-01  1.0841056516291E+00  2.5001878941846E-01
    82  8.1000000000000E-01  1.0643272364323E+00  2.6623740587083E-01
    83  8.2000000000000E-01  1.0439324169192E+00  2.8275725071952E-01
    84  8.3000000000000E-01  1.0229437629954E+00  2.9963661474135E-01
    85  8.4000000000000E-01  1.0013835253437E+00  3.1693702313598E-01
    86  8.5000000000000E-01  9.7927366819287E-01  3.3472248556694E-01
    87  8.6000000000000E-01  9.5663591382219E-01  3.5305868972106E-01
    88  8.7000000000000E-01  9.3349179790448E-01  3.7201214547634E-01
    89  8.8000000000000E-01  9.0986273467234E-01  3.9164928735542E-01
    90  8.9000000000000E-01  8.8577009078279E-01  4.1203554345377E-01
    91  9.0000000000000E-01  8.6123526666443E-01  4.3323437946229E-01
    92  9.1000000000000E-01  8.3627978405480E-01  4.5530632674887E-01
    93  9.2000000000000E-01  8.1092537837597E-01  4.7830800372193E-01
    94  9.3000000000000E-01  7.8519409455452E-01  5.0229113986408E-01
    95  9.4000000000000E-01  7.5910838486660E-01  5.2730161190074E-01
    96  9.5000000000000E-01  7.3269120738122E-01  5.5337850155153E-01
    97  9.6000000000000E-01  7.0596612358380E-01  5.8055318420747E-01
    98  9.7000000000000E-01  6.7895739378750E-01  6.0884845768384E-01
    99  9.8000000000000E-01  6.5169006898031E-01  6.3827771992245E-01
   100  9.9000000000000E-01  6.2419007781124E-01  6.6884420416210E-01
   101  1.0000000000000E+00  5.9648430748659E-01  7.0054027966796E-01
   102  1.0100000000000E+00  5.6860067742705E-01  7.3334682561670E-01
   103  1.0200000000000E+00  5.4056820462546E-01  7.6723268518050E-01
   104  1.0300000000000E+00  5.1241705974250E-01  8.0215420624919E-01
   105  1.0400000000000E+00  4.8417861308033E-01  8.3805487458405E-01
   106  1.0500000000000E+00  4.5588546968159E-01  8.7486504451687E-01
   107  1.0600000000000E+00  4.2757149290993E-01  9.1250177160441E-01
   108  1.0700000000000E+00  3.9927181597656E-01  9.5086875093196E-01
   109  1.0800000000000E+00  3.7102284098376E-01  9.8985636403397E-01
   110  1.0900000000000E+00  3.4286222515771E-01  1.0293418366820E+00
   111  1.1000000000000E+00  3.1482885403843E-01  1.0691895090805E+00
   112  1.1100000000000E+00  2.8696280148229E-01  1.1092512193230E+00
   113  1.1200000000000E+00  2.5930527640972E-01  1.1493668002979E+00
   114  1.1300000000000E+00  2.3189855629832E-01  1.1893646896028E+00
   115  1.1400000000000E+00  2.0478590747618E-01  1.2290626514330E+00
   116  1.1500000000000E+00  1.7801149231289E-01  1.2682686088542E+00
   117  1.1600000000000E+00  1.5162026343547E-01  1.3067815843564E+00
   118  1.1700000000000E+00  1.2565784511316E-01  1.3443927461166E+00
   119  1.1800000000000E+00  1.0017040195986E-01  1.3808865569637E+00
   120  1.1900000000000E+00  7.5204495096027E-02  1.4160420226434E+00
   121  1.2000000000000E+00  5.0806925895393E-02  1.4496340356164E+00
   122  1.2100000000000E+00  2.7024567417187E-02  1.4814348102805E+00
   123  1.2200000000000E+00  3.9041835939419E-03  1.5112154051750E+00
   124  1.2300000000000E+00 -1.8507763787757E-02  1.5387473274022E+00
   125  1.2400000000000E+00 -4.0165320309020E-02  1.5638042141547E+00
   126  1.2500000000000E+00 -6.1023256366243E-02  1.5861635858737E+00
   127  1.2600000000000E+00 -8.1037296887062E-02  1.6056086651440E+00
   128  1.2700000000000E+00 -1.0016436336280E-01  1.6219302549551E+00
   129  1.2800000000000E+00 -1.1836282823181E-01  1.6349286693848E+00
   130  1.2900000000000E+00 -1.3559278161059E-01  1.6444157090880E+00
   131  1.3000000000000E+00 -1.5181631029987E-01  1.6502166731554E+00
   132  1.3100000000000E+00 -1.6699778888723E-01  1.6521723979283E+00
   133  1.3200000000000E+00 -1.8110418261733E-01  1.6501413121935E+00
   134  1.3300000000000E+00 -1.9410536149908E-01  1.6440014967893E+00
   135  1.3400000000000E+00 -2.0597442485844E-01  1.6336527350170E+00
   136  1.3500000000000E+00 -2.1668803521818E-01  1.6190185383312E+00
   137  1.3600000000000E+00 -2.2622675998596E-01  1.6000481295529E+00
   138  1.3700000000000E+00 -2.3457541894519E-01  1.5767183632556E+00
   139  1.3800000000000E+00 -2.4172343497005E-01  1.5490355600165E+00
   140  1.3900000000000E+00 -2.4766518470829E-01  1.5170372278277E+00
   141  1.4000000000000E+00 -2.5240034519674E-01  1.4807936401464E+00
   142  1.4100000000000E+00 -2.5593423146790E-01  1.4404092357006E+00
   143  1.4200000000000E+00 -2.5827811918336E-01  1.3960238003297E+00
   144  1.4300000000000E+00 -2.5944954516633E-01  1.3478133857014E+00
   145  1.4400000000000E+00 -2.5947257739560E-01  1.2959909137015E+00
   146  1.4500000000000E+00 -2.5837804457056E-01  1.2408064086428E+00
   147  1.4600000000000E+00 -2.5620371372056E-01  1.1825467920174E+00
   148  1.4700000000000E+00 -2.5299440254103E-01  1.1215351664447E+00
   149  1.4800000000000E+00 -2.4880201115277E-01  1.0581295065672E+00
   150  1.4900000000000E+00 -2.4368545580424E-01  9.9272066494178E-01
   151  1.5000000000000E+00 -2.3771048465225E-01  9.2572959037977E-01
   152  1.5100000000000E+00 -2.3094935315849E-01  8.5760364469173E-01
   153  1.5200000000000E+00 -2.2348033381532E-01  7.8881189131966E-01
   154  1.5300000000000E+00 -2.1538703183779E-01  7.1983921578587E-01
   155  1.5400000000000E+00 -2.0675747514644E-01  6.5117912331429E-01
   156  1.5500000000000E+00 -1.9768294337511E-01  5.8332504320324E-01
   157  1.5600000000000E+00 -1.8825649677231E-01  5.1675995255379E-01
   158  1.5700000000000E+00 -1.7857116170363E-01  4.5194411369366E-01
   159  1.5800000000000E+00 -1.6871772442005E-01  3.8930069543976E-01
   160  1.5900000000000E+00 -1.5878208194144E-01  3.2919904403119E-01
   161  1.6000000000000E+00 -1.4884210373844E-01  2.7193541945185E-01
   162  1.6100000000000E+00 -1.3896433294479E-01  2.1771405662042E-01
   163  1.6200000000000E+00 -1.2920615074771E-01  1.6667248225445E-01
   164  1.6300000000000E+00 -1.1962047260726E-01  1.1892315634379E-01
   165  1.6400000000000E+00 -1.1025612955567E-01  7.4557778469876E-02
   166  1.6500000000000E+00 -1.0115765323131E-01  3.3646534691648E-02
   167  1.6600000000000E+00 -9.2365107534571E-02 -3.7623968157089E-03
   168  1.6700000000000E+00 -8.3913956612537E-02 -3.7643171073782E-02
   169  1.6800000000000E+00 -7.5834971695303E-02 -6.7992416589744E-02
   170  1.6900000000000E+00 -6.8154177420462E-02 -9.4829188985925E-02
   171  1.7000000000000E+00 -6.0892838071542E-02 -1.1819473683277E-01
   172  1.7100000000000E+00 -5.4067483757823E-02 -1.3815208050718E-01
   173  1.7200000000000E+00 -4.7689976232769E-02 -1.5478540635267E-01
   174  1.7300000000000E+00 -4.1767613655137E-02 -1.6819928032206E-01
   175  1.7400000000000E+00 -3.6303273232102E-02 -1.7851768698084E-01
   176  1.7500000000000E+00 -3.1295590362164E-02 -1.8588290117001E-01
   177  1.7600000000000E+00 -2.6739172526410E-02 -1.9045420139925E-01
   178  1.7700000000000E+00 -2.2624845842120E-02 -1.9240643558804E-01
   179  1.7800000000000E+00 -1.8939931933290E-02 -1.9192845086763E-01
   180  1.7900000000000E+00 -1.5668552422902E-02 -1.8922140087861E-01
   181  1.8000000000000E+00 -1.2791958150144E-02 -1.8449694479659E-01
   182  1.8100000000000E+00 -1.0288879929639E-02 -1.7797535370661E-01
   183  1.8200000000000E+00 -8.1358975038047E-03 -1.6988354061645E-01
   184  1.8300000000000E+00 -6.3078231539417E-03 -1.6045303124504E-01
   185  1.8400000000000E+00 -4.7780962777745E-03 -1.4991789344319E-01
   186  1.8500000000000E+00 -3.5191851603641E-03 -1.3851264339910E-01
   187  1.8600000000000E+00 -2.5029920883141E-03 -1.2647014710865E-01
   188  1.8700000000000E+00 -1.7012578101237E-03 -1.1401953608265E-01
   189  1.8800000000000E+00 -1.0859615366235E-03 -1.0138415558088E-01
   190  1.8900000000000E+00 -6.2971980903484E-04 -8.8779542411531E-02
   191  1.9000000000000E+00 -3.0613275006334E-04 -7.6411589578859E-02
   192  1.9100000000000E+00 -9.0362807993452E-05 -6.4474075001659E-02
   193  1.9200000000000E+00  3.8870904749683E-05 -5.3141829516635E-02
   194  1.9300000000000E+00  1.0190383818000E-04 -4.2577918412568E-02
   195  1.9400000000000E+00  1.1893575985726E-04 -3.2935641294257E-02
   196  1.9500000000000E+00  1.0715807488712E-04 -2.4349462344869E-02
   197  1.9600000000000E+00  8.0846009671573E-05 -1.6934759791610E-02
   198  1.9700000000000E+00  5.1098496596740E-05 -1.0786620270319E-02
   199  1.9800000000000E+00  2.5661184759804E-05 -5.9812749055355E-03
   200  1.9900000000000E+00  8.8125230093549E-06 -2.5508981643470E-03
   201  2.0000000000000E+00  1.2906797970057E-06 -5.9775084845747E-04
   202  2.0100000000000E+00 -1.6911341210685E-08  2.1853551060400E-05
   203  2.0200000000000E+00 -2.2421697115257E-09  8.7805215492332E-06
   204  2.03  0.  0.
   205  2.04  0.  0.
   206  2.05  0.  0.
   207  2.06  0.  0.
   208  2.07  0.  0.
   209  2.08  0.  0.
   210  2.09  0.  0.
   211  2.10  0.  0.
   212  2.11  0.  0.
   213  2.12  0.  0.
   214  2.13  0.  0.
   215  2.14  0.  0.
   216  2.15  0.  0.
   217  2.16  0.  0.
   218  2.17  0.  0.
   219  2.18  0.  0.
   220  2.19  0.  0.
   221  2.20  0.  0.
   222  2.21  0.  0.
   223  2.22  0.  0.
   224  2.23  0.  0.
   225  2.24  0.  0.
   226  2.25  0.  0.
   227  2.26  0.  0.
   228  2.27  0.  0.
   229  2.28  0.  0.
   230  2.29  0.  0.
   231  2.30  0.  0.
   232  2.31  0.  0.
   233  2.32  0.  0.
   234  2.33  0.  0.
   235  2.34  0.  0.
   236  2.35  0.  0.
   237  2.36  0.  0.
   238  2.37  0.  0.
   239  2.38  0.  0.
   240  2.39  0.  0.
   241  2.40  0.  0.
   242  2.41  0.  0.
   243  2.42  0.  0.
   244  2.43  0.  0.
   245  2.44  0.  0.
   246  2.45  0.  0.
   247  2.46  0.  0.
   248  2.47  0.  0.
   249  2.48  0.  0.
   250  2.49  0.  0.
   251  2.50  0.  0.
   252  2.51  0.  0.
   253  2.52  0.  0.
   254  2.53  0.  0.
   255  2.54  0.  0.
   256  2.55  0.  0.
   257  2.56  0.  0.
   258  2.57  0.  0.
   259  2.58  0.  0.
   260  2.59  0.  0.
   261  2.60  0.  0.
   262  2.61  0.  0.
   263  2.62  0.  0.
   264  2.63  0.  0.
   265  2.64  0.  0.
   266  2.65  0.  0.
   267  2.66  0.  0.
   268  2.67  0.  0.
   269  2.68  0.  0.
   270  2.69  0.  0.
   271  2.70  0.  0.
   272  2.71  0.  0.
   273  2.72  0.  0.
   274  2.73  0.  0.
   275  2.74  0.  0.
   276  2.75  0.  0.
   277  2.76  0.  0.
   278  2.77  0.  0.
   279  2.78  0.  0.
   280  2.79  0.  0.
   281  2.80  0.  0.
   282  2.81  0.  0.
   283  2.82  0.  0.
   284  2.83  0.  0.
   285  2.84  0.  0.
   286  2.85  0.  0.
   287  2.86  0.  0.
   288  2.87  0.  0.
   289  2.88  0.  0.
   290  2.89  0.  0.
   291  2.90  0.  0.
   292  2.91  0.  0.
   293  2.92  0.  0.
   294  2.93  0.  0.
   295  2.94  0.  0.
   296  2.95  0.  0.
   297  2.96  0.  0.
   298  2.97  0.  0.
   299  2.98  0.  0.
   300  2.99  0.  0.
   301  3.00  0.  0.
   302  3.01  0.  0.
   303  3.02  0.  0.
   304  3.03  0.  0.
   305  3.04  0.  0.
   306  3.05  0.  0.
   307  3.06  0.  0.
   308  3.07  0.  0.
   309  3.08  0.  0.
   310  3.09  0.  0.
   311  3.10  0.  0.
   312  3.11  0.  0.
   313  3.12  0.  0.
   314  3.13  0.  0.
   315  3.14  0.  0.
   316  3.15  0.  0.
   317  3.16  0.  0.
   318  3.17  0.  0.
   319  3.18  0.  0.
   320  3.19  0.  0.
   321  3.20  0.  0.
   322  3.21  0.  0.
   323  3.22  0.  0.
   324  3.23  0.  0.
   325  3.24  0.  0.
   326  3.25  0.  0.
   327  3.26  0.  0.
   328  3.27  0.  0.
   329  3.28  0.  0.
   330  3.29  0.  0.
   331  3.30  0.  0.
   332  3.31  0.  0.
   333  3.32  0.  0.
   334  3.33  0.  0.
   335  3.34  0.  0.
   336  3.35  0.  0.
   337  3.36  0.  0.
   338  3.37  0.  0.
   339  3.38  0.  0.
   340  3.39  0.  0.
   341  3.40  0.  0.
   342  3.41  0.  0.
   343  3.42  0.  0.
   344  3.43  0.  0.
   345  3.44  0.  0.
   346  3.45  0.  0.
   347  3.46  0.  0.
   348  3.47  0.  0.
   349  3.48  0.  0.
   350  3.49  0.  0.
   351  3.50  0.  0.
   352  3.51  0.  0.
   353  3.52  0.  0.
   354  3.53  0.  0.
   355  3.54  0.  0.
   356  3.55  0.  0.
   357  3.56  0.  0.
   358  3.57  0.  0.
   359  3.58  0.  0.
   360  3.59  0.  0.
   361  3.60  0.  0.
   362  3.61  0.  0.
   363  3.62  0.  0.
   364  3.63  0.  0.
   365  3.64  0.  0.
   366  3.65  0.  0.
   367  3.66  0.  0.
   368  3.67  0.  0.
   369  3.68  0.  0.
   370  3.69  0.  0.
   371  3.70  0.  0.
   372  3.71  0.  0.
   373  3.72  0.  0.
   374  3.73  0.  0.
   375  3.74  0.  0.
   376  3.75  0.  0.
   377  3.76  0.  0.
   378  3.77  0.  0.
   379  3.78  0.  0.
   380  3.79  0.  0.
   381  3.80  0.  0.
   382  3.81  0.  0.
   383  3.82  0.  0.
   384  3.83  0.  0.
   385  3.84  0.  0.
   386  3.85  0.  0.
   387  3.86  0.  0.
   388  3.87  0.  0.
   389  3.88  0.  0.
   390  3.89  0.  0.
   391  3.90  0.  0.
   392  3.91  0.  0.
   393  3.92  0.  0.
   394  3.93  0.  0.
   395  3.94  0.  0.
   396  3.95  0.  0.
   397  3.96  0.  0.
   398  3.97  0.  0.
   399  3.98  0.  0.
   400  3.99  0.  0.
   401  4.00  0.  0.
   402  4.01  0.  0.
   403  4.02  0.  0.
   404  4.03  0.  0.
   405  4.04  0.  0.
   406  4.05  0.  0.
   407  4.06  0.  0.
   408  4.07  0.  0.
   409  4.08  0.  0.
   410  4.09  0.  0.
   411  4.10  0.  0.
   412  4.11  0.  0.
   413  4.12  0.  0.
   414  4.13  0.  0.
   415  4.14  0.  0.
   416  4.15  0.  0.
   417  4.16  0.  0.
   418  4.17  0.  0.
   419  4.18  0.  0.
   420  4.19  0.  0.
   421  4.20  0.  0.
   422  4.21  0.  0.
   423  4.22  0.  0.
   424  4.23  0.  0.
   425  4.24  0.  0.
   426  4.25  0.  0.
   427  4.26  0.  0.
   428  4.27  0.  0.
   429  4.28  0.  0.
   430  4.29  0.  0.
   431  4.30  0.  0.
   432  4.31  0.  0.
   433  4.32  0.  0.
   434  4.33  0.  0.
   435  4.34  0.  0.
   436  4.35  0.  0.
   437  4.36  0.  0.
   438  4.37  0.  0.
   439  4.38  0.  0.
   440  4.39  0.  0.
   441  4.40  0.  0.
   442  4.41  0.  0.
   443  4.42  0.  0.
   444  4.43  0.  0.
   445  4.44  0.  0.
   446  4.45  0.  0.
   447  4.46  0.  0.
   448  4.47  0.  0.
   449  4.48  0.  0.
   450  4.49  0.  0.
   451  4.50  0.  0.
   452  4.51  0.  0.
   453  4.52  0.  0.
   454  4.53  0.  0.
   455  4.54  0.  0.
   456  4.55  0.  0.
   457  4.56  0.  0.
   458  4.57  0.  0.
   459  4.58  0.  0.
   460  4.59  0.  0.
   461  4.60  0.  0.
   462  4.61  0.  0.
   463  4.62  0.  0.
   464  4.63  0.  0.
   465  4.64  0.  0.
   466  4.65  0.  0.
   467  4.66  0.  0.
   468  4.67  0.  0.
   469  4.68  0.  0.
   470  4.69  0.  0.
   471  4.70  0.  0.
   472  4.71  0.  0.
   473  4.72  0.  0.
   474  4.73  0.  0.
   475  4.74  0.  0.
   476  4.75  0.  0.
   477  4.76  0.  0.
   478  4.77  0.  0.
   479  4.78  0.  0.
   480  4.79  0.  0.
   481  4.80  0.  0.
   482  4.81  0.  0.
   483  4.82  0.  0.
   484  4.83  0.  0.
   485  4.84  0.  0.
   486  4.85  0.  0.
   487  4.86  0.  0.
   488  4.87  0.  0.
   489  4.88  0.  0.
   490  4.89  0.  0.
   491  4.90  0.  0.
   492  4.91  0.  0.
   493  4.92  0.  0.
   494  4.93  0.  0.
   495  4.94  0.  0.
   496  4.95  0.  0.
   497  4.96  0.  0.
   498  4.97  0.  0.
   499  4.98  0.  0.
   500  4.99  0.  0.
   501  5.00  0.  0.
   502  5.01  0.  0.
   503  5.02  0.  0.
   504  5.03  0.  0.
   505  5.04  0.  0.
   506  5.05  0.  0.
   507  5.06  0.  0.
   508  5.07  0.  0.
   509  5.08  0.  0.
   510  5.09  0.  0.
   511  5.10  0.  0.
   512  5.11  0.  0.
   513  5.12  0.  0.
   514  5.13  0.  0.
   515  5.14  0.  0.
   516  5.15  0.  0.
   517  5.16  0.  0.
   518  5.17  0.  0.
   519  5.18  0.  0.
   520  5.19  0.  0.
   521  5.20  0.  0.
   522  5.21  0.  0.
   523  5.22  0.  0.
   524  5.23  0.  0.
   525  5.24  0.  0.
   526  5.25  0.  0.
   527  5.26  0.  0.
   528  5.27  0.  0.
   529  5.28  0.  0.
   530  5.29  0.  0.
   531  5.30  0.  0.
   532  5.31  0.  0.
   533  5.32  0.  0.
   534  5.33  0.  0.
   535  5.34  0.  0.
   536  5.35  0.  0.
   537  5.36  0.  0.
   538  5.37  0.  0.
   539  5.38  0.  0.
   540  5.39  0.  0.
   541  5.40  0.  0.
   542  5.41  0.  0.
   543  5.42  0.  0.
   544  5.43  0.  0.
   545  5.44  0.  0.
   546  5.45  0.  0.
   547  5.46  0.  0.
   548  5.47  0.  0.
   549  5.48  0.  0.
   550  5.49  0.  0.
   551  5.50  0.  0.
   552  5.51  0.  0.
   553  5.52  0.  0.
   554  5.53  0.  0.
   555  5.54  0.  0.
   556  5.55  0.  0.
   557  5.56  0.  0.
   558  5.57  0.  0.
   559  5.58  0.  0.
   560  5.59  0.  0.
   561  5.60  0.  0.
   562  5.61  0.  0.
   563  5.62  0.  0.
   564  5.63  0.  0.
   565  5.64  0.  0.
   566  5.65  0.  0.
   567  5.66  0.  0.
   568  5.67  0.  0.
   569  5.68  0.  0.
   570  5.69  0.  0.
   571  5.70  0.  0.
   572  5.71  0.  0.
   573  5.72  0.  0.
   574  5.73  0.  0.
   575  5.74  0.  0.
   576  5.75  0.  0.
   577  5.76  0.  0.
   578  5.77  0.  0.
   579  5.78  0.  0.
   580  5.79  0.  0.
   581  5.80  0.  0.
   582  5.81  0.  0.
   583  5.82  0.  0.
   584  5.83  0.  0.
   585  5.84  0.  0.
   586  5.85  0.  0.
   587  5.86  0.  0.
   588  5.87  0.  0.
   589  5.88  0.  0.
   590  5.89  0.  0.
   591  5.90  0.  0.
   592  5.91  0.  0.
   593  5.92  0.  0.
   594  5.93  0.  0.
   595  5.94  0.  0.
   596  5.95  0.  0.
   597  5.96  0.  0.
   598  5.97  0.  0.
   599  5.98  0.  0.
   600  5.99  0.  0.
   1                         6.0224726373151E+00  7.4418549327517E-01  4.8930391476750E-02
     1  0.0000000000000E+00  1.3272971804978E-08 -3.6192778135602E-08  3.4386031966260E-08
     2  1.0000000000000E-02  1.3817861102201E-03 -1.9814968925186E-03  1.0858067650532E-03
     3  2.0000000000000E-02  5.5081313556114E-03 -7.8773868788326E-03  4.3000727141831E-03
     4  3.0000000000000E-02  1.2322382004775E-02 -1.7542913437119E-02  9.5143200816663E-03
     5  4.0000000000000E-02  2.1731392404682E-02 -3.0740279461810E-02  1.6517683160062E-02
     6  5.0000000000000E-02  3.3607413514306E-02 -4.7143768402884E-02  2.5021733369655E-02
     7  6.0000000000000E-02  4.7790682776977E-02 -6.6346766366060E-02  3.4667094230679E-02
     8  7.0000000000000E-02  6.4092662542843E-02 -8.7870541193606E-02  4.5031709451249E-02
     9  8.0000000000000E-02  8.2299860979924E-02 -1.1117459835265E-01  5.5640592957911E-02
    10  9.0000000000000E-02  1.0217815744814E-01 -1.3566840084158E-01  6.5976858706581E-02
    11  1.0000000000000E-01  1.2347754389410E-01 -1.6072421193622E-01  7.5493801138914E-02
    12  1.1000000000000E-01  1.4593718516350E-01 -1.8569079600624E-01  8.3627774733056E-02
    13  1.2000000000000E-01  1.6929069439795E-01 -2.0990769431400E-01  8.9811603693176E-02
    14  1.3000000000000E-01  1.9327151502012E-01 -2.3271978003796E-01  9.3488240783597E-02
    15  1.4000000000000E-01  2.1761829831339E-01 -2.5349179000525E-01  9.4124387894870E-02
    16  1.5000000000000E-01  2.4208016532406E-01 -2.7162252992159E-01  9.1223790272468E-02
    17  1.6000000000000E-01  2.6642174376777E-01 -2.8655845528423E-01  8.4339921476097E-02
    18  1.7000000000000E-01  2.9042787477510E-01 -2.9780634156557E-01  7.3087786986108E-02
    19  1.8000000000000E-01  3.1390789059021E-01 -3.0494477445738E-01  5.7154590740770E-02
    20  1.9000000000000E-01  3.3669937262367E-01 -3.0763421364808E-01  3.6309030470457E-02
    21  2.0000000000000E-01  3.5867130940054E-01 -3.0562541133986E-01  1.0409014089591E-02
    22  2.1000000000000E-01  3.7972658574502E-01 -2.9876599897217E-01 -2.0592379888028E-02
    23  2.2000000000000E-01  3.9980374777652E-01 -2.8700509178223E-01 -5.6642840513980E-02
    24  2.3000000000000E-01  4.1887800270530E-01 -2.7039580020714E-01 -9.7588766260518E-02
    25  2.4000000000000E-01  4.3696142772897E-01 -2.4909557894963E-01 -1.4317527584310E-01
    26  2.5000000000000E-01  4.5410237824718E-01 -2.2336438797916E-01 -1.9304831188790E-01
    27  2.6000000000000E-01  4.7038410181913E-01 -1.9356068396924E-01 -2.4675881916338E-01
    28  2.7000000000000E-01  4.8592258046986E-01 -1.6013530481300E-01 -3.0376893700460E-01
    29  2.8000000000000E-01  5.0086363978696E-01 -1.2362335303845E-01 -3.6346010436477E-01
    30  2.9000000000000E-01  5.1537937842502E-01 -8.4634225305305E-02 -4.2514293644878E-01
    31  3.0000000000000E-01  5.2966398584857E-01 -4.3839973878499E-02 -4.8806869490480E-01
    32  3.1000000000000E-01  5.4392902910852E-01 -1.9622212598010E-03 -5.5144213981761E-01
    33  3.2000000000000E-01  5.5839830089934E-01  4.0242119701124E-02 -6.1443552194603E-01
    34  3.3000000000000E-01  5.7330233084909E-01  8.1996041542281E-02 -6.7620344839029E-01
    35  3.4000000000000E-01  5.8887266974780E-01  1.2251825408572E-01 -7.3589833469318E-01
    36  3.5000000000000E-01  6.0533606205660E-01  1.6103929758963E-01 -7.9268614170463E-01
    37  3.6000000000000E-01  6.2290862543314E-01  1.9681763316681E-01 -8.4576208670427E-01
    38  3.7000000000000E-01  6.4179015707489E-01  2.2915538375622E-01 -8.9436601549884E-01
    39  3.8000000000000E-01  6.6215868538167E-01  2.5741340267340E-01 -9.3779712559545E-01
    40  3.9000000000000E-01  6.8416538177984E-01  2.8102535694608E-01 -9.7542774008111E-01
    41  4.0000000000000E-01  7.0792994158426E-01  2.9951052911457E-01 -1.0067158473804E+00
    42  4.1000000000000E-01  7.3353653459933E-01  3.1248506367267E-01 -1.0312161433629E+00
    43  4.2000000000000E-01  7.6103041591782E-01  3.1967141245217E-01 -1.0485893389657E+00
    44  4.3000000000000E-01  7.9041527524909E-01  3.2090576651015E-01 -1.0586095281099E+00
    45  4.4000000000000E-01  8.2165138931618E-01  3.1614329985647E-01 -1.0611694466516E+00
    46  4.5000000000000E-01  8.5465462666024E-01  3.0546109195905E-01 -1.0562834927584E+00
    47  4.6000000000000E-01  8.8929633786380E-01  2.8905864060726E-01 -1.0440884216956E+00
    48  4.7000000000000E-01  9.2540414705984E-01  2.6725592355426E-01 -1.0248416727572E+00
    49  4.8000000000000E-01  9.6276364295905E-01  2.4048901550036E-01 -9.9891733211429E-01
    50  4.9000000000000E-01  1.0011209498407E+00  2.0930331549565E-01 -9.6679978181457E-01
    51  5.0000000000000E-01  1.0401861413596E+00  1.7434448778452E-01 -9.2907513113880E-01
    52  5.1000000000000E-01  1.0796374429643E+00  1.3634726554829E-01 -8.8642057111563E-01
    53  5.2000000000000E-01  1.1191261525420E+00  9.6122311003341E-02 -8.3959183532921E-01
    54  5.3000000000000E-01  1.1582821939184E+00  5.4541365998444E-02 -7.8940898938664E-01
    55  5.4000000000000E-01  1.1967202043573E+00  1.2520963802446E-02 -7.3674080674871E-01
    56  5.5000000000000E-01  1.2340460454973E+00 -2.8994995574262E-02 -6.8248801934640E-01
    57  5.6000000000000E-01  1.2698636174742E+00 -6.9053478087253E-02 -6.2756575686451E-01
    58  5.7000000000000E-01  1.3037818485224E+00 -1.0671100798876E-01 -5.7288550822407E-01
    59  5.8000000000000E-01  1.3354217272884E+00 -1.4105245798332E-01 -5.1933695220032E-01
    60  5.9000000000000E-01  1.3644232425457E+00 -1.7120956892311E-01 -4.6777001094379E-01
    61  6.0000000000000E-01  1.3904520950575E+00 -1.9637883137517E-01 -4.1897748023140E-01
    62  6.1000000000000E-01  1.4132060490040E+00 -2.1583836917765E-01 -3.7367858348655E-01
    63  6.2000000000000E-01  1.4324207956594E+00 -2.2896347998140E-01 -3.3250378303140E-01
    64  6.3000000000000E-01  1.4478752097963E+00 -2.3524050953291E-01 -2.9598116185965E-01
    65  6.4000000000000E-01  1.4593958894776E+00 -2.3427876475000E-01 -2.6452466275976E-01
    66  6.5000000000000E-01  1.4668608823117E+00 -2.2582020499448E-01 -2.3842443932195E-01
    67  6.6000000000000E-01  1.4702025156666E+00 -2.0974669075813E-01 -2.1783953578043E-01
    68  6.7000000000000E-01  1.4694092645131E+00 -1.8608461354121E-01 -2.0279307044548E-01
    69  6.8000000000000E-01  1.4645266082049E+00 -1.5500677920706E-01 -1.9317005142173E-01
    70  6.9000000000000E-01  1.4556568462712E+00 -1.1683146864725E-01 -1.8871790424078E-01
    71  7.0000000000000E-01  1.4429578628612E+00 -7.2018653234605E-02 -1.8904973985393E-01
    72  7.1000000000000E-01  1.4266408494539E+00 -2.1163397255780E-02 -1.9365033910596E-01
    73  7.2000000000000E-01  1.4069670154714E+00  3.5013465730290E-02 -2.0188477732119E-01
    74  7.3000000000000E-01  1.3842433361074E+00  9.5677241929319E-02 -2.1300956098953E-01
    75  7.4000000000000E-01  1.3588174056390E+00  1.5989367939544E-01 -2.2618609873613E-01
    76  7.5000000000000E-01  1.3310714823455E+00  2.2664542222056E-01 -2.4049628176560E-01