Ce    ONCVPSP-4.0.1  r_core=   2.00895   1.60047   1.85864   1.65896
     58.0000     12.0000      231019    zatom,zion,pspd
     8      11   3     4   600     0    pspcod,pspxc,lmax,lloc,mmax,r2well
  5.99000000  0.25000000  0.00000000    rchrg fchrg qchrg
     2     2     2     2     0    nproj
     1     1           extension_switch
   0                         6.8837050496044E+00  5.5728803023337E-01
     1  0.0000000000000E+00  7.5203121507883E-11 -2.7927381240911E-10
     2  1.0000000000000E-02  3.0681898183994E-02 -2.3159897746387E-03
     3  2.0000000000000E-02  6.1366680947912E-02 -4.6728794817896E-03
     4  3.0000000000000E-02  9.2057022655133E-02 -7.1109860393146E-03
     5  4.0000000000000E-02  1.2275517927009E-01 -9.6694669343352E-03
     6  5.0000000000000E-02  1.5346278422490E-01 -1.2385756932593E-02
     7  6.0000000000000E-02  1.8418065031162E-01 -1.5295024297546E-02
     8  7.0000000000000E-02  2.1490857951953E-01 -1.8429652691395E-02
     9  8.0000000000000E-02  2.4564518266185E-01 -2.1818754650965E-02
    10  9.0000000000000E-02  2.7638771054340E-01 -2.5487722187580E-02
    11  1.0000000000000E-01  3.0713189831167E-01 -2.9457819655706E-02
    12  1.1000000000000E-01  3.3787182450888E-01 -3.3745823573911E-02
    13  1.2000000000000E-01  3.6859978620369E-01 -3.8363713568934E-02
    14  1.3000000000000E-01  3.9930619142891E-01 -4.3318418054179E-02
    15  1.4000000000000E-01  4.2997946998824E-01 -4.8611617654179E-02
    16  1.5000000000000E-01  4.6060600352128E-01 -5.4239608752009E-02
    17  1.6000000000000E-01  4.9117007553421E-01 -6.0193228875030E-02
    18  1.7000000000000E-01  5.2165384191519E-01 -6.6457844951342E-02
    19  1.8000000000000E-01  5.5203732226018E-01 -7.3013404773365E-02
    20  1.9000000000000E-01  5.8229841213899E-01 -7.9834551302639E-02
    21  2.0000000000000E-01  6.1241291623404E-01 -8.6890798748993E-02
    22  2.1000000000000E-01  6.4235460208847E-01 -9.4146768665193E-02
    23  2.2000000000000E-01  6.7209527400660E-01 -1.0156248362247E-01
    24  2.3000000000000E-01  7.0160486646112E-01 -1.0909371538013E-01
    25  2.4000000000000E-01  7.3085155617931E-01 -1.1669238384098E-01
    26  2.5000000000000E-01  7.5980189190637E-01 -1.2430700250064E-01
    27  2.6000000000000E-01  7.8842094068052E-01 -1.3188316555859E-01
    28  2.7000000000000E-01  8.1667244930137E-01 -1.3936407136941E-01
    29  2.8000000000000E-01  8.4451901953442E-01 -1.4669107647814E-01
    30  2.9000000000000E-01  8.7192229546916E-01 -1.5380427411047E-01
    31  3.0000000000000E-01  8.9884316133901E-01 -1.6064309067987E-01
    32  3.1000000000000E-01  9.2524194801876E-01 -1.6714689363416E-01
    33  3.2000000000000E-01  9.5107864634013E-01 -1.7325560379659E-01
    34  3.3000000000000E-01  9.7631312530933E-01 -1.7891030526273E-01
    35  3.4000000000000E-01  1.0009053532727E+00 -1.8405384589711E-01
    36  3.5000000000000E-01  1.0248156200580E+00 -1.8863142153227E-01
    37  3.6000000000000E-01  1.0480047581200E+00 -1.9259113710892E-01
    38  3.7000000000000E-01  1.0704343607386E+00 -1.9588453820634E-01
    39  3.8000000000000E-01  1.0920669953587E+00 -1.9846710669830E-01
    40  3.9000000000000E-01  1.1128664102169E+00 -2.0029871462647E-01
    41  4.0000000000000E-01  1.1327977324800E+00 -2.0134403080813E-01
    42  4.1000000000000E-01  1.1518276562101E+00 -2.0157287518559E-01
    43  4.2000000000000E-01  1.1699246185849E+00 -2.0096051647340E-01
    44  4.3000000000000E-01  1.1870589629261E+00 -1.9948790926316E-01
    45  4.4000000000000E-01  1.2032030872269E+00 -1.9714186739778E-01
    46  4.5000000000000E-01  1.2183315770242E+00 -1.9391517111987E-01
    47  4.6000000000000E-01  1.2324213216234E+00 -1.8980660622723E-01
    48  4.7000000000000E-01  1.2454516128545E+00 -1.8482093422223E-01
    49  4.8000000000000E-01  1.2574042257206E+00 -1.7896879321582E-01
    50  4.9000000000000E-01  1.2682634804831E+00 -1.7226653013057E-01
    51  5.0000000000000E-01  1.2780162859190E+00 -1.6473596553306E-01
    52  5.1000000000000E-01  1.2866521636745E+00 -1.5640409320593E-01
    53  5.2000000000000E-01  1.2941632538304E+00 -1.4730271733393E-01
    54  5.3000000000000E-01  1.3005443019839E+00 -1.3746803091962E-01
    55  5.4000000000000E-01  1.3057926283326E+00 -1.2694013975347E-01
    56  5.5000000000000E-01  1.3099080794264E+00 -1.1576253693133E-01
    57  5.6000000000000E-01  1.3128929634203E+00 -1.0398153353409E-01
    58  5.7000000000000E-01  1.3147519698212E+00 -9.1645651649743E-02
    59  5.8000000000000E-01  1.3154920748698E+00 -7.8804986421618E-02
    60  5.9000000000000E-01  1.3151224338302E+00 -6.5510544242843E-02
    61  6.0000000000000E-01  1.3136542615844E+00 -5.1813564578193E-02
    62  6.1000000000000E-01  1.3111007030258E+00 -3.7764833177988E-02
    63  6.2000000000000E-01  1.3074766948391E+00 -2.3413994649735E-02
    64  6.3000000000000E-01  1.3027988203162E+00 -8.8088724676260E-03
    65  6.4000000000000E-01  1.2970851589138E+00  6.0051954718976E-03
    66  6.5000000000000E-01  1.2903551322819E+00  2.0985997702565E-02
    67  6.6000000000000E-01  1.2826293485114E+00  3.6095058553504E-02
    68  6.7000000000000E-01  1.2739294463343E+00  5.1298208371631E-02
    69  6.8000000000000E-01  1.2642779409845E+00  6.6566107271974E-02
    70  6.9000000000000E-01  1.2536980733837E+00  8.1874715496955E-02
    71  7.0000000000000E-01  1.2422136642453E+00  9.7205703956667E-02
    72  7.1000000000000E-01  1.2298489746138E+00  1.1254679908831E-01
    73  7.2000000000000E-01  1.2166285742528E+00  1.2789205681022E-01
    74  7.3000000000000E-01  1.2025772191839E+00  1.4324206104553E-01
    75  7.4000000000000E-01  1.1877197395481E+00  1.5860404304889E-01
    76  7.5000000000000E-01  1.1720809388245E+00  1.7399191857414E-01
    77  7.6000000000000E-01  1.1556855052849E+00  1.8942624076829E-01
    78  7.7000000000000E-01  1.1385579364092E+00  2.0493406755403E-01
    79  7.8000000000000E-01  1.1207224768154E+00  2.2054874316247E-01
    80  7.9000000000000E-01  1.1022030700895E+00  2.3630959438931E-01
    81  8.0000000000000E-01  1.0830233247264E+00  2.5226154306170E-01
    82  8.1000000000000E-01  1.0632064942172E+00  2.6845463710814E-01
    83  8.2000000000000E-01  1.0427754711479E+00  2.8494350351307E-01
    84  8.3000000000000E-01  1.0217527950041E+00  3.0178672729725E-01
    85  8.4000000000000E-01  1.0001606732132E+00  3.1904616148939E-01
    86  8.5000000000000E-01  9.7802101479989E-01  3.3678617383157E-01
    87  8.6000000000000E-01  9.5535547588449E-01  3.5507283668369E-01
    88  8.7000000000000E-01  9.3218551612020E-01  3.7397306725288E-01
    89  8.8000000000000E-01  9.0853246504006E-01  3.9355372586375E-01
    90  8.9000000000000E-01  8.8441759717915E-01  4.1388068050038E-01
    91  9.0000000000000E-01  8.5986221474287E-01  4.3501784628431E-01
    92  9.1000000000000E-01  8.3488773651584E-01  4.5702620889997E-01
    93  9.2000000000000E-01  8.0951579164599E-01  4.7996284123862E-01
    94  9.3000000000000E-01  7.8376831689532E-01  5.0387992269908E-01
    95  9.4000000000000E-01  7.5766765592385E-01  5.2882377065990E-01
    96  9.5000000000000E-01  7.3123665916503E-01  5.5483389362185E-01
    97  9.6000000000000E-01  7.0449878286001E-01  5.8194207541370E-01
    98  9.7000000000000E-01  6.7747818584368E-01  6.1017149966028E-01
    99  9.8000000000000E-01  6.5019982271627E-01  6.3953592343493E-01
   100  9.9000000000000E-01  6.2268953208986E-01  6.7003890866074E-01
   101  1.0000000000000E+00  5.9497411866756E-01  7.0167311939480E-01
   102  1.0100000000000E+00  5.6708142799354E-01  7.3441969263302E-01
   103  1.0200000000000E+00  5.3904041280200E-01  7.6824768971575E-01
   104  1.0300000000000E+00  5.1088118999132E-01  8.0311363480670E-01
   105  1.0400000000000E+00  4.8263508735388E-01  8.3896114626796E-01
   106  1.0500000000000E+00  4.5433467930035E-01  8.7572066606876E-01
   107  1.0600000000000E+00  4.2601381092695E-01  9.1330929165861E-01
   108  1.0700000000000E+00  3.9770760988442E-01  9.5163071401172E-01
   109  1.0800000000000E+00  3.6945248561483E-01  9.9057526482080E-01
   110  1.0900000000000E+00  3.4128611562517E-01  1.0300200750933E+00
   111  1.1000000000000E+00  3.1324741856396E-01  1.0698293466885E+00
   112  1.1100000000000E+00  2.8537651395572E-01  1.1098547376404E+00
   113  1.1200000000000E+00  2.5771466852726E-01  1.1499358614413E+00
   114  1.1300000000000E+00  2.3030422912839E-01  1.1899008998262E+00
   115  1.1400000000000E+00  2.0318854230610E-01  1.2295673279989E+00
   116  1.1500000000000E+00  1.7641186063494E-01  1.2687427506777E+00
   117  1.1600000000000E+00  1.5001923593782E-01  1.3072258468259E+00
   118  1.1700000000000E+00  1.2405639954925E-01  1.3448074204490E+00
   119  1.1800000000000E+00  9.8569629779006E-02  1.3812715544117E+00
   120  1.1900000000000E+00  7.3605606728958E-02  1.4163968638203E+00
   121  1.2000000000000E+00  4.9211254599629E-02  1.4499578451511E+00
   122  1.2100000000000E+00  2.5433571600011E-02  1.4817263169593E+00
   123  1.2200000000000E+00  2.3194475442310E-03  1.5114729476664E+00
   124  1.2300000000000E+00 -2.0084530813371E-02  1.5389688655989E+00
   125  1.2400000000000E+00 -4.1732286685122E-02  1.5639873461041E+00
   126  1.2500000000000E+00 -6.2578472406612E-02  1.5863055702002E+00
   127  1.2600000000000E+00 -8.2578700869526E-02  1.6057064488044E+00
   128  1.2700000000000E+00 -1.0168978926226E-01  1.6219805060976E+00
   129  1.2800000000000E+00 -1.1987001513619E-01  1.6349278150196E+00
   130  1.2900000000000E+00 -1.3707938477731E-01  1.6443599772123E+00
   131  1.3000000000000E+00 -1.5327991379382E-01  1.6501021389119E+00
   132  1.3100000000000E+00 -1.6843591972390E-01  1.6519950333164E+00
   133  1.3200000000000E+00 -1.8251432631811E-01  1.6498970387969E+00
   134  1.3300000000000E+00 -1.9548497894911E-01  1.6436862409276E+00
   135  1.3400000000000E+00 -2.0732097034082E-01  1.6332624846839E+00
   136  1.3500000000000E+00 -2.1799897548264E-01  1.6185494012361E+00
   137  1.3600000000000E+00 -2.2749959419405E-01  1.5994963915481E+00
   138  1.3700000000000E+00 -2.3580769931949E-01  1.5760805463995E+00
   139  1.3800000000000E+00 -2.4291278795991E-01  1.5483084795031E+00
   140  1.3900000000000E+00 -2.4880933247090E-01  1.5162180469985E+00
   141  1.4000000000000E+00 -2.5349712717926E-01  1.4798799227974E+00
   142  1.4100000000000E+00 -2.5698162586375E-01  1.4393989949045E+00
   143  1.4200000000000E+00 -2.5927426402423E-01  1.3949155430106E+00
   144  1.4300000000000E+00 -2.6039275880092E-01  1.3466061522332E+00
   145  1.4400000000000E+00 -2.6036137809626E-01  1.2946843118423E+00
   146  1.4500000000000E+00 -2.5921116900028E-01  1.2394006411808E+00
   147  1.4600000000000E+00 -2.5698013398551E-01  1.1810426775778E+00
   148  1.4700000000000E+00 -2.5371334154727E-01  1.1199341530006E+00
   149  1.4800000000000E+00 -2.4946295598088E-01  1.0564336773101E+00
   150  1.4900000000000E+00 -2.4428816881224E-01  9.9093273629841E-01
   151  1.5000000000000E+00 -2.3825501201490E-01  9.2385290211891E-01
   152  1.5100000000000E+00 -2.3143603055100E-01  8.5564214223918E-01
   153  1.5200000000000E+00 -2.2390978895085E-01  7.8677010060493E-01
   154  1.5300000000000E+00 -2.1576018357156E-01  7.1772221117372E-01
   155  1.5400000000000E+00 -2.0707552886490E-01  6.4899248943357E-01
   156  1.5500000000000E+00 -1.9794738239644E-01  5.8107483177664E-01
   157  1.5600000000000E+00 -1.8846906949480E-01  5.1445263565587E-01
   158  1.5700000000000E+00 -1.7873386425153E-01  4.4958653522512E-01
   159  1.5800000000000E+00 -1.6883277855106E-01  3.8690002300551E-01
   160  1.5900000000000E+00 -1.5885190800260E-01  3.2676272384635E-01
   161  1.6000000000000E+00 -1.4886928850005E-01  2.6947113734756E-01
   162  1.6100000000000E+00 -1.3895159301237E-01  2.1522970775884E-01
   163  1.6200000000000E+00 -1.2915630368330E-01  1.6417613679460E-01
   164  1.6300000000000E+00 -1.1953641919205E-01  1.1642301180268E-01
   165  1.6400000000000E+00 -1.1014083659983E-01  7.2062107971152E-02
   166  1.6500000000000E+00 -1.0101413563367E-01  3.1163633003872E-02
   167  1.6600000000000E+00 -9.2196409765273E-02 -6.2242690253479E-03
   168  1.6700000000000E+00 -8.3723133778609E-02 -4.0075844246935E-02
   169  1.6800000000000E+00 -7.5625070350852E-02 -7.0387870055712E-02
   170  1.6900000000000E+00 -6.7928216295111E-02 -9.7179608945928E-02
   171  1.7000000000000E+00 -6.0653788889187E-02 -1.2049257400442E-01
   172  1.7100000000000E+00 -5.3818252320772E-02 -1.4039010686333E-01
   173  1.7200000000000E+00 -4.7433383943824E-02 -1.5695677040267E-01
   174  1.7300000000000E+00 -4.1506379652301E-02 -1.7029756035863E-01
   175  1.7400000000000E+00 -3.6039997300774E-02 -1.8053694176738E-01
   176  1.7500000000000E+00 -3.1032736787873E-02 -1.8781771753429E-01
   177  1.7600000000000E+00 -2.6479055042037E-02 -1.9229973823462E-01
   178  1.7700000000000E+00 -2.2369613816420E-02 -1.9415846377988E-01
   179  1.7800000000000E+00 -1.8691557930629E-02 -1.9358338873884E-01
   180  1.7900000000000E+00 -1.5428821263922E-02 -1.9077634471095E-01
   181  1.8000000000000E+00 -1.2562457574597E-02 -1.8594969412610E-01
   182  1.8100000000000E+00 -1.0070992961448E-02 -1.7932443105423E-01
   183  1.8200000000000E+00 -7.9307965953871E-03 -1.7112820541394E-01
   184  1.8300000000000E+00 -6.1164661721290E-03 -1.6159328776028E-01
   185  1.8400000000000E+00 -4.6012243774333E-03 -1.5095449255950E-01
   186  1.8500000000000E+00 -3.3573225732801E-03 -1.3944707816758E-01
   187  1.8600000000000E+00 -2.3564478383272E-03 -1.2730464204351E-01
   188  1.8700000000000E+00 -1.5701293439425E-03 -1.1475703024886E-01
   189  1.8800000000000E+00 -9.7014024626931E-04 -1.0202827955628E-01
   190  1.8900000000000E+00 -5.2889842701081E-04 -8.9334589178253E-02
   191  1.9000000000000E+00 -2.1981435134347E-04 -7.6882480451978E-02
   192  1.9100000000000E+00 -1.7872318622155E-05 -6.4866316950645E-02
   193  1.9200000000000E+00  9.8371528373499E-05 -5.3461465009226E-02
   194  1.9300000000000E+00  1.4940391687474E-04 -4.2831480634377E-02
   195  1.9400000000000E+00  1.5556416141125E-04 -3.3130106824611E-02
   196  1.9500000000000E+00  1.3416567907569E-04 -2.4492190708836E-02
   197  1.9600000000000E+00  9.9587574024079E-05 -1.7033429945879E-02
   198  1.9700000000000E+00  6.3013625432437E-05 -1.0849164587782E-02
   199  1.9800000000000E+00  3.2257129371682E-05 -6.0158242765733E-03
   200  1.9900000000000E+00  1.1619602000031E-05 -2.5655849647217E-03
   201  2.0000000000000E+00  1.9426204143568E-06 -6.0116663052572E-04
   202  2.0100000000000E+00 -4.7214949181362E-08  2.2003745983327E-05
   203  2.0200000000000E+00 -1.2378441530312E-08  8.8328493498949E-06
   204  2.03  0. -0.
   205  2.04 -0.  0.
   206  2.05 -0. -0.
   207  2.06  0.  0.
   208  2.07  0.  0.
   209  2.08  0.  0.
   210  2.09  0.  0.
   211  2.10  0.  0.
   212  2.11  0.  0.
   213  2.12  0.  0.
   214  2.13  0.  0.
   215  2.14  0.  0.
   216  2.15  0.  0.
   217  2.16  0.  0.
   218  2.17  0.  0.
   219  2.18  0.  0.
   220  2.19  0.  0.
   221  2.20  0.  0.
   222  2.21  0.  0.
   223  2.22  0.  0.
   224  2.23  0.  0.
   225  2.24  0.  0.
   226  2.25  0.  0.
   227  2.26  0.  0.
   228  2.27  0.  0.
   229  2.28  0.  0.
   230  2.29  0.  0.
   231  2.30  0.  0.
   232  2.31  0.  0.
   233  2.32  0.  0.
   234  2.33  0.  0.
   235  2.34  0.  0.
   236  2.35  0.  0.
   237  2.36  0.  0.
   238  2.37  0.  0.
   239  2.38  0.  0.
   240  2.39  0.  0.
   241  2.40  0.  0.
   242  2.41  0.  0.
   243  2.42  0.  0.
   244  2.43  0.  0.
   245  2.44  0.  0.
   246  2.45  0.  0.
   247  2.46  0.  0.
   248  2.47  0.  0.
   249  2.48  0.  0.
   250  2.49  0.  0.
   251  2.50  0.  0.
   252  2.51  0.  0.
   253  2.52  0.  0.
   254  2.53  0.  0.
   255  2.54  0.  0.
   256  2.55  0.  0.
   257  2.56  0.  0.
   258  2.57  0.  0.
   259  2.58  0.  0.
   260  2.59  0.  0.
   261  2.60  0.  0.
   262  2.61  0.  0.
   263  2.62  0.  0.
   264  2.63  0.  0.
   265  2.64  0.  0.
   266  2.65  0.  0.
   267  2.66  0.  0.
   268  2.67  0.  0.
   269  2.68  0.  0.
   270  2.69  0.  0.
   271  2.70  0.  0.
   272  2.71  0.  0.
   273  2.72  0.  0.
   274  2.73  0.  0.
   275  2.74  0.  0.
   276  2.75  0.  0.
   277  2.76  0.  0.
   278  2.77  0.  0.
   279  2.78  0.  0.
   280  2.79  0.  0.
   281  2.80  0.  0.
   282  2.81  0.  0.
   283  2.82  0.  0.
   284  2.83  0.  0.
   285  2.84  0.  0.
   286  2.85  0.  0.
   287  2.86  0.  0.
   288  2.87  0.  0.
   289  2.88  0.  0.
   290  2.89  0.  0.
   291  2.90  0.  0.
   292  2.91  0.  0.
   293  2.92  0.  0.
   294  2.93  0.  0.
   295  2.94  0.  0.
   296  2.95  0.  0.
   297  2.96  0.  0.
   298  2.97  0.  0.
   299  2.98  0.  0.
   300  2.99  0.  0.
   301  3.00  0.  0.
   302  3.01  0.  0.
   303  3.02  0.  0.
   304  3.03  0.  0.
   305  3.04  0.  0.
   306  3.05  0.  0.
   307  3.06  0.  0.
   308  3.07  0.  0.
   309  3.08  0.  0.
   310  3.09  0.  0.
   311  3.10  0.  0.
   312  3.11  0.  0.
   313  3.12  0.  0.
   314  3.13  0.  0.
   315  3.14  0.  0.
   316  3.15  0.  0.
   317  3.16  0.  0.
   318  3.17  0.  0.
   319  3.18  0.  0.
   320  3.19  0.  0.
   321  3.20  0.  0.
   322  3.21  0.  0.
   323  3.22  0.  0.
   324  3.23  0.  0.
   325  3.24  0.  0.
   326  3.25  0.  0.
   327  3.26  0.  0.
   328  3.27  0.  0.
   329  3.28  0.  0.
   330  3.29  0.  0.
   331  3.30  0.  0.
   332  3.31  0.  0.
   333  3.32  0.  0.
   334  3.33  0.  0.
   335  3.34  0.  0.
   336  3.35  0.  0.
   337  3.36  0.  0.
   338  3.37  0.  0.
   339  3.38  0.  0.
   340  3.39  0.  0.
   341  3.40  0.  0.
   342  3.41  0.  0.
   343  3.42  0.  0.
   344  3.43  0.  0.
   345  3.44  0.  0.
   346  3.45  0.  0.
   347  3.46  0.  0.
   348  3.47  0.  0.
   349  3.48  0.  0.
   350  3.49  0.  0.
   351  3.50  0.  0.
   352  3.51  0.  0.
   353  3.52  0.  0.
   354  3.53  0.  0.
   355  3.54  0.  0.
   356  3.55  0.  0.
   357  3.56  0.  0.
   358  3.57  0.  0.
   359  3.58  0.  0.
   360  3.59  0.  0.
   361  3.60  0.  0.
   362  3.61  0.  0.
   363  3.62  0.  0.
   364  3.63  0.  0.
   365  3.64  0.  0.
   366  3.65  0.  0.
   367  3.66  0.  0.
   368  3.67  0.  0.
   369  3.68  0.  0.
   370  3.69  0.  0.
   371  3.70  0.  0.
   372  3.71  0.  0.
   373  3.72  0.  0.
   374  3.73  0.  0.
   375  3.74  0.  0.
   376  3.75  0.  0.
   377  3.76  0.  0.
   378  3.77  0.  0.
   379  3.78  0.  0.
   380  3.79  0.  0.
   381  3.80  0.  0.
   382  3.81  0.  0.
   383  3.82  0.  0.
   384  3.83  0.  0.
   385  3.84  0.  0.
   386  3.85  0.  0.
   387  3.86  0.  0.
   388  3.87  0.  0.
   389  3.88  0.  0.
   390  3.89  0.  0.
   391  3.90  0.  0.
   392  3.91  0.  0.
   393  3.92  0.  0.
   394  3.93  0.  0.
   395  3.94  0.  0.
   396  3.95  0.  0.
   397  3.96  0.  0.
   398  3.97  0.  0.
   399  3.98  0.  0.
   400  3.99  0.  0.
   401  4.00  0.  0.
   402  4.01  0.  0.
   403  4.02  0.  0.
   404  4.03  0.  0.
   405  4.04  0.  0.
   406  4.05  0.  0.
   407  4.06  0.  0.
   408  4.07  0.  0.
   409  4.08  0.  0.
   410  4.09  0.  0.
   411  4.10  0.  0.
   412  4.11  0.  0.
   413  4.12  0.  0.
   414  4.13  0.  0.
   415  4.14  0.  0.
   416  4.15  0.  0.
   417  4.16  0.  0.
   418  4.17  0.  0.
   419  4.18  0.  0.
   420  4.19  0.  0.
   421  4.20  0.  0.
   422  4.21  0.  0.
   423  4.22  0.  0.
   424  4.23  0.  0.
   425  4.24  0.  0.
   426  4.25  0.  0.
   427  4.26  0.  0.
   428  4.27  0.  0.
   429  4.28  0.  0.
   430  4.29  0.  0.
   431  4.30  0.  0.
   432  4.31  0.  0.
   433  4.32  0.  0.
   434  4.33  0.  0.
   435  4.34  0.  0.
   436  4.35  0.  0.
   437  4.36  0.  0.
   438  4.37  0.  0.
   439  4.38  0.  0.
   440  4.39  0.  0.
   441  4.40  0.  0.
   442  4.41  0.  0.
   443  4.42  0.  0.
   444  4.43  0.  0.
   445  4.44  0.  0.
   446  4.45  0.  0.
   447  4.46  0.  0.
   448  4.47  0.  0.
   449  4.48  0.  0.
   450  4.49  0.  0.
   451  4.50  0.  0.
   452  4.51  0.  0.
   453  4.52  0.  0.
   454  4.53  0.  0.
   455  4.54  0.  0.
   456  4.55  0.  0.
   457  4.56  0.  0.
   458  4.57  0.  0.
   459  4.58  0.  0.
   460  4.59  0.  0.
   461  4.60  0.  0.
   462  4.61  0.  0.
   463  4.62  0.  0.
   464  4.63  0.  0.
   465  4.64  0.  0.
   466  4.65  0.  0.
   467  4.66  0.  0.
   468  4.67  0.  0.
   469  4.68  0.  0.
   470  4.69  0.  0.
   471  4.70  0.  0.
   472  4.71  0.  0.
   473  4.72  0.  0.
   474  4.73  0.  0.
   475  4.74  0.  0.
   476  4.75  0.  0.
   477  4.76  0.  0.
   478  4.77  0.  0.
   479  4.78  0.  0.
   480  4.79  0.  0.
   481  4.80  0.  0.
   482  4.81  0.  0.
   483  4.82  0.  0.
   484  4.83  0.  0.
   485  4.84  0.  0.
   486  4.85  0.  0.
   487  4.86  0.  0.
   488  4.87  0.  0.
   489  4.88  0.  0.
   490  4.89  0.  0.
   491  4.90  0.  0.
   492  4.91  0.  0.
   493  4.92  0.  0.
   494  4.93  0.  0.
   495  4.94  0.  0.
   496  4.95  0.  0.
   497  4.96  0.  0.
   498  4.97  0.  0.
   499  4.98  0.  0.
   500  4.99  0.  0.
   501  5.00  0.  0.
   502  5.01  0.  0.
   503  5.02  0.  0.
   504  5.03  0.  0.
   505  5.04  0.  0.
   506  5.05  0.  0.
   507  5.06  0.  0.
   508  5.07  0.  0.
   509  5.08  0.  0.
   510  5.09  0.  0.
   511  5.10  0.  0.
   512  5.11  0.  0.
   513  5.12  0.  0.
   514  5.13  0.  0.
   515  5.14  0.  0.
   516  5.15  0.  0.
   517  5.16  0.  0.
   518  5.17  0.  0.
   519  5.18  0.  0.
   520  5.19  0.  0.
   521  5.20  0.  0.
   522  5.21  0.  0.
   523  5.22  0.  0.
   524  5.23  0.  0.
   525  5.24  0.  0.
   526  5.25  0.  0.
   527  5.26  0.  0.
   528  5.27  0.  0.
   529  5.28  0.  0.
   530  5.29  0.  0.
   531  5.30  0.  0.
   532  5.31  0.  0.
   533  5.32  0.  0.
   534  5.33  0.  0.
   535  5.34  0.  0.
   536  5.35  0.  0.
   537  5.36  0.  0.
   538  5.37  0.  0.
   539  5.38  0.  0.
   540  5.39  0.  0.
   541  5.40  0.  0.
   542  5.41  0.  0.
   543  5.42  0.  0.
   544  5.43  0.  0.
   545  5.44  0.  0.
   546  5.45  0.  0.
   547  5.46  0.  0.
   548  5.47  0.  0.
   549  5.48  0.  0.
   550  5.49  0.  0.
   551  5.50  0.  0.
   552  5.51  0.  0.
   553  5.52  0.  0.
   554  5.53  0.  0.
   555  5.54  0.  0.
   556  5.55  0.  0.
   557  5.56  0.  0.
   558  5.57  0.  0.
   559  5.58  0.  0.
   560  5.59  0.  0.
   561  5.60  0.  0.
   562  5.61  0.  0.
   563  5.62  0.  0.
   564  5.63  0.  0.
   565  5.64  0.  0.
   566  5.65  0.  0.
   567  5.66  0.  0.
   568  5.67  0.  0.
   569  5.68  0.  0.
   570  5.69  0.  0.
   571  5.70  0.  0.
   572  5.71  0.  0.
   573  5.72  0.  0.
   574  5.73  0.  0.
   575  5.74  0.  0.
   576  5.75  0.  0.
   577  5.76  0.  0.
   578  5.77  0.  0.
   579  5.78  0.  0.
   580  5.79  0.  0.
   581  5.80  0.  0.
   582  5.81  0.  0.
   583  5.82  0.  0.
   584  5.83  0.  0.
   585  5.84  0.  0.
   586  5.85  0.  0.
   587  5.86  0.  0.
   588  5.87  0.  0.
   589  5.88  0.  0.
   590  5.89  0.  0.
   591  5.90  0.  0.
   592  5.91  0.  0.
   593  5.92  0.  0.
   594  5.93  0.  0.
   595  5.94  0.  0.
   596  5.95  0.  0.
   597  5.96  0.  0.
   598  5.97  0.  0.
   599  5.98  0.  0.
   600  5.99  0.  0.
   1                         6.0245532354486E+00  7.3652502138616E-01
     1  0.0000000000000E+00  1.3171435192527E-08 -3.5838536333044E-08
     2  1.0000000000000E-02  1.3760787896351E-03 -1.9765210438109E-03
     3  2.0000000000000E-02  5.4854423134765E-03 -7.8578903404959E-03
     4  3.0000000000000E-02  1.2271854594493E-02 -1.7500562023396E-02
     5  4.0000000000000E-02  2.1642856409386E-02 -3.0668723907886E-02
     6  5.0000000000000E-02  3.3471639289559E-02 -4.7039370105267E-02
     7  6.0000000000000E-02  4.7599615460820E-02 -6.6209256634485E-02
     8  7.0000000000000E-02  6.3839631336595E-02 -8.7703597463523E-02
     9  8.0000000000000E-02  8.1979759008022E-02 -1.1098632257377E-01
    10  9.0000000000000E-02  1.0178758830191E-01 -1.3547168734313E-01
    11  1.0000000000000E-01  1.2301493164081E-01 -1.6053699443164E-01
    12  1.1000000000000E-01  1.4540284534517E-01 -1.8553616599069E-01
    13  1.2000000000000E-01  1.6868686433961E-01 -2.0981388587598E-01
    14  1.3000000000000E-01  1.9260234259839E-01 -2.3272001899427E-01
    15  1.4000000000000E-01  2.1688978918786E-01 -2.5362400821854E-01
    16  1.5000000000000E-01  2.4130008948809E-01 -2.7192894861134E-01
    17  1.6000000000000E-01  2.6559950311561E-01 -2.8708504403466E-01
    18  1.7000000000000E-01  2.8957433419210E-01 -2.9860216250836E-01
    19  1.8000000000000E-01  3.1303517583537E-01 -3.0606122370567E-01
    20  1.9000000000000E-01  3.3582063897421E-01 -3.0912417442642E-01
    21  2.0000000000000E-01  3.5780048565221E-01 -3.0754233534323E-01
    22  2.1000000000000E-01  3.7887809869652E-01 -3.0116293425080E-01
    23  2.2000000000000E-01  3.9899223276066E-01 -2.8993367684968E-01
    24  2.3000000000000E-01  4.1811800605469E-01 -2.7390524507489E-01
    25  2.4000000000000E-01  4.3626710727236E-01 -2.5323165437976E-01
    26  2.5000000000000E-01  4.5348720801950E-01 -2.2816844440032E-01
    27  2.6000000000000E-01  4.6986058713197E-01 -1.9906872121486E-01
    28  2.7000000000000E-01  4.8550198932832E-01 -1.6637711311458E-01
    29  2.8000000000000E-01  5.0055575635690E-01 -1.3062174455260E-01
    30  2.9000000000000E-01  5.1519228385603E-01 -9.2404373889077E-02
    31  3.0000000000000E-01  5.2960387124975E-01 -5.2388878881717E-02
    32  3.1000000000000E-01  5.4400004486512E-01 -1.1288308809933E-02
    33  3.2000000000000E-01  5.5860244582097E-01  3.0149247043306E-02
    34  3.3000000000000E-01  5.7363938386580E-01  7.1155698730981E-02
    35  3.4000000000000E-01  5.8934016603582E-01  1.1095860617125E-01
    36  3.5000000000000E-01  6.0592931459470E-01  1.4879712915759E-01
    37  3.6000000000000E-01  6.2362079208213E-01  1.8393795613664E-01
    38  3.7000000000000E-01  6.4261235235326E-01  2.1569088833200E-01
    39  3.8000000000000E-01  6.6308013519881E-01  2.4342375948072E-01
    40  3.9000000000000E-01  6.8517361850172E-01  2.6657638151439E-01
    41  4.0000000000000E-01  7.0901103596336E-01  2.8467322281057E-01
    42  4.1000000000000E-01  7.3467536031788E-01  2.9733454789621E-01
    43  4.2000000000000E-01  7.6221094178658E-01  3.0428577531477E-01
    44  4.3000000000000E-01  7.9162087948827E-01  3.0536484327628E-01
    45  4.4000000000000E-01  8.2286518983336E-01  3.0052741009311E-01
    46  4.5000000000000E-01  8.5585982084337E-01  2.8984975757195E-01
    47  4.6000000000000E-01  8.9047654513489E-01  2.7352930971251E-01
    48  4.7000000000000E-01  9.2654374729306E-01  2.5188272541880E-01
    49  4.8000000000000E-01  9.6384810386021E-01  2.2534157157424E-01
    50  4.9000000000000E-01  1.0021371365150E+00  1.9444563084721E-01
    51  5.0000000000000E-01  1.0411226015597E+00  1.5983394604606E-01
    52  5.1000000000000E-01  1.0804846619087E+00  1.2223374879953E-01
    53  5.2000000000000E-01  1.1198767717166E+00  8.2447463889553E-02
    54  5.3000000000000E-01  1.1589311889146E+00  4.1338020835236E-02
    55  5.4000000000000E-01  1.1972650175457E+00 -1.8725949777052E-04
    56  5.5000000000000E-01  1.2344866701751E+00 -4.1193904154835E-02
    57  5.6000000000000E-01  1.2702026310408E+00 -8.0738328277217E-02
    58  5.7000000000000E-01  1.3040243932143E+00 -1.1788633150276E-01
    59  5.8000000000000E-01  1.3355754380223E+00 -1.5173169260644E-01
    60  5.9000000000000E-01  1.3644981224619E+00 -1.8141449797341E-01
    61  6.0000000000000E-01  1.3904603404011E+00 -2.0613884009543E-01
    62  6.1000000000000E-01  1.4131618260055E+00 -2.2518952997275E-01
    63  6.2000000000000E-01  1.4323399730713E+00 -2.3794748201321E-01
    64  6.3000000000000E-01  1.4477750516713E+00 -2.4390345154048E-01
    65  6.4000000000000E-01  1.4592947136339E+00 -2.4266983300769E-01
    66  6.5000000000000E-01  1.4667776906924E+00 -2.3399026099377E-01
    67  6.6000000000000E-01  1.4701566034554E+00 -2.1774679544043E-01
    68  6.7000000000000E-01  1.4694198153992E+00 -1.9396451667053E-01
    69  6.8000000000000E-01  1.4646122835832E+00 -1.6281340371091E-01
    70  6.9000000000000E-01  1.4558353764166E+00 -1.2460742043946E-01
    71  7.0000000000000E-01  1.4432456482098E+00 -7.9800787143276E-02
    72  7.1000000000000E-01  1.4270525800708E+00 -2.8981469201899E-02
    73  7.2000000000000E-01  1.4075153165659E+00  2.7138031223086E-02
    74  7.3000000000000E-01  1.3849384470903E+00  8.7732441454748E-02
    75  7.4000000000000E-01  1.3596668996951E+00  1.5187785237075E-01
    76  7.5000000000000E-01  1.3320800328350E+00  2.1856798205205E-01
    77  7.6000000000000E-01  1.3025850267803E+00  2.8673228671980E-01
    78  7.7000000000000E-01  1.2716096909549E+00  3.5525559749587E-01
    79  7.8000000000000E-01  1.2395948159148E+00  4.2299892804360E-01
    80  7.9000000000000E-01  1.2069862088253E+00  4.8882107107007E-01
    81  8.0000000000000E-01  1.1742265588926E+00  5.5160058158292E-01
    82  8.1000000000000E-01  1.1417472841057E+00  6.1025773215485E-01
    83  8.2000000000000E-01  1.1099605127131E+00  6.6377602057915E-01
    84  8.3000000000000E-01  1.0792513520343E+00  7.1122281337444E-01
    85  8.4000000000000E-01  1.0499705934748E+00  7.5176871964280E-01
    86  8.5000000000000E-01  1.0224279960207E+00  7.8470530867479E-01
    87  8.6000000000000E-01  9.9688628112525E-01  8.0946081114847E-01
    88  8.7000000000000E-01  9.7355595992806E-01  8.2561347736287E-01
    89  8.8000000000000E-01  9.5259109936084E-01  8.3290230611199E-01
    90  8.9000000000000E-01  9.3408611714952E-01  8.3123490384599E-01
    91  9.0000000000000E-01  9.1807367731155E-01  8.2069228486837E-01
    92  9.1000000000000E-01  9.0452373780580E-01  8.0153047855483E-01
    93  9.2000000000000E-01  8.9334378087992E-01  7.7417886795577E-01
    94  9.3000000000000E-01  8.8438023477215E-01  7.3923524457224E-01
    95  9.4000000000000E-01  8.7742107316461E-01  6.9745762545850E-01
    96  9.5000000000000E-01  8.7219955657418E-01  6.4975293994876E-01
    97  9.6000000000000E-01  8.6839905812221E-01  5.9716275307996E-01
    98  9.7000000000000E-01  8.6565889526801E-01  5.4084625002768E-01
    99  9.8000000000000E-01  8.6358106951072E-01  4.8206075952570E-01