La    ONCVPSP-4.0.1  r_core=   2.10627   1.60918   1.85761   1.65804
     57.0000     11.0000      250925    zatom,zion,pspd
     8   -1012   3     4   600     0    pspcod,pspxc,lmax,lloc,mmax,r2well
  5.99000000  5.00000000  0.00000000    rchrg fchrg qchrg
     2     3     3     2    nproj
     3     1           extension_switch
     4     3     3    nprojso
   0                         6.6576462216988E+00  6.1307615681198E-01
     1  0.0000000000000E+00  4.5144971094757E-11 -1.5305478065497E-10
     2  1.0000000000000E-02  2.8468765048307E-02 -1.9363751452312E-03
     3  2.0000000000000E-02  5.6942471333368E-02 -3.9111100542792E-03
     4  3.0000000000000E-02  8.5425885236937E-02 -5.9621160812416E-03
     5  4.0000000000000E-02  1.1392342486621E-01 -8.1264120029849E-03
     6  5.0000000000000E-02  1.4243898949364E-01 -1.0439688296917E-02
     7  6.0000000000000E-02  1.7097579325709E-01 -1.2935883989205E-02
     8  7.0000000000000E-02  1.9953620448712E-01 -1.5646780082561E-02
     9  8.0000000000000E-02  2.2812159198303E-01 -1.8601613419658E-02
    10  9.0000000000000E-02  2.5673217950351E-01 -2.1826714649374E-02
    11  1.0000000000000E-01  2.8536690967188E-01 -2.5345173740205E-02
    12  1.1000000000000E-01  3.1402331842037E-01 -2.9176536230243E-02
    13  1.2000000000000E-01  3.4269742101320E-01 -3.3336533118300E-02
    14  1.3000000000000E-01  3.7138361059562E-01 -3.7836846988654E-02
    15  1.4000000000000E-01  4.0007457011545E-01 -4.2684916625400E-02
    16  1.5000000000000E-01  4.2876119835641E-01 -4.7883782014145E-02
    17  1.6000000000000E-01  4.5743255070968E-01 -5.3431971252412E-02
    18  1.7000000000000E-01  4.8607579519184E-01 -5.9323430498797E-02
    19  1.8000000000000E-01  5.1467618409538E-01 -6.5547497688096E-02
    20  1.9000000000000E-01  5.4321704153298E-01 -7.2088920329027E-02
    21  2.0000000000000E-01  5.7167976700947E-01 -7.8927917286672E-02
    22  2.1000000000000E-01  6.0004385502758E-01 -8.6040284036773E-02
    23  2.2000000000000E-01  6.2828693060560E-01 -9.3397540467737E-02
    24  2.3000000000000E-01  6.5638480045822E-01 -1.0096711990204E-01
    25  2.4000000000000E-01  6.8431151946729E-01 -1.0871259761591E-01
    26  2.5000000000000E-01  7.1203947194793E-01 -1.1659395675756E-01
    27  2.6000000000000E-01  7.3953946709811E-01 -1.2456788920457E-01
    28  2.7000000000000E-01  7.6678084790789E-01 -1.3258812856239E-01
    29  2.8000000000000E-01  7.9373161269882E-01 -1.4060581219263E-01
    30  2.9000000000000E-01  8.2035854836478E-01 -1.4856986887426E-01
    31  3.0000000000000E-01  8.4662737429475E-01 -1.5642742844608E-01
    32  3.1000000000000E-01  8.7250289587544E-01 -1.6412424955759E-01
    33  3.2000000000000E-01  8.9794916639828E-01 -1.7160516146898E-01
    34  3.3000000000000E-01  9.2292965613220E-01 -1.7881451569336E-01
    35  3.4000000000000E-01  9.4740742727031E-01 -1.8569664316426E-01
    36  3.5000000000000E-01  9.7134531341665E-01 -1.9219631254324E-01
    37  3.6000000000000E-01  9.9470610224828E-01 -1.9825918525481E-01
    38  3.7000000000000E-01  1.0174527199680E+00 -2.0383226284990E-01
    39  3.8000000000000E-01  1.0395484161559E+00 -2.0886432235611E-01
    40  3.9000000000000E-01  1.0609569476304E+00 -2.1330633537110E-01
    41  4.0000000000000E-01  1.0816427599464E+00 -2.1711186679467E-01
    42  4.1000000000000E-01  1.1015711651833E+00 -2.2023744927549E-01
    43  4.2000000000000E-01  1.1207085147148E+00 -2.2264292966661E-01
    44  4.3000000000000E-01  1.1390223657017E+00 -2.2429178403987E-01
    45  4.4000000000000E-01  1.1564816401055E+00 -2.2515139809999E-01
    46  4.5000000000000E-01  1.1730567750944E+00 -2.2519331016247E-01
    47  4.6000000000000E-01  1.1887198637877E+00 -2.2439341421254E-01
    48  4.7000000000000E-01  1.2034447853737E+00 -2.2273212094191E-01
    49  4.8000000000000E-01  1.2172073237317E+00 -2.2019447506318E-01
    50  4.9000000000000E-01  1.2299852737881E+00 -2.1677022762407E-01
    51  5.0000000000000E-01  1.2417585349481E+00 -2.1245386248242E-01
    52  5.1000000000000E-01  1.2525091910541E+00 -2.0724457655225E-01
    53  5.2000000000000E-01  1.2622215764407E+00 -2.0114621388938E-01
    54  5.3000000000000E-01  1.2708823277772E+00 -1.9416715414528E-01
    55  5.4000000000000E-01  1.2784804215060E+00 -1.8632015637766E-01
    56  5.5000000000000E-01  1.2850071968157E+00 -1.7762215966012E-01
    57  5.6000000000000E-01  1.2904563642007E+00 -1.6809404237671E-01
    58  5.7000000000000E-01  1.2948239997886E+00 -1.5776034251715E-01
    59  5.8000000000000E-01  1.2981085257298E+00 -1.4664894169877E-01
    60  5.9000000000000E-01  1.3003106770597E+00 -1.3479071602902E-01
    61  6.0000000000000E-01  1.3014334555567E+00 -1.2221915728389E-01
    62  6.1000000000000E-01  1.3014820712194E+00 -1.0896996820778E-01
    63  6.2000000000000E-01  1.3004638720887E+00 -9.5080636036613E-02
    64  6.3000000000000E-01  1.2983882632286E+00 -8.0589988606187E-02
    65  6.4000000000000E-01  1.2952666157627E+00 -6.5537737625898E-02
    66  6.5000000000000E-01  1.2911121669375E+00 -4.9964013875579E-02
    67  6.6000000000000E-01  1.2859399122458E+00 -3.3908899214869E-02
    68  6.7000000000000E-01  1.2797664907005E+00 -1.7411960380529E-02
    69  6.8000000000000E-01  1.2726100643891E+00 -5.1178958531383E-04
    70  6.9000000000000E-01  1.2644901934735E+00  1.6754443078023E-02
    71  7.0000000000000E-01  1.2554277078217E+00  3.4351420482401E-02
    72  7.1000000000000E-01  1.2454445764670E+00  5.2246087723898E-02
    73  7.2000000000000E-01  1.2345637760901E+00  7.0408035108014E-02
    74  7.3000000000000E-01  1.2228091597078E+00  8.8809850382737E-02
    75  7.4000000000000E-01  1.2102053267300E+00  1.0742743598365E-01
    76  7.5000000000000E-01  1.1967774955118E+00  1.2624028734516E-01
    77  7.6000000000000E-01  1.1825513794873E+00  1.4523172866275E-01
    78  7.7000000000000E-01  1.1675530679162E+00  1.6438910285800E-01
    79  7.8000000000000E-01  1.1518089122159E+00  1.8370391290079E-01
    80  7.9000000000000E-01  1.1353454187809E+00  2.0317191207582E-01
    81  8.0000000000000E-01  1.1181891491145E+00  2.2279314123927E-01
    82  8.1000000000000E-01  1.1003666280166E+00  2.4257191159472E-01
    83  8.2000000000000E-01  1.0819042604803E+00  2.6251673201638E-01
    84  8.3000000000000E-01  1.0628282578602E+00  2.8264018046220E-01
    85  8.4000000000000E-01  1.0431645737752E+00  3.0295871954147E-01
    86  8.5000000000000E-01  1.0229388501131E+00  3.2349245682801E-01
    87  8.6000000000000E-01  1.0021763734006E+00  3.4426485103587E-01
    88  8.7000000000000E-01  9.8090204170284E-01  3.6530236569441E-01
    89  8.8000000000000E-01  9.5914034211664E-01  3.8663407246942E-01
    90  8.9000000000000E-01  9.3691533881970E-01  4.0829120677216E-01
    91  9.0000000000000E-01  9.1425067154398E-01  4.3030667877458E-01
    92  9.1000000000000E-01  8.9116956424557E-01  4.5271454340143E-01
    93  9.2000000000000E-01  8.6769484365442E-01  4.7554943329717E-01
    94  9.3000000000000E-01  8.4384896730146E-01  4.9884595916088E-01
    95  9.4000000000000E-01  8.1965406054038E-01  5.2263808220625E-01
    96  9.5000000000000E-01  7.9513196200688E-01  5.4695846383048E-01
    97  9.6000000000000E-01  7.7030427688921E-01  5.7183779786610E-01
    98  9.7000000000000E-01  7.4519243732169E-01  5.9730413103929E-01
    99  9.8000000000000E-01  7.1981776915686E-01  6.2338217746843E-01
   100  9.9000000000000E-01  6.9420156432213E-01  6.5009263320442E-01
   101  1.0000000000000E+00  6.6836515792419E-01  6.7745149694138E-01
   102  1.0100000000000E+00  6.4233000922683E-01  7.0546940311170E-01
   103  1.0200000000000E+00  6.1611778559762E-01  7.3415097362459E-01
   104  1.0300000000000E+00  5.8975044849257E-01  7.6349419451263E-01
   105  1.0400000000000E+00  5.6325034052848E-01  7.9348982371868E-01
   106  1.0500000000000E+00  5.3664027267598E-01  8.2412083618694E-01
   107  1.0600000000000E+00  5.0994361059519E-01  8.5536191231921E-01
   108  1.0700000000000E+00  4.8318435912714E-01  8.8717897572345E-01
   109  1.0800000000000E+00  4.5638724394819E-01  9.1952878601726E-01
   110  1.0900000000000E+00  4.2957778939140E-01  9.5235859225914E-01
   111  1.1000000000000E+00  4.0278239143631E-01  9.8560585236396E-01
   112  1.1100000000000E+00  3.7602838486715E-01  1.0191980236223E+00
   113  1.1200000000000E+00  3.4934410359862E-01  1.0530524291853E+00
   114  1.1300000000000E+00  3.2275893316736E-01  1.0870762051002E+00
   115  1.1400000000000E+00  2.9630335438547E-01  1.1211663321879E+00
   116  1.1500000000000E+00  2.7000897715090E-01  1.1552097567453E+00
   117  1.1600000000000E+00  2.4390856340679E-01  1.1890836037274E+00
   118  1.1700000000000E+00  2.1803603823937E-01  1.2226554857231E+00
   119  1.1800000000000E+00  1.9242648810129E-01  1.2557839106767E+00
   120  1.1900000000000E+00  1.6711614514573E-01  1.2883187909272E+00
   121  1.2000000000000E+00  1.4214235665672E-01  1.3201020557331E+00
   122  1.2100000000000E+00  1.1754353856388E-01  1.3509683690190E+00
   123  1.2200000000000E+00  9.3359112037860E-02  1.3807459536144E+00
   124  1.2300000000000E+00  6.9629422175967E-02  1.4092575227559E+00
   125  1.2400000000000E+00  4.6395637810527E-02  1.4363213190670E+00
   126  1.2500000000000E+00  2.3699631505236E-02  1.4617522606301E+00
   127  1.2600000000000E+00  1.5838388520545E-03  1.4853631930892E+00
   128  1.2700000000000E+00 -1.9908903754696E-02  1.5069662459742E+00
   129  1.2800000000000E+00 -4.0735543606102E-02  1.5263742905965E+00
   130  1.2900000000000E+00 -6.0853019058800E-02  1.5434024959265E+00
   131  1.3000000000000E+00 -8.0218490300256E-02  1.5578699777958E+00
   132  1.3100000000000E+00 -9.8789593821930E-02  1.5696015355696E+00
   133  1.3200000000000E+00 -1.1652472071561E-01  1.5784294690884E+00
   134  1.3300000000000E+00 -1.3338331865593E-01  1.5841954671458E+00
   135  1.3400000000000E+00 -1.4932621713292E-01  1.5867525570548E+00
   136  1.3500000000000E+00 -1.6431597514514E-01  1.5859671029299E+00
   137  1.3600000000000E+00 -1.7831725014922E-01  1.5817208381383E+00
   138  1.3700000000000E+00 -1.9129718658104E-01  1.5739129149553E+00
   139  1.3800000000000E+00 -2.0322582170962E-01  1.5624619517424E+00
   140  1.3900000000000E+00 -2.1407650595247E-01  1.5473080549607E+00
   141  1.4000000000000E+00 -2.2382633406029E-01  1.5284147899776E+00
   142  1.4100000000000E+00 -2.3245658276358E-01  1.5057710709082E+00
   143  1.4200000000000E+00 -2.3995314955970E-01  1.4793929356429E+00
   144  1.4300000000000E+00 -2.4630698629234E-01  1.4493251676851E+00
   145  1.4400000000000E+00 -2.5151452003627E-01  1.4156427214703E+00
   146  1.4500000000000E+00 -2.5557805253322E-01  1.3784519023937E+00
   147  1.4600000000000E+00 -2.5850612802388E-01  1.3378912468142E+00
   148  1.4700000000000E+00 -2.6031385778322E-01  1.2941320408282E+00
   149  1.4800000000000E+00 -2.6102318797420E-01  1.2473784095297E+00
   150  1.4900000000000E+00 -2.6066309558661E-01  1.1978669008070E+00
   151  1.5000000000000E+00 -2.5926969520571E-01  1.1458654793854E+00
   152  1.5100000000000E+00 -2.5688623717087E-01  1.0916718378664E+00
   153  1.5200000000000E+00 -2.5356297528643E-01  1.0356109217234E+00
   154  1.5300000000000E+00 -2.4935687967692E-01  9.7803155476566E-01
   155  1.5400000000000E+00 -2.4433116758455E-01  9.1930204025946E-01
   156  1.5500000000000E+00 -2.3855462189808E-01  8.5980460074223E-01
   157  1.5600000000000E+00 -2.3210066396050E-01  7.9992850649977E-01
   158  1.5700000000000E+00 -2.2504614371781E-01  7.4006172866217E-01
   159  1.5800000000000E+00 -2.1746980652858E-01  6.8058093784629E-01
   160  1.5900000000000E+00 -2.0945039192587E-01  6.2183965305946E-01
   161  1.6000000000000E+00 -2.0106431860295E-01  5.6415435415045E-01
   162  1.6100000000000E+00 -1.9238287289731E-01  5.0778809581789E-01
   163  1.6200000000000E+00 -1.8346961657952E-01  4.5293739935774E-01
   164  1.6300000000000E+00 -1.7438276518668E-01  3.9975788553215E-01
   165  1.6400000000000E+00 -1.6517874456915E-01  3.4839524733158E-01
   166  1.6500000000000E+00 -1.5591216120005E-01  2.9898620828038E-01
   167  1.6600000000000E+00 -1.4663555147549E-01  2.5165766753564E-01
   168  1.6700000000000E+00 -1.3739913464082E-01  2.0652581468475E-01
   169  1.6800000000000E+00 -1.2825058086001E-01  1.6369530705078E-01
   170  1.6900000000000E+00 -1.1923479776459E-01  1.2325852794173E-01
   171  1.7000000000000E+00 -1.1039373671424E-01  8.5294928801327E-02
   172  1.7100000000000E+00 -1.0176622032583E-01  4.9870461420249E-02
   173  1.7200000000000E+00 -9.3387792663394E-02  1.7037105674810E-02
   174  1.7300000000000E+00 -8.5290593304379E-02 -1.3167502485216E-02
   175  1.7400000000000E+00 -7.7503256308758E-02 -4.0720338868417E-02
   176  1.7500000000000E+00 -7.0050834918821E-02 -6.5613151593186E-02
   177  1.7600000000000E+00 -6.2954752610410E-02 -8.7852512121863E-02
   178  1.7700000000000E+00 -5.6232780902510E-02 -1.0745975543080E-01
   179  1.7800000000000E+00 -4.9899044114212E-02 -1.2447080887480E-01
   180  1.7900000000000E+00 -4.3964051036861E-02 -1.3893591022149E-01
   181  1.8000000000000E+00 -3.8434753266677E-02 -1.5091921625276E-01
   182  1.8100000000000E+00 -3.3314629722750E-02 -1.6049830424101E-01
   183  1.8200000000000E+00 -2.8603796657009E-02 -1.6776356950923E-01
   184  1.8300000000000E+00 -2.4299142249616E-02 -1.7281752316207E-01
   185  1.8400000000000E+00 -2.0394484676905E-02 -1.7577399492363E-01
   186  1.8500000000000E+00 -1.6880752341102E-02 -1.7675724683094E-01
   187  1.8600000000000E+00 -1.3746184763602E-02 -1.7590100429959E-01
   188  1.8700000000000E+00 -1.0976552468118E-02 -1.7334741179649E-01
   189  1.8800000000000E+00 -8.5553940180682E-03 -1.6924592101482E-01
   190  1.8900000000000E+00 -6.4642682258312E-03 -1.6375212004362E-01
   191  1.9000000000000E+00 -4.6830194200303E-03 -1.5702651255704E-01
   192  1.9100000000000E+00 -3.1900535466442E-03 -1.4923325649365E-01
   193  1.9200000000000E+00 -1.9626227816056E-03 -1.4053887208921E-01
   194  1.9300000000000E+00 -9.7711626045768E-04 -1.3111092941236E-01
   195  1.9400000000000E+00 -2.0935447471710E-04 -1.2111672577003E-01
   196  1.9500000000000E+00  3.6511514925925E-04 -1.1072196347599E-01
   197  1.9600000000000E+00  7.7072398642308E-04 -1.0008943851684E-01
   198  1.9700000000000E+00  1.0315927950698E-03 -8.9377753626100E-02
   199  1.9800000000000E+00  1.1712367656003E-03 -7.8740029150819E-02
   200  1.9900000000000E+00  1.2123283142927E-03 -6.8322794483282E-02
   201  2.0000000000000E+00  1.1763462586173E-03 -5.8264589468389E-02
   202  2.0100000000000E+00  1.0822377757504E-03 -4.8691653318962E-02
   203  2.0200000000000E+00  9.4711892480059E-04 -3.9719559402305E-02
   204  2.0300000000000E+00  7.8857432201539E-04 -3.1459628023530E-02
   205  2.0400000000000E+00  6.2196852815230E-04 -2.4010954598166E-02
   206  2.0500000000000E+00  4.6036763734377E-04 -1.7459898124843E-02
   207  2.0600000000000E+00  3.1436670590462E-04 -1.1879340655797E-02
   208  2.0700000000000E+00  1.9196900842277E-04 -7.3286559716149E-03
   209  2.0800000000000E+00  9.8435689257684E-05 -3.8511826998963E-03
   210  2.0900000000000E+00  3.6010499402126E-05 -1.4649946613805E-03
   211  2.1000000000000E+00  5.9840164514478E-06 -2.5864744918370E-04
   212  2.1100000000000E+00 -9.2461007407459E-07  4.1397791132935E-05
   213  2.1200000000000E+00  1.0369205950754E-07 -4.4792509974856E-06
   214  2.13  0.  0.
   215  2.14  0.  0.
   216  2.15  0.  0.
   217  2.16  0.  0.
   218  2.17  0.  0.
   219  2.18  0.  0.
   220  2.19  0.  0.
   221  2.20  0.  0.
   222  2.21  0.  0.
   223  2.22  0.  0.
   224  2.23  0.  0.
   225  2.24  0.  0.
   226  2.25  0.  0.
   227  2.26  0.  0.
   228  2.27  0.  0.
   229  2.28  0.  0.
   230  2.29  0.  0.
   231  2.30  0.  0.
   232  2.31  0.  0.
   233  2.32  0.  0.
   234  2.33  0.  0.
   235  2.34  0.  0.
   236  2.35  0.  0.
   237  2.36  0.  0.
   238  2.37  0.  0.
   239  2.38  0.  0.
   240  2.39  0.  0.
   241  2.40  0.  0.
   242  2.41  0.  0.
   243  2.42  0.  0.
   244  2.43  0.  0.
   245  2.44  0.  0.
   246  2.45  0.  0.
   247  2.46  0.  0.
   248  2.47  0.  0.
   249  2.48  0.  0.
   250  2.49  0.  0.
   251  2.50  0.  0.
   252  2.51  0.  0.
   253  2.52  0.  0.
   254  2.53  0.  0.
   255  2.54  0.  0.
   256  2.55  0.  0.
   257  2.56  0.  0.
   258  2.57  0.  0.
   259  2.58  0.  0.
   260  2.59  0.  0.
   261  2.60  0.  0.
   262  2.61  0.  0.
   263  2.62  0.  0.
   264  2.63  0.  0.
   265  2.64  0.  0.
   266  2.65  0.  0.
   267  2.66  0.  0.
   268  2.67  0.  0.
   269  2.68  0.  0.
   270  2.69  0.  0.
   271  2.70  0.  0.
   272  2.71  0.  0.
   273  2.72  0.  0.
   274  2.73  0.  0.
   275  2.74  0.  0.
   276  2.75  0.  0.
   277  2.76  0.  0.
   278  2.77  0.  0.
   279  2.78  0.  0.
   280  2.79  0.  0.
   281  2.80  0.  0.
   282  2.81  0.  0.
   283  2.82  0.  0.
   284  2.83  0.  0.
   285  2.84  0.  0.
   286  2.85  0.  0.
   287  2.86  0.  0.
   288  2.87  0.  0.
   289  2.88  0.  0.
   290  2.89  0.  0.
   291  2.90  0.  0.
   292  2.91  0.  0.
   293  2.92  0.  0.
   294  2.93  0.  0.
   295  2.94  0.  0.
   296  2.95  0.  0.
   297  2.96  0.  0.
   298  2.97  0.  0.
   299  2.98  0.  0.
   300  2.99  0.  0.
   301  3.00  0.  0.
   302  3.01  0.  0.
   303  3.02  0.  0.
   304  3.03  0.  0.
   305  3.04  0.  0.
   306  3.05  0.  0.
   307  3.06  0.  0.
   308  3.07  0.  0.
   309  3.08  0.  0.
   310  3.09  0.  0.
   311  3.10  0.  0.
   312  3.11  0.  0.
   313  3.12  0.  0.
   314  3.13  0.  0.
   315  3.14  0.  0.
   316  3.15  0.  0.
   317  3.16  0.  0.
   318  3.17  0.  0.
   319  3.18  0.  0.
   320  3.19  0.  0.
   321  3.20  0.  0.
   322  3.21  0.  0.
   323  3.22  0.  0.
   324  3.23  0.  0.
   325  3.24  0.  0.
   326  3.25  0.  0.
   327  3.26  0.  0.
   328  3.27  0.  0.
   329  3.28  0.  0.
   330  3.29  0.  0.
   331  3.30  0.  0.
   332  3.31  0.  0.
   333  3.32  0.  0.
   334  3.33  0.  0.
   335  3.34  0.  0.
   336  3.35  0.  0.
   337  3.36  0.  0.
   338  3.37  0.  0.
   339  3.38  0.  0.
   340  3.39  0.  0.
   341  3.40  0.  0.
   342  3.41  0.  0.
   343  3.42  0.  0.
   344  3.43  0.  0.
   345  3.44  0.  0.
   346  3.45  0.  0.
   347  3.46  0.  0.
   348  3.47  0.  0.
   349  3.48  0.  0.
   350  3.49  0.  0.
   351  3.50  0.  0.
   352  3.51  0.  0.
   353  3.52  0.  0.
   354  3.53  0.  0.
   355  3.54  0.  0.
   356  3.55  0.  0.
   357  3.56  0.  0.
   358  3.57  0.  0.
   359  3.58  0.  0.
   360  3.59  0.  0.
   361  3.60  0.  0.
   362  3.61  0.  0.
   363  3.62  0.  0.
   364  3.63  0.  0.
   365  3.64  0.  0.
   366  3.65  0.  0.
   367  3.66  0.  0.
   368  3.67  0.  0.
   369  3.68  0.  0.
   370  3.69  0.  0.
   371  3.70  0.  0.
   372  3.71  0.  0.
   373  3.72  0.  0.
   374  3.73  0.  0.
   375  3.74  0.  0.
   376  3.75  0.  0.
   377  3.76  0.  0.
   378  3.77  0.  0.
   379  3.78  0.  0.
   380  3.79  0.  0.
   381  3.80  0.  0.
   382  3.81  0.  0.
   383  3.82  0.  0.
   384  3.83  0.  0.
   385  3.84  0.  0.
   386  3.85  0.  0.
   387  3.86  0.  0.
   388  3.87  0.  0.
   389  3.88  0.  0.
   390  3.89  0.  0.
   391  3.90  0.  0.
   392  3.91  0.  0.
   393  3.92  0.  0.
   394  3.93  0.  0.
   395  3.94  0.  0.
   396  3.95  0.  0.
   397  3.96  0.  0.
   398  3.97  0.  0.
   399  3.98  0.  0.
   400  3.99  0.  0.
   401  4.00  0.  0.
   402  4.01  0.  0.
   403  4.02  0.  0.
   404  4.03  0.  0.
   405  4.04  0.  0.
   406  4.05  0.  0.
   407  4.06  0.  0.
   408  4.07  0.  0.
   409  4.08  0.  0.
   410  4.09  0.  0.
   411  4.10  0.  0.
   412  4.11  0.  0.
   413  4.12  0.  0.
   414  4.13  0.  0.
   415  4.14  0.  0.
   416  4.15  0.  0.
   417  4.16  0.  0.
   418  4.17  0.  0.
   419  4.18  0.  0.
   420  4.19  0.  0.
   421  4.20  0.  0.
   422  4.21  0.  0.
   423  4.22  0.  0.
   424  4.23  0.  0.
   425  4.24  0.  0.
   426  4.25  0.  0.
   427  4.26  0.  0.
   428  4.27  0.  0.
   429  4.28  0.  0.
   430  4.29  0.  0.
   431  4.30  0.  0.
   432  4.31  0.  0.
   433  4.32  0.  0.
   434  4.33  0.  0.
   435  4.34  0.  0.
   436  4.35  0.  0.
   437  4.36  0.  0.
   438  4.37  0.  0.
   439  4.38  0.  0.
   440  4.39  0.  0.
   441  4.40  0.  0.
   442  4.41  0.  0.
   443  4.42  0.  0.
   444  4.43  0.  0.
   445  4.44  0.  0.
   446  4.45  0.  0.
   447  4.46  0.  0.
   448  4.47  0.  0.
   449  4.48  0.  0.
   450  4.49  0.  0.
   451  4.50  0.  0.
   452  4.51  0.  0.
   453  4.52  0.  0.
   454  4.53  0.  0.
   455  4.54  0.  0.
   456  4.55  0.  0.
   457  4.56  0.  0.
   458  4.57  0.  0.
   459  4.58  0.  0.
   460  4.59  0.  0.
   461  4.60  0.  0.
   462  4.61  0.  0.
   463  4.62  0.  0.
   464  4.63  0.  0.
   465  4.64  0.  0.
   466  4.65  0.  0.
   467  4.66  0.  0.
   468  4.67  0.  0.
   469  4.68  0.  0.
   470  4.69  0.  0.
   471  4.70  0.  0.
   472  4.71  0.  0.
   473  4.72  0.  0.
   474  4.73  0.  0.
   475  4.74  0.  0.
   476  4.75  0.  0.
   477  4.76  0.  0.
   478  4.77  0.  0.
   479  4.78  0.  0.
   480  4.79  0.  0.
   481  4.80  0.  0.
   482  4.81  0.  0.
   483  4.82  0.  0.
   484  4.83  0.  0.
   485  4.84  0.  0.
   486  4.85  0.  0.
   487  4.86  0.  0.
   488  4.87  0.  0.
   489  4.88  0.  0.
   490  4.89  0.  0.
   491  4.90  0.  0.
   492  4.91  0.  0.
   493  4.92  0.  0.
   494  4.93  0.  0.
   495  4.94  0.  0.
   496  4.95  0.  0.
   497  4.96  0.  0.
   498  4.97  0.  0.
   499  4.98  0.  0.
   500  4.99  0.  0.
   501  5.00  0.  0.
   502  5.01  0.  0.
   503  5.02  0.  0.
   504  5.03  0.  0.
   505  5.04  0.  0.
   506  5.05  0.  0.
   507  5.06  0.  0.
   508  5.07  0.  0.
   509  5.08  0.  0.
   510  5.09  0.  0.
   511  5.10  0.  0.
   512  5.11  0.  0.
   513  5.12  0.  0.
   514  5.13  0.  0.
   515  5.14  0.  0.
   516  5.15  0.  0.
   517  5.16  0.  0.
   518  5.17  0.  0.
   519  5.18  0.  0.
   520  5.19  0.  0.
   521  5.20  0.  0.
   522  5.21  0.  0.
   523  5.22  0.  0.
   524  5.23  0.  0.
   525  5.24  0.  0.
   526  5.25  0.  0.
   527  5.26  0.  0.
   528  5.27  0.  0.
   529  5.28  0.  0.
   530  5.29  0.  0.
   531  5.30  0.  0.
   532  5.31  0.  0.
   533  5.32  0.  0.
   534  5.33  0.  0.
   535  5.34  0.  0.
   536  5.35  0.  0.
   537  5.36  0.  0.
   538  5.37  0.  0.
   539  5.38  0.  0.
   540  5.39  0.  0.
   541  5.40  0.  0.
   542  5.41  0.  0.
   543  5.42  0.  0.
   544  5.43  0.  0.
   545  5.44  0.  0.
   546  5.45  0.  0.
   547  5.46  0.  0.
   548  5.47  0.  0.
   549  5.48  0.  0.
   550  5.49  0.  0.
   551  5.50  0.  0.
   552  5.51  0.  0.
   553  5.52  0.  0.
   554  5.53  0.  0.
   555  5.54  0.  0.
   556  5.55  0.  0.
   557  5.56  0.  0.
   558  5.57  0.  0.
   559  5.58  0.  0.
   560  5.59  0.  0.
   561  5.60  0.  0.
   562  5.61  0.  0.
   563  5.62  0.  0.
   564  5.63  0.  0.
   565  5.64  0.  0.
   566  5.65  0.  0.
   567  5.66  0.  0.
   568  5.67  0.  0.
   569  5.68  0.  0.
   570  5.69  0.  0.
   571  5.70  0.  0.
   572  5.71  0.  0.
   573  5.72  0.  0.
   574  5.73  0.  0.
   575  5.74  0.  0.
   576  5.75  0.  0.
   577  5.76  0.  0.
   578  5.77  0.  0.
   579  5.78  0.  0.
   580  5.79  0.  0.
   581  5.80  0.  0.
   582  5.81  0.  0.
   583  5.82  0.  0.
   584  5.83  0.  0.
   585  5.84  0.  0.
   586  5.85  0.  0.
   587  5.86  0.  0.
   588  5.87  0.  0.
   589  5.88  0.  0.
   590  5.89  0.  0.
   591  5.90  0.  0.
   592  5.91  0.  0.
   593  5.92  0.  0.
   594  5.93  0.  0.
   595  5.94  0.  0.
   596  5.95  0.  0.
   597  5.96  0.  0.
   598  5.97  0.  0.
   599  5.98  0.  0.
   600  5.99  0.  0.
   1                         6.1989070225390E+00  9.4761282262021E-01  4.8853914910013E-02
     1  0.0000000000000E+00  1.6660398269308E-08 -3.6263513886192E-08  2.9673370836869E-08
     2  1.0000000000000E-02  1.5237108056022E-03 -1.9702257581726E-03  9.1614867714182E-04
     3  2.0000000000000E-02  6.0710085432909E-03 -7.8316490598861E-03  3.6262970970252E-03
     4  3.0000000000000E-02  1.3570877147159E-02 -1.7437562653654E-02  8.0164141226420E-03
     5  4.0000000000000E-02  2.3906573249326E-02 -3.0546948597545E-02  1.3899302680812E-02
     6  5.0000000000000E-02  3.6918017081522E-02 -4.6829644951050E-02  2.1018821073728E-02
     7  6.0000000000000E-02  5.2405072001884E-02 -6.5873431599961E-02  2.9055672195468E-02
     8  7.0000000000000E-02  7.0131646502123E-02 -8.7192891151073E-02  3.7634642862491E-02
     9  8.0000000000000E-02  8.9830535889748E-02 -1.1023986457000E-01  4.6333145793789E-02
    10  9.0000000000000E-02  1.1120890579949E-01 -1.3441528851583E-01  5.4690889984238E-02
    11  1.0000000000000E-01  1.3395430656315E-01 -1.5908217279767E-01  6.2220481830498E-02
    12  1.1000000000000E-01  1.5774109651740E-01 -1.8357945260677E-01  6.8418739855213E-02
    13  1.2000000000000E-01  1.8223714377228E-01 -2.0723643164018E-01  7.2778490619700E-02
    14  1.3000000000000E-01  2.0711066997163E-01 -2.2938751930187E-01  7.4800602725260E-02
    15  1.4000000000000E-01  2.3203709627355E-01 -2.4938695811363E-01  7.4006009899138E-02
    16  1.5000000000000E-01  2.5670575123526E-01 -2.6662323644411E-01  6.9947473170469E-02
    17  1.6000000000000E-01  2.8082630252168E-01 -2.8053288670864E-01  6.2220836099765E-02
    18  1.7000000000000E-01  3.0413477933545E-01 -2.9061338022610E-01  5.0475535871005E-02
    19  1.8000000000000E-01  3.2639906009924E-01 -2.9643484674562E-01  3.4424146633973E-02
    20  1.9000000000000E-01  3.4742371007138E-01 -2.9765036896851E-01  1.3850749549765E-02
    21  2.0000000000000E-01  3.6705406605291E-01 -2.9400462977307E-01 -1.1382053789385E-02
    22  2.1000000000000E-01  3.8517947991565E-01 -2.8534072178799E-01 -4.1327641937436E-02
    23  2.2000000000000E-01  4.0173564907089E-01 -2.7160496484749E-01 -7.5951516332335E-02
    24  2.3000000000000E-01  4.1670597989615E-01 -2.5284961601561E-01 -1.1512918245083E-01
    25  2.4000000000000E-01  4.3012194920122E-01 -2.2923339853683E-01 -1.5864583163805E-01
    26  2.5000000000000E-01  4.4206244867888E-01 -2.0101981945350E-01 -2.0619785042860E-01
    27  2.6000000000000E-01  4.5265211756781E-01 -1.6857328988818E-01 -2.5739614797286E-01
    28  2.7000000000000E-01  4.6205868906235E-01 -1.3235310625985E-01 -3.1177125591610E-01
    29  2.8000000000000E-01  4.7048939594097E-01 -9.2905394122344E-02 -3.6878011945142E-01
    30  2.9000000000000E-01  4.7818650006255E-01 -5.0853158026725E-02 -4.2781446397699E-01
    31  3.0000000000000E-01  4.8542202841904E-01 -6.8846199913577E-03 -4.8821058950485E-01
    32  3.1000000000000E-01  4.9249181497688E-01  3.8259934967409E-02 -5.4926041533379E-01
    33  3.2000000000000E-01  4.9970896225663E-01  8.3802555958157E-02 -6.1022357110260E-01
    34  3.3000000000000E-01  5.0739684919176E-01  1.2894298855718E-01 -6.7034030771708E-01
    35  3.4000000000000E-01  5.1588182201541E-01  1.7287470303791E-01 -7.2884498325917E-01
    36  3.5000000000000E-01  5.2548571253119E-01  2.1480127296892E-01 -7.8497986522626E-01
    37  3.6000000000000E-01  5.3651833296619E-01  2.5395277855033E-01 -8.3800898161356E-01
    38  3.7000000000000E-01  5.4927009856471E-01  2.8960190526431E-01 -8.8723174965241E-01
    39  3.8000000000000E-01  5.6400492810096E-01  3.2107941106346E-01 -9.3199611256323E-01
    40  3.9000000000000E-01  5.8095356856289E-01  3.4778864441183E-01 -9.7171092148711E-01
    41  4.0000000000000E-01  6.0030748344051E-01  3.6921881090568E-01 -1.0058573117367E+00
    42  4.1000000000000E-01  6.2221343444763E-01  3.8495670768819E-01 -1.0339988394671E+00
    43  4.2000000000000E-01  6.4676887427928E-01  3.9469667207111E-01 -1.0557901665299E+00
    44  4.3000000000000E-01  6.7401825337097E-01  3.9824852320844E-01 -1.0709841072546E+00
    45  4.4000000000000E-01  7.0395032684254E-01  3.9554331275265E-01 -1.0794368807538E+00
    46  4.5000000000000E-01  7.3649652918373E-01  3.8663674148484E-01 -1.0811114455167E+00
    47  4.6000000000000E-01  7.7153046411267E-01  3.7171014319016E-01 -1.0760788289426E+00
    48  4.7000000000000E-01  8.0886853578736E-01  3.5106898372031E-01 -1.0645174024097E+00
    49  4.8000000000000E-01  8.4827172557186E-01  3.2513887136792E-01 -1.0467100917551E+00
    50  4.9000000000000E-01  8.8944849627056E-01  2.9445912345443E-01 -1.0230395529341E+00
    51  5.0000000000000E-01  9.3205878357005E-01  2.5967398246836E-01 -9.9398138235565E-01
    52  5.1000000000000E-01  9.7571901279790E-01  2.2152162224498E-01 -9.6009547020872E-01
    53  5.2000000000000E-01  1.0200080584398E+00  1.8082112962889E-01 -9.2201564223898E-01
    54  5.3000000000000E-01  1.0644740445587E+00  1.3845768891757E-01 -8.8043777018356E-01
    55  5.4000000000000E-01  1.1086418667161E+00  9.5366234308783E-02 -8.3610656273579E-01
    56  5.5000000000000E-01  1.1520213005561E+00  5.2513868794748E-02 -7.8980127685445E-01
    57  5.6000000000000E-01  1.1941155492027E+00  1.0881375773615E-02 -7.4232061288191E-01
    58  5.7000000000000E-01  1.2344300713033E+00 -2.8555828510299E-02 -6.9446707579823E-01
    59  5.8000000000000E-01  1.2724815241586E+00 -6.4846938214787E-02 -6.4703109860357E-01
    60  5.9000000000000E-01  1.3078066520816E+00 -9.7084824818111E-02 -6.0077523197597E-01
    61  6.0000000000000E-01  1.3399709490358E+00 -1.2442455422715E-01 -5.5641870678159E-01
    62  6.1000000000000E-01  1.3685769267744E+00 -1.4610098631215E-01 -5.1462267261485E-01
    63  6.2000000000000E-01  1.3932718251251E+00 -1.6144510197086E-01 -4.7597640631873E-01
    64  6.3000000000000E-01  1.4137546096766E+00 -1.6989872267202E-01 -4.4098476949542E-01
    65  6.4000000000000E-01  1.4297821137834E+00 -1.7102731395382E-01 -4.1005717358743E-01
    66  6.5000000000000E-01  1.4411741963314E+00 -1.6453059712481E-01 -3.8349828551870E-01
    67  6.6000000000000E-01  1.4478178038488E+00 -1.5025073187523E-01 -3.6150067656485E-01
    68  6.7000000000000E-01  1.4496698450062E+00 -1.2817787598390E-01 -3.4413958259726E-01
    69  6.8000000000000E-01  1.4467588069797E+00 -9.8452976029581E-02 -3.3136990572259E-01
    70  6.9000000000000E-01  1.4391850661664E+00 -6.1367694115087E-02 -3.2302554630972E-01