La    ONCVPSP-4.0.1  r_core=   2.10627   1.60918   1.85761   1.65804
     57.0000     11.0000      231019    zatom,zion,pspd
     8       2   3     4   600     0    pspcod,pspxc,lmax,lloc,mmax,r2well
  5.99000000  5.00000000  0.00000000    rchrg fchrg qchrg
     2     2     2     2     0    nproj
     1     1           extension_switch
   0                         6.6439819136715E+00  6.1207059793178E-01
     1  0.0000000000000E+00  4.5370096568575E-11 -1.5379477205646E-10
     2  1.0000000000000E-02  2.8587284149430E-02 -1.9559656574324E-03
     3  2.0000000000000E-02  5.7179202207349E-02 -3.9500710439603E-03
     4  3.0000000000000E-02  8.5780213770416E-02 -6.0200076785239E-03
     5  4.0000000000000E-02  1.1439443124966E-01 -8.2025749123461E-03
     6  5.0000000000000E-02  1.4302544986109E-01 -1.0533244437263E-02
     7  6.0000000000000E-02  1.7167618188424E-01 -1.3045737394970E-02
     8  7.0000000000000E-02  2.0034869655742E-01 -1.5771618105704E-02
     9  8.0000000000000E-02  2.2904406693370E-01 -1.8739908281087E-02
    10  9.0000000000000E-02  2.5776222496493E-01 -2.1976725396281E-02
    11  1.0000000000000E-01  2.8650182601541E-01 -2.5504948672682E-02
    12  1.1000000000000E-01  3.1526012393081E-01 -2.9343915866435E-02
    13  1.2000000000000E-01  3.4403285770286E-01 -3.3509153771970E-02
    14  1.3000000000000E-01  3.7281415067716E-01 -3.8012145036461E-02
    15  1.4000000000000E-01  4.0159642315077E-01 -4.2860133543043E-02
    16  1.5000000000000E-01  4.3037031909822E-01 -4.8055970261143E-02
    17  1.6000000000000E-01  4.5912464765128E-01 -5.3598001084263E-02
    18  1.7000000000000E-01  4.8784633983920E-01 -5.9479997782677E-02
    19  1.8000000000000E-01  5.1652042097364E-01 -6.5691132794253E-02
    20  1.9000000000000E-01  5.4512999893683E-01 -7.2215998164369E-02
    21  2.0000000000000E-01  5.7365626850401E-01 -7.9034668529936E-02
    22  2.1000000000000E-01  6.0207853170282E-01 -8.6122807626016E-02
    23  2.2000000000000E-01  6.3037423408371E-01 -9.3451817380947E-02
    24  2.3000000000000E-01  6.5851901664854E-01 -1.0098902826033E-01
    25  2.4000000000000E-01  6.8648678305918E-01 -1.0869792912620E-01
    26  2.5000000000000E-01  7.1424978162661E-01 -1.1653843449805E-01
    27  2.6000000000000E-01  7.4177870146329E-01 -1.2446718674172E-01
    28  2.7000000000000E-01  7.6904278206929E-01 -1.3243789037280E-01
    29  2.8000000000000E-01  7.9600993551686E-01 -1.4040167534695E-01
    30  2.9000000000000E-01  8.2264688029878E-01 -1.4830748592400E-01
    31  3.0000000000000E-01  8.4891928581486E-01 -1.5610249143733E-01
    32  3.1000000000000E-01  8.7479192638844E-01 -1.6373251507843E-01
    33  3.2000000000000E-01  9.0022884363131E-01 -1.7114247662119E-01
    34  3.3000000000000E-01  9.2519351591247E-01 -1.7827684486175E-01
    35  3.4000000000000E-01  9.4964903363305E-01 -1.8508009544153E-01
    36  3.5000000000000E-01  9.7355827896805E-01 -1.9149716965259E-01
    37  3.6000000000000E-01  9.9688410870468E-01 -1.9747392979815E-01
    38  3.7000000000000E-01  1.0195895387880E+00 -2.0295760669626E-01
    39  3.8000000000000E-01  1.0416379291768E+00 -2.0789723497248E-01
    40  3.9000000000000E-01  1.0629931676179E+00 -2.1224407188749E-01
    41  4.0000000000000E-01  1.0836198509610E+00 -2.1595199558599E-01
    42  4.1000000000000E-01  1.1034834626653E+00 -2.1897787883561E-01
    43  4.2000000000000E-01  1.1225505451875E+00 -2.2128193454425E-01
    44  4.3000000000000E-01  1.1407888659894E+00 -2.2282802960293E-01
    45  4.4000000000000E-01  1.1581675759651E+00 -2.2358396389318E-01
    46  4.5000000000000E-01  1.1746573591547E+00 -2.2352171162424E-01
    47  4.6000000000000E-01  1.1902305726962E+00 -2.2261762252012E-01
    48  4.7000000000000E-01  1.2048613760479E+00 -2.2085258075890E-01
    49  4.8000000000000E-01  1.2185258486168E+00 -2.1821211997134E-01
    50  4.9000000000000E-01  1.2312020950254E+00 -2.1468649303144E-01
    51  5.0000000000000E-01  1.2428703373609E+00 -2.1027069581161E-01
    52  5.1000000000000E-01  1.2535129938651E+00 -2.0496444452741E-01
    53  5.2000000000000E-01  1.2631147436383E+00 -1.9877210675663E-01
    54  5.3000000000000E-01  1.2716625770541E+00 -1.9170258668030E-01
    55  5.4000000000000E-01  1.2791458317036E+00 -1.8376916555428E-01
    56  5.5000000000000E-01  1.2855562138096E+00 -1.7498929887616E-01
    57  5.6000000000000E-01  1.2908878051772E+00 -1.6538437215719E-01
    58  5.7000000000000E-01  1.2951370558666E+00 -1.5497941764030E-01
    59  5.8000000000000E-01  1.2983027628926E+00 -1.4380279471675E-01
    60  5.9000000000000E-01  1.3003860353731E+00 -1.3188583718314E-01
    61  6.0000000000000E-01  1.3013902466563E+00 -1.1926247084218E-01
    62  6.1000000000000E-01  1.3013209740644E+00 -1.0596880528203E-01
    63  6.2000000000000E-01  1.3001859269873E+00 -9.2042703965473E-02
    64  6.3000000000000E-01  1.2979948641521E+00 -7.7523337019841E-02
    65  6.4000000000000E-01  1.2947595009767E+00 -6.2450721337812E-02
    66  6.5000000000000E-01  1.2904934079887E+00 -4.6865252775164E-02
    67  6.6000000000000E-01  1.2852119013547E+00 -3.0807235363381E-02
    68  6.7000000000000E-01  1.2789319266201E+00 -1.4316412539387E-02
    69  6.8000000000000E-01  1.2716719368005E+00  2.5684945672759E-03
    70  6.9000000000000E-01  1.2634517659997E+00  1.9810236762430E-02
    71  7.0000000000000E-01  1.2542924997499E+00  3.7373469361657E-02
    72  7.1000000000000E-01  1.2442163432793E+00  5.5225162852646E-02
    73  7.2000000000000E-01  1.2332464889107E+00  7.3334986943164E-02
    74  7.3000000000000E-01  1.2214069837836E+00  9.1675663496525E-02
    75  7.4000000000000E-01  1.2087225990669E+00  1.1022328410530E-01
    76  7.5000000000000E-01  1.1952187017975E+00  1.2895758834629E-01
    77  7.6000000000000E-01  1.1809211304349E+00  1.4786219909258E-01
    78  7.7000000000000E-01  1.1658560751697E+00  1.6692481162926E-01
    79  7.8000000000000E-01  1.1500499639603E+00  1.8613733372408E-01
    80  7.9000000000000E-01  1.1335293552041E+00  2.0549597424078E-01
    81  8.0000000000000E-01  1.1163208378686E+00  2.2500127834448E-01
    82  8.1000000000000E-01  1.0984509398278E+00  2.4465810783478E-01
    83  8.2000000000000E-01  1.0799460450570E+00  2.6447556564472E-01
    84  8.3000000000000E-01  1.0608323202448E+00  2.8446686406092E-01
    85  8.4000000000000E-01  1.0411356512866E+00  3.0464913674565E-01
    86  8.5000000000000E-01  1.0208815900206E+00  3.2504319517108E-01
    87  8.6000000000000E-01  1.0000953114663E+00  3.4567323060434E-01
    88  8.7000000000000E-01  9.7880158172629E-01  3.6656646330506E-01
    89  8.8000000000000E-01  9.5702473660532E-01  3.8775274110929E-01
    90  8.9000000000000E-01  9.3478867090610E-01  4.0926409007159E-01
    91  9.0000000000000E-01  9.1211683825886E-01  4.3113422031508E-01
    92  9.1000000000000E-01  8.8903226125013E-01  4.5339799069451E-01
    93  9.2000000000000E-01  8.6555755152365E-01  4.7609083630568E-01
    94  9.3000000000000E-01  8.4171493944140E-01  4.9924816327217E-01
    95  9.4000000000000E-01  8.1752631281104E-01  5.2290471560436E-01
    96  9.5000000000000E-01  7.9301326411149E-01  5.4709391925483E-01
    97  9.6000000000000E-01  7.6819714557871E-01  5.7184720878409E-01
    98  9.7000000000000E-01  7.4309913145160E-01  5.9719334230109E-01
    99  9.8000000000000E-01  7.1774028662113E-01  6.2315771055328E-01
   100  9.9000000000000E-01  6.9214164087636E-01  6.4976164620863E-01
   101  1.0000000000000E+00  6.6632426789784E-01  6.7702173949835E-01
   102  1.0100000000000E+00  6.4030936811166E-01  7.0494916647459E-01
   103  1.0200000000000E+00  6.1411835448687E-01  7.3354903618038E-01
   104  1.0300000000000E+00  5.8777294033312E-01  7.6281976303444E-01
   105  1.0400000000000E+00  5.6129522813587E-01  7.9275247069886E-01
   106  1.0500000000000E+00  5.3470779845050E-01  8.2333043362783E-01
   107  1.0600000000000E+00  5.0803379786542E-01  8.5452856239088E-01
   108  1.0700000000000E+00  4.8129702503626E-01  8.8631293872730E-01
   109  1.0800000000000E+00  4.5452201378774E-01  9.1864040612283E-01
   110  1.0900000000000E+00  4.2773411227698E-01  9.5145822150539E-01
   111  1.1000000000000E+00  4.0095955721006E-01  9.8470377343940E-01
   112  1.1100000000000E+00  3.7422554210300E-01  1.0183043719571E+00
   113  1.1200000000000E+00  3.4756027857801E-01  1.0521771149048E+00
   114  1.1300000000000E+00  3.2099304968546E-01  1.0862288354013E+00
   115  1.1400000000000E+00  2.9455425424130E-01  1.1203561347118E+00
   116  1.1500000000000E+00  2.6827544116835E-01  1.1544455045226E+00
   117  1.1600000000000E+00  2.4218933282875E-01  1.1883735422776E+00
   118  1.1700000000000E+00  2.1632983633209E-01  1.2220072628876E+00
   119  1.1800000000000E+00  1.9073204180312E-01  1.2552045097606E+00
   120  1.1900000000000E+00  1.6543220659105E-01  1.2878144677178E+00
   121  1.2000000000000E+00  1.4046772440422E-01  1.3196782799501E+00
   122  1.2100000000000E+00  1.1587707835727E-01  1.3506297707369E+00
   123  1.2200000000000E+00  9.1699776926662E-02  1.3804962751798E+00
   124  1.2300000000000E+00  6.7976271825117E-02  1.4090995766974E+00
   125  1.2400000000000E+00  4.4747856828751E-02  1.4362569524727E+00
   126  1.2500000000000E+00  2.2056546624923E-02  1.4617823264357E+00
   127  1.2600000000000E+00 -5.5065203322948E-05  1.4854875286891E+00
   128  1.2700000000000E+00 -2.1543969875102E-02  1.5071836595296E+00
   129  1.2800000000000E+00 -4.2366929525522E-02  1.5266825553774E+00
   130  1.2900000000000E+00 -6.2480686359576E-02  1.5437983529801E+00
   131  1.3000000000000E+00 -8.1842195331490E-02  1.5583491471881E+00
   132  1.3100000000000E+00 -1.0040888066368E-01  1.5701587363985E+00
   133  1.3200000000000E+00 -1.1813891631098E-01  1.5790584484143E+00
   134  1.3300000000000E+00 -1.3499153022227E-01  1.5848890379294E+00
   135  1.3400000000000E+00 -1.5092733195139E-01  1.5875026451354E+00
   136  1.3500000000000E+00 -1.6590866281429E-01  1.5867648030148E+00
   137  1.3600000000000E+00 -1.7989996737360E-01  1.5825564787117E+00
   138  1.3700000000000E+00 -1.9286818454950E-01  1.5747761319459E+00
   139  1.3800000000000E+00 -2.0478315610024E-01  1.5633417707230E+00
   140  1.3900000000000E+00 -2.1561804958142E-01  1.5481929815781E+00
   141  1.4000000000000E+00 -2.2534979217071E-01  1.5292929082384E+00
   142  1.4100000000000E+00 -2.3395951092749E-01  1.5066301488691E+00
   143  1.4200000000000E+00 -2.4143297414075E-01  1.4802205379742E+00
   144  1.4300000000000E+00 -2.4776102738984E-01  1.4501087744956E+00
   145  1.4400000000000E+00 -2.5294001680164E-01  1.4163698526988E+00
   146  1.4500000000000E+00 -2.5697219071777E-01  1.3791102469850E+00
   147  1.4600000000000E+00 -2.5986606958265E-01  1.3384687958139E+00
   148  1.4700000000000E+00 -2.6163677232216E-01  1.2946172234393E+00
   149  1.4800000000000E+00 -2.6230628578812E-01  1.2477602310849E+00
   150  1.4900000000000E+00 -2.6190366199225E-01  1.1981350815208E+00
   151  1.5000000000000E+00 -2.6046512582800E-01  1.1460105926570E+00
   152  1.5100000000000E+00 -2.5803407379091E-01  1.0916854468121E+00
   153  1.5200000000000E+00 -2.5466094180664E-01  1.0354857125259E+00
   154  1.5300000000000E+00 -2.5040291770185E-01  9.7776146533223E-01
   155  1.5400000000000E+00 -2.4532347105528E-01  9.1888238259147E-01
   156  1.5500000000000E+00 -2.3949167015296E-01  8.5923217532390E-01
   157  1.5600000000000E+00 -2.3298125252609E-01  7.9920170692493E-01
   158  1.5700000000000E+00 -2.2586941205979E-01  7.3918063462717E-01
   159  1.5800000000000E+00 -2.1823526191408E-01  6.7954739454917E-01
   160  1.5900000000000E+00 -2.1015792846592E-01  6.2065733496900E-01
   161  1.6000000000000E+00 -2.0171423039967E-01  5.6282881057596E-01
   162  1.6100000000000E+00 -1.9297586054430E-01  5.0632677902699E-01
   163  1.6200000000000E+00 -1.8400674131220E-01  4.5134931850273E-01
   164  1.6300000000000E+00 -1.7486530678350E-01  3.9805252048925E-01
   165  1.6400000000000E+00 -1.6560816578684E-01  3.4658230572210E-01
   166  1.6500000000000E+00 -1.5629009930773E-01  2.9707560227925E-01
   167  1.6600000000000E+00 -1.4696380777482E-01  2.4965948068618E-01
   168  1.6700000000000E+00 -1.3767966318216E-01  2.0445026797929E-01
   169  1.6800000000000E+00 -1.2848547610840E-01  1.6155272198191E-01
   170  1.6900000000000E+00 -1.1942628134095E-01  1.2105928711341E-01
   171  1.7000000000000E+00 -1.1054414330462E-01  8.3049434389339E-02
   172  1.7100000000000E+00 -1.0187798285932E-01  4.7589091794359E-02
   173  1.7200000000000E+00 -9.3463426866277E-02  1.4730170514442E-02
   174  1.7300000000000E+00 -8.5332681744267E-02 -1.5489808232105E-02
   175  1.7400000000000E+00 -7.7514432047557E-02 -4.3047981819454E-02
   176  1.7500000000000E+00 -7.0033764897523E-02 -6.7936307183381E-02
   177  1.7600000000000E+00 -6.2912120891850E-02 -9.0161611889503E-02
   178  1.7700000000000E+00 -5.6167271900282E-02 -1.0974553394873E-01
   179  1.7800000000000E+00 -4.9813325936869E-02 -1.2672434993682E-01
   180  1.7900000000000E+00 -4.3860759076423E-02 -1.4114869189502E-01
   181  1.8000000000000E+00 -3.8316474159191E-02 -1.5308315441405E-01
   182  1.8100000000000E+00 -3.3183885806299E-02 -1.6260579421738E-01
   183  1.8200000000000E+00 -2.8463031049143E-02 -1.6980752546439E-01
   184  1.8300000000000E+00 -2.4150704661685E-02 -1.7479141487537E-01
   185  1.8400000000000E+00 -2.0240618077228E-02 -1.7767188163207E-01
   186  1.8500000000000E+00 -1.6723580572434E-02 -1.7857380782329E-01
   187  1.8600000000000E+00 -1.3587701212935E-02 -1.7763156597589E-01
   188  1.8700000000000E+00 -1.0818609878523E-02 -1.7498797093215E-01
   189  1.8800000000000E+00 -8.3996955232337E-03 -1.7079316399735E-01
   190  1.8900000000000E+00 -6.3123596781201E-03 -1.6520343788050E-01
   191  1.9000000000000E+00 -4.5362830724369E-03 -1.5838001148605E-01
   192  1.9100000000000E+00 -3.0497031380366E-03 -1.5048776406102E-01
   193  1.9200000000000E+00 -1.8297000631515E-03 -1.4169393859692E-01
   194  1.9300000000000E+00 -8.5248898937654E-04 -1.3216682467183E-01
   195  1.9400000000000E+00 -9.3715889388331E-05 -1.2207443113745E-01
   196  1.9500000000000E+00  4.7124537101886E-04 -1.1158315918183E-01
   197  1.9600000000000E+00  8.6699729633691E-04 -1.0085648633995E-01
   198  1.9700000000000E+00  1.1178278958657E-03 -9.0053675004463E-02
   199  1.9800000000000E+00  1.2474142898450E-03 -7.9328478805646E-02
   200  1.9900000000000E+00  1.2785842365575E-03 -6.8828029929958E-02
   201  2.0000000000000E+00  1.2329637465317E-03 -5.8691436020720E-02
   202  2.0100000000000E+00  1.1296352285546E-03 -4.9045461156613E-02
   203  2.0200000000000E+00  9.8583926992732E-04 -4.0006160997208E-02
   204  2.0300000000000E+00  8.1927932913646E-04 -3.1685302006712E-02
   205  2.0400000000000E+00  6.4542572415043E-04 -2.4182376158212E-02
   206  2.0500000000000E+00  4.7743666066034E-04 -1.7584087284585E-02
   207  2.0600000000000E+00  3.2598490173254E-04 -1.1963608279997E-02
   208  2.0700000000000E+00  1.9913695516112E-04 -7.3805518626371E-03
   209  2.0800000000000E+00  1.0220025024353E-04 -3.8784277226710E-03
   210  2.0900000000000E+00  3.7438926563321E-05 -1.4753491787021E-03
   211  2.1000000000000E+00  6.2307041272981E-06 -2.6045657269409E-04
   212  2.1100000000000E+00 -9.6940357563739E-07  4.1708829654513E-05
   213  2.1200000000000E+00  1.0831015854636E-07 -4.5119524408544E-06
   214  2.13  0. -0.
   215  2.14 -0.  0.
   216  2.15 -0. -0.
   217  2.16  0.  0.
   218  2.17  0.  0.
   219  2.18  0.  0.
   220  2.19  0.  0.
   221  2.20  0.  0.
   222  2.21  0.  0.
   223  2.22  0.  0.
   224  2.23  0.  0.
   225  2.24  0.  0.
   226  2.25  0.  0.
   227  2.26  0.  0.
   228  2.27  0.  0.
   229  2.28  0.  0.
   230  2.29  0.  0.
   231  2.30  0.  0.
   232  2.31  0.  0.
   233  2.32  0.  0.
   234  2.33  0.  0.
   235  2.34  0.  0.
   236  2.35  0.  0.
   237  2.36  0.  0.
   238  2.37  0.  0.
   239  2.38  0.  0.
   240  2.39  0.  0.
   241  2.40  0.  0.
   242  2.41  0.  0.
   243  2.42  0.  0.
   244  2.43  0.  0.
   245  2.44  0.  0.
   246  2.45  0.  0.
   247  2.46  0.  0.
   248  2.47  0.  0.
   249  2.48  0.  0.
   250  2.49  0.  0.
   251  2.50  0.  0.
   252  2.51  0.  0.
   253  2.52  0.  0.
   254  2.53  0.  0.
   255  2.54  0.  0.
   256  2.55  0.  0.
   257  2.56  0.  0.
   258  2.57  0.  0.
   259  2.58  0.  0.
   260  2.59  0.  0.
   261  2.60  0.  0.
   262  2.61  0.  0.
   263  2.62  0.  0.
   264  2.63  0.  0.
   265  2.64  0.  0.
   266  2.65  0.  0.
   267  2.66  0.  0.
   268  2.67  0.  0.
   269  2.68  0.  0.
   270  2.69  0.  0.
   271  2.70  0.  0.
   272  2.71  0.  0.
   273  2.72  0.  0.
   274  2.73  0.  0.
   275  2.74  0.  0.
   276  2.75  0.  0.
   277  2.76  0.  0.
   278  2.77  0.  0.
   279  2.78  0.  0.
   280  2.79  0.  0.
   281  2.80  0.  0.
   282  2.81  0.  0.
   283  2.82  0.  0.
   284  2.83  0.  0.
   285  2.84  0.  0.
   286  2.85  0.  0.
   287  2.86  0.  0.
   288  2.87  0.  0.
   289  2.88  0.  0.
   290  2.89  0.  0.
   291  2.90  0.  0.
   292  2.91  0.  0.
   293  2.92  0.  0.
   294  2.93  0.  0.
   295  2.94  0.  0.
   296  2.95  0.  0.
   297  2.96  0.  0.
   298  2.97  0.  0.
   299  2.98  0.  0.
   300  2.99  0.  0.
   301  3.00  0.  0.
   302  3.01  0.  0.
   303  3.02  0.  0.
   304  3.03  0.  0.
   305  3.04  0.  0.
   306  3.05  0.  0.
   307  3.06  0.  0.
   308  3.07  0.  0.
   309  3.08  0.  0.
   310  3.09  0.  0.
   311  3.10  0.  0.
   312  3.11  0.  0.
   313  3.12  0.  0.
   314  3.13  0.  0.
   315  3.14  0.  0.
   316  3.15  0.  0.
   317  3.16  0.  0.
   318  3.17  0.  0.
   319  3.18  0.  0.
   320  3.19  0.  0.
   321  3.20  0.  0.
   322  3.21  0.  0.
   323  3.22  0.  0.
   324  3.23  0.  0.
   325  3.24  0.  0.
   326  3.25  0.  0.
   327  3.26  0.  0.
   328  3.27  0.  0.
   329  3.28  0.  0.
   330  3.29  0.  0.
   331  3.30  0.  0.
   332  3.31  0.  0.
   333  3.32  0.  0.
   334  3.33  0.  0.
   335  3.34  0.  0.
   336  3.35  0.  0.
   337  3.36  0.  0.
   338  3.37  0.  0.
   339  3.38  0.  0.
   340  3.39  0.  0.
   341  3.40  0.  0.
   342  3.41  0.  0.
   343  3.42  0.  0.
   344  3.43  0.  0.
   345  3.44  0.  0.
   346  3.45  0.  0.
   347  3.46  0.  0.
   348  3.47  0.  0.
   349  3.48  0.  0.
   350  3.49  0.  0.
   351  3.50  0.  0.
   352  3.51  0.  0.
   353  3.52  0.  0.
   354  3.53  0.  0.
   355  3.54  0.  0.
   356  3.55  0.  0.
   357  3.56  0.  0.
   358  3.57  0.  0.
   359  3.58  0.  0.
   360  3.59  0.  0.
   361  3.60  0.  0.
   362  3.61  0.  0.
   363  3.62  0.  0.
   364  3.63  0.  0.
   365  3.64  0.  0.
   366  3.65  0.  0.
   367  3.66  0.  0.
   368  3.67  0.  0.
   369  3.68  0.  0.
   370  3.69  0.  0.
   371  3.70  0.  0.
   372  3.71  0.  0.
   373  3.72  0.  0.
   374  3.73  0.  0.
   375  3.74  0.  0.
   376  3.75  0.  0.
   377  3.76  0.  0.
   378  3.77  0.  0.
   379  3.78  0.  0.
   380  3.79  0.  0.
   381  3.80  0.  0.
   382  3.81  0.  0.
   383  3.82  0.  0.
   384  3.83  0.  0.
   385  3.84  0.  0.
   386  3.85  0.  0.
   387  3.86  0.  0.
   388  3.87  0.  0.
   389  3.88  0.  0.
   390  3.89  0.  0.
   391  3.90  0.  0.
   392  3.91  0.  0.
   393  3.92  0.  0.
   394  3.93  0.  0.
   395  3.94  0.  0.
   396  3.95  0.  0.
   397  3.96  0.  0.
   398  3.97  0.  0.
   399  3.98  0.  0.
   400  3.99  0.  0.
   401  4.00  0.  0.
   402  4.01  0.  0.
   403  4.02  0.  0.
   404  4.03  0.  0.
   405  4.04  0.  0.
   406  4.05  0.  0.
   407  4.06  0.  0.
   408  4.07  0.  0.
   409  4.08  0.  0.
   410  4.09  0.  0.
   411  4.10  0.  0.
   412  4.11  0.  0.
   413  4.12  0.  0.
   414  4.13  0.  0.
   415  4.14  0.  0.
   416  4.15  0.  0.
   417  4.16  0.  0.
   418  4.17  0.  0.
   419  4.18  0.  0.
   420  4.19  0.  0.
   421  4.20  0.  0.
   422  4.21  0.  0.
   423  4.22  0.  0.
   424  4.23  0.  0.
   425  4.24  0.  0.
   426  4.25  0.  0.
   427  4.26  0.  0.
   428  4.27  0.  0.
   429  4.28  0.  0.
   430  4.29  0.  0.
   431  4.30  0.  0.
   432  4.31  0.  0.
   433  4.32  0.  0.
   434  4.33  0.  0.
   435  4.34  0.  0.
   436  4.35  0.  0.
   437  4.36  0.  0.
   438  4.37  0.  0.
   439  4.38  0.  0.
   440  4.39  0.  0.
   441  4.40  0.  0.
   442  4.41  0.  0.
   443  4.42  0.  0.
   444  4.43  0.  0.
   445  4.44  0.  0.
   446  4.45  0.  0.
   447  4.46  0.  0.
   448  4.47  0.  0.
   449  4.48  0.  0.
   450  4.49  0.  0.
   451  4.50  0.  0.
   452  4.51  0.  0.
   453  4.52  0.  0.
   454  4.53  0.  0.
   455  4.54  0.  0.
   456  4.55  0.  0.
   457  4.56  0.  0.
   458  4.57  0.  0.
   459  4.58  0.  0.
   460  4.59  0.  0.
   461  4.60  0.  0.
   462  4.61  0.  0.
   463  4.62  0.  0.
   464  4.63  0.  0.
   465  4.64  0.  0.
   466  4.65  0.  0.
   467  4.66  0.  0.
   468  4.67  0.  0.
   469  4.68  0.  0.
   470  4.69  0.  0.
   471  4.70  0.  0.
   472  4.71  0.  0.
   473  4.72  0.  0.
   474  4.73  0.  0.
   475  4.74  0.  0.
   476  4.75  0.  0.
   477  4.76  0.  0.
   478  4.77  0.  0.
   479  4.78  0.  0.
   480  4.79  0.  0.
   481  4.80  0.  0.
   482  4.81  0.  0.
   483  4.82  0.  0.
   484  4.83  0.  0.
   485  4.84  0.  0.
   486  4.85  0.  0.
   487  4.86  0.  0.
   488  4.87  0.  0.
   489  4.88  0.  0.
   490  4.89  0.  0.
   491  4.90  0.  0.
   492  4.91  0.  0.
   493  4.92  0.  0.
   494  4.93  0.  0.
   495  4.94  0.  0.
   496  4.95  0.  0.
   497  4.96  0.  0.
   498  4.97  0.  0.
   499  4.98  0.  0.
   500  4.99  0.  0.
   501  5.00  0.  0.
   502  5.01  0.  0.
   503  5.02  0.  0.
   504  5.03  0.  0.
   505  5.04  0.  0.
   506  5.05  0.  0.
   507  5.06  0.  0.
   508  5.07  0.  0.
   509  5.08  0.  0.
   510  5.09  0.  0.
   511  5.10  0.  0.
   512  5.11  0.  0.
   513  5.12  0.  0.
   514  5.13  0.  0.
   515  5.14  0.  0.
   516  5.15  0.  0.
   517  5.16  0.  0.
   518  5.17  0.  0.
   519  5.18  0.  0.
   520  5.19  0.  0.
   521  5.20  0.  0.
   522  5.21  0.  0.
   523  5.22  0.  0.
   524  5.23  0.  0.
   525  5.24  0.  0.
   526  5.25  0.  0.
   527  5.26  0.  0.
   528  5.27  0.  0.
   529  5.28  0.  0.
   530  5.29  0.  0.
   531  5.30  0.  0.
   532  5.31  0.  0.
   533  5.32  0.  0.
   534  5.33  0.  0.
   535  5.34  0.  0.
   536  5.35  0.  0.
   537  5.36  0.  0.
   538  5.37  0.  0.
   539  5.38  0.  0.
   540  5.39  0.  0.
   541  5.40  0.  0.
   542  5.41  0.  0.
   543  5.42  0.  0.
   544  5.43  0.  0.
   545  5.44  0.  0.
   546  5.45  0.  0.
   547  5.46  0.  0.
   548  5.47  0.  0.
   549  5.48  0.  0.
   550  5.49  0.  0.
   551  5.50  0.  0.
   552  5.51  0.  0.
   553  5.52  0.  0.
   554  5.53  0.  0.
   555  5.54  0.  0.
   556  5.55  0.  0.
   557  5.56  0.  0.
   558  5.57  0.  0.
   559  5.58  0.  0.
   560  5.59  0.  0.
   561  5.60  0.  0.
   562  5.61  0.  0.
   563  5.62  0.  0.
   564  5.63  0.  0.
   565  5.64  0.  0.
   566  5.65  0.  0.
   567  5.66  0.  0.
   568  5.67  0.  0.
   569  5.68  0.  0.
   570  5.69  0.  0.
   571  5.70  0.  0.
   572  5.71  0.  0.
   573  5.72  0.  0.
   574  5.73  0.  0.
   575  5.74  0.  0.
   576  5.75  0.  0.
   577  5.76  0.  0.
   578  5.77  0.  0.
   579  5.78  0.  0.
   580  5.79  0.  0.
   581  5.80  0.  0.
   582  5.81  0.  0.
   583  5.82  0.  0.
   584  5.83  0.  0.
   585  5.84  0.  0.
   586  5.85  0.  0.
   587  5.86  0.  0.
   588  5.87  0.  0.
   589  5.88  0.  0.
   590  5.89  0.  0.
   591  5.90  0.  0.
   592  5.91  0.  0.
   593  5.92  0.  0.
   594  5.93  0.  0.
   595  5.94  0.  0.
   596  5.95  0.  0.
   597  5.96  0.  0.
   598  5.97  0.  0.
   599  5.98  0.  0.
   600  5.99  0.  0.
   1                         6.1733997006962E+00  9.3614921838251E-01
     1  0.0000000000000E+00  1.6572666086678E-08 -3.6020501886780E-08
     2  1.0000000000000E-02  1.5191222434828E-03 -1.9676919173115E-03
     3  2.0000000000000E-02  6.0527767012889E-03 -7.8218050363689E-03
     4  3.0000000000000E-02  1.3530311932803E-02 -1.7416499174789E-02
     5  4.0000000000000E-02  2.3835583683370E-02 -3.0512178480061E-02
     6  5.0000000000000E-02  3.6809333071802E-02 -4.6780624081224E-02
     7  6.0000000000000E-02  5.2252448672643E-02 -6.5812033244422E-02
     8  7.0000000000000E-02  6.9930046695348E-02 -8.7123821932991E-02
     9  8.0000000000000E-02  8.9576286889845E-02 -1.1017101165224E-01
    10  9.0000000000000E-02  1.1089982684683E-01 -1.3435798895900E-01
    11  1.0000000000000E-01  1.3358980430582E-01 -1.5905139767873E-01
    12  1.1000000000000E-01  1.5732222619282E-01 -1.8359390026225E-01
    13  1.2000000000000E-01  1.8176663459884E-01 -2.0731852630080E-01
    14  1.3000000000000E-01  2.0659291395184E-01 -2.2956331337677E-01
    15  1.4000000000000E-01  2.3147810035080E-01 -2.4968593842193E-01
    16  1.5000000000000E-01  2.5611305349140E-01 -2.6707803673938E-01
    17  1.6000000000000E-01  2.8020885383832E-01 -2.8117891085748E-01
    18  1.7000000000000E-01  3.0350279265315E-01 -2.9148834234469E-01
    19  1.8000000000000E-01  3.2576383008246E-01 -2.9757823642893E-01
    20  1.9000000000000E-01  3.4679740660911E-01 -2.9910285142874E-01
    21  2.0000000000000E-01  3.6644950558342E-01 -2.9580739220225E-01
    22  2.1000000000000E-01  3.8460987904725E-01 -2.8753477854301E-01
    23  2.2000000000000E-01  4.0121436536935E-01 -2.7423043509737E-01
    24  2.3000000000000E-01  4.1624624501461E-01 -2.5594498826746E-01
    25  2.4000000000000E-01  4.2973659973414E-01 -2.3283479695085E-01
    26  2.5000000000000E-01  4.4176366022238E-01 -2.0516028705621E-01
    27  2.6000000000000E-01  4.5245114746200E-01 -1.7328210368955E-01
    28  2.7000000000000E-01  4.6196563317666E-01 -1.3765513887386E-01
    29  2.8000000000000E-01  4.7051296464130E-01 -9.8820535785107E-02
    30  2.9000000000000E-01  4.7833381817368E-01 -5.7395811913807E-02
    31  3.0000000000000E-01  4.8569846357172E-01 -1.4063282471254E-02
    32  3.1000000000000E-01  4.9290083821388E-01  3.0442999021057E-02
    33  3.2000000000000E-01  5.0025204417510E-01  7.5351534410710E-02
    34  3.3000000000000E-01  5.0807339423061E-01  1.1986863335809E-01
    35  3.4000000000000E-01  5.1668914276895E-01  1.6319432729740E-01
    36  3.5000000000000E-01  5.2641904519702E-01  2.0453863160035E-01
    37  3.6000000000000E-01  5.3757089423075E-01  2.4313783259197E-01
    38  3.7000000000000E-01  5.5043318340953E-01  2.7827047230612E-01
    39  3.8000000000000E-01  5.6526804719192E-01  3.0927270650409E-01
    40  3.9000000000000E-01  5.8230462307957E-01  3.3555272051312E-01
    41  4.0000000000000E-01  6.0173297442911E-01  3.5660390275209E-01
    42  4.1000000000000E-01  6.2369870305398E-01  3.7201649715325E-01
    43  4.2000000000000E-01  6.4829836855308E-01  3.8148748270161E-01
    44  4.3000000000000E-01  6.7557581674189E-01  3.8482846052113E-01
    45  4.4000000000000E-01  7.0551950286639E-01  3.8197136576402E-01
    46  4.5000000000000E-01  7.3806087675246E-01  3.7297186233175E-01
    47  4.6000000000000E-01  7.7307387702566E-01  3.5801032242355E-01
    48  4.7000000000000E-01  8.1037556039963E-01  3.3739033924675E-01
    49  4.8000000000000E-01  8.4972787017359E-01  3.1153476906106E-01
    50  4.9000000000000E-01  8.9084052591355E-01  2.8097934715472E-01
    51  5.0000000000000E-01  9.3337499424218E-01  2.4636397043422E-01
    52  5.1000000000000E-01  9.7694947915339E-01  2.0842178611888E-01
    53  5.2000000000000E-01  1.0211448497180E+00  1.6796627065141E-01
    54  5.3000000000000E-01  1.0655114038606E+00  1.2587652448123E-01
    55  5.4000000000000E-01  1.1095763494458E+00  8.3081046017677E-02
    56  5.5000000000000E-01  1.1528518685670E+00  4.0540281018173E-02
    57  5.6000000000000E-01  1.1948436179970E+00 -7.7172871075553E-04
    58  5.7000000000000E-01  1.2350595085096E+00 -3.9886251752982E-02
    59  5.8000000000000E-01  1.2730185984373E+00 -7.5858967871154E-02
    60  5.9000000000000E-01  1.3082599325640E+00 -1.0778889389330E-01
    61  6.0000000000000E-01  1.3403511563739E+00 -1.3483676401006E-01
    62  6.1000000000000E-01  1.3688967378468E+00 -1.5624249948400E-01
    63  6.2000000000000E-01  1.3935456343865E+00 -1.7134141555718E-01
    64  6.3000000000000E-01  1.4139982510442E+00 -1.7957883305561E-01
    65  6.4000000000000E-01  1.4300125477944E+00 -1.8052278853030E-01
    66  6.5000000000000E-01  1.4414091680754E+00 -1.7387456931206E-01
    67  6.6000000000000E-01  1.4480754778522E+00 -1.5947683803933E-01
    68  6.7000000000000E-01  1.4499684238139E+00 -1.3731915437686E-01
    69  6.8000000000000E-01  1.4471161406284E+00 -1.0754074901248E-01
    70  6.9000000000000E-01  1.4396182600605E+00 -7.0430455736424E-02
    71  7.0000000000000E-01  1.4276448988035E+00 -2.6423760552974E-02
    72  7.1000000000000E-01  1.4114343266225E+00  2.3903018652155E-02
    73  7.2000000000000E-01  1.3912893414116E+00  7.9841353370429E-02
    74  7.3000000000000E-01  1.3675724025398E+00  1.4056180377978E-01
    75  7.4000000000000E-01  1.3406995979472E+00  2.0512782053785E-01
    76  7.5000000000000E-01  1.3111335433709E+00  2.7251182349445E-01
    77  7.6000000000000E-01  1.2793753334000E+00  3.4161328543406E-01
    78  7.7000000000000E-01  1.2459556833503E+00  4.1127850722472E-01
    79  7.8000000000000E-01  1.2114254178288E+00  4.8032173445222E-01
    80  7.9000000000000E-01  1.1763454759866E+00  5.4754723550620E-01
    81  8.0000000000000E-01  1.1412766145299E+00  6.1177193779481E-01
    82  8.1000000000000E-01  1.1067689973482E+00  6.7184820281543E-01
    83  8.2000000000000E-01  1.0733518649326E+00  7.2668631258168E-01
    84  8.3000000000000E-01  1.0415234774865E+00  7.7527623964201E-01
    85  8.4000000000000E-01  1.0117415227272E+00  8.1670828071400E-01
    86  8.5000000000000E-01  9.8441417285428E-01  8.5019214974045E-01
    87  8.6000000000000E-01  9.5989196511271E-01  8.7507414973739E-01
    88  8.7000000000000E-01  9.3846066695679E-01  8.9085207378712E-01
    89  8.8000000000000E-01  9.2033527024692E-01  8.9718752342851E-01
    90  8.9000000000000E-01  9.0565523946833E-01  8.9391537686846E-01
    91  9.0000000000000E-01  8.9448111698489E-01  8.8105018911922E-01
    92  9.1000000000000E-01  8.8679256422413E-01  8.5878936048083E-01