La    ONCVPSP-4.0.1  r_core=   2.10627   1.60918   1.85761   1.65804
     57.0000     11.0000      250217    zatom,zion,pspd
     8       2   3     4   600     0    pspcod,pspxc,lmax,lloc,mmax,r2well
  5.99000000  5.00000000  0.00000000    rchrg fchrg qchrg
     2     3     3     2    nproj
     3     1           extension_switch
     4     3     3    nprojso
   0                         6.6443899703621E+00  6.1123505168111E-01
     1  0.0000000000000E+00  4.5231651757405E-11 -1.5337804290527E-10
     2  1.0000000000000E-02  2.8537619833067E-02 -1.9429482140614E-03
     3  2.0000000000000E-02  5.7079963785245E-02 -3.9240599328685E-03
     4  3.0000000000000E-02  8.5631581757443E-02 -5.9810511868582E-03
     5  4.0000000000000E-02  1.1419667664884E-01 -8.1507472997051E-03
     6  5.0000000000000E-02  1.4277893443116E-01 -1.0468648100418E-02
     7  6.0000000000000E-02  1.7138135848092E-01 -1.2968505704596E-02
     8  7.0000000000000E-02  2.0000610953556E-01 -1.5681918873329E-02
     9  8.0000000000000E-02  2.2865435259412E-01 -1.8637947804848E-02
    10  9.0000000000000E-02  2.5732611202744E-01 -2.1862753024996E-02
    11  1.0000000000000E-01  2.8602013609660E-01 -2.5379261819397E-02
    12  1.1000000000000E-01  3.1473377200295E-01 -2.9206865394807E-02
    13  1.2000000000000E-01  3.4346285250830E-01 -3.3361149672127E-02
    14  1.3000000000000E-01  3.7220159507089E-01 -3.7853662300944E-02
    15  1.4000000000000E-01  4.0094251434214E-01 -4.2691718148473E-02
    16  1.5000000000000E-01  4.2967634876204E-01 -4.7878245157300E-02
    17  1.6000000000000E-01  4.5839200187772E-01 -5.3411672089409E-02
    18  1.7000000000000E-01  4.8707649889143E-01 -5.9285859282207E-02
    19  1.8000000000000E-01  5.1571495882239E-01 -6.5490073139105E-02
    20  1.9000000000000E-01  5.4429058254131E-01 -7.2009004666263E-02
    21  2.0000000000000E-01  5.7278465680970E-01 -7.8822831952157E-02
    22  2.1000000000000E-01  6.0117657432754E-01 -8.5907326071514E-02
    23  2.2000000000000E-01  6.2944386966522E-01 -9.3233999483339E-02
    24  2.3000000000000E-01  6.5756227082877E-01 -1.0077029558886E-01
    25  2.4000000000000E-01  6.8550576608261E-01 -1.0847981772171E-01
    26  2.5000000000000E-01  7.1324668553294E-01 -1.1632259546454E-01
    27  2.6000000000000E-01  7.4075579685746E-01 -1.2425538582616E-01
    28  2.7000000000000E-01  7.6800241445538E-01 -1.3223200647511E-01
    29  2.8000000000000E-01  7.9495452118583E-01 -1.4020369791212E-01
    30  2.9000000000000E-01  8.2157890176381E-01 -1.4811951117893E-01
    31  3.0000000000000E-01  8.4784128679220E-01 -1.5592671744632E-01
    32  3.1000000000000E-01  8.7370650632559E-01 -1.6357123560332E-01
    33  3.2000000000000E-01  8.9913865178896E-01 -1.7099807378406E-01
    34  3.3000000000000E-01  9.2410124501076E-01 -1.7815178062125E-01
    35  3.4000000000000E-01  9.4855741307738E-01 -1.8497690190591E-01
    36  3.5000000000000E-01  9.7247006767395E-01 -1.9141843826618E-01
    37  3.6000000000000E-01  9.9580208754566E-01 -1.9742229944992E-01
    38  3.7000000000000E-01  1.0185165026948E+00 -2.0293575081218E-01
    39  3.8000000000000E-01  1.0405766789207E+00 -2.0790784766541E-01
    40  3.9000000000000E-01  1.0619465013140E+00 -2.1228985324988E-01
    41  4.0000000000000E-01  1.0825905553327E+00 -2.1603563622201E-01
    42  4.1000000000000E-01  1.1024743041131E+00 -2.1910204373950E-01
    43  4.2000000000000E-01  1.1215642607101E+00 -2.2144924644152E-01
    44  4.3000000000000E-01  1.1398281540065E+00 -2.2304105187927E-01
    45  4.4000000000000E-01  1.1572350870946E+00 -2.2384518324397E-01
    46  4.5000000000000E-01  1.1737556870003E+00 -2.2383352056355E-01
    47  4.6000000000000E-01  1.1893622446998E+00 -2.2298230189361E-01
    48  4.7000000000000E-01  1.2040288444672E+00 -2.2127228240872E-01
    49  4.8000000000000E-01  1.2177314816846E+00 -2.1868884970391E-01
    50  4.9000000000000E-01  1.2304481683507E+00 -2.1522209403983E-01
    51  5.0000000000000E-01  1.2421590256303E+00 -2.1086683270414E-01
    52  5.1000000000000E-01  1.2528463629021E+00 -2.0562258811212E-01
    53  5.2000000000000E-01  1.2624947428780E+00 -1.9949351972834E-01
    54  5.3000000000000E-01  1.2710910324871E+00 -1.9248831035159E-01
    55  5.4000000000000E-01  1.2786244393430E+00 -1.8462000776608E-01
    56  5.5000000000000E-01  1.2850865337299E+00 -1.7590582321561E-01
    57  5.6000000000000E-01  1.2904712561724E+00 -1.6636688860163E-01
    58  5.7000000000000E-01  1.2947749107697E+00 -1.5602797473555E-01
    59  5.8000000000000E-01  1.2979961445948E+00 -1.4491717338661E-01
    60  5.9000000000000E-01  1.3001359135775E+00 -1.3306554625392E-01
    61  6.0000000000000E-01  1.3011974353942E+00 -1.2050674435246E-01
    62  6.1000000000000E-01  1.3011861299976E+00 -1.0727660163298E-01
    63  6.2000000000000E-01  1.3001095485147E+00 -9.3412706951422E-02
    64  6.3000000000000E-01  1.2979772913318E+00 -7.8953958762874E-02
    65  6.4000000000000E-01  1.2948009162702E+00 -6.3940107132897E-02
    66  6.5000000000000E-01  1.2905938378251E+00 -4.8411287835452E-02
    67  6.6000000000000E-01  1.2853712185100E+00 -3.2407553437921E-02
    68  6.7000000000000E-01  1.2791498533958E+00 -1.5968406358285E-02
    69  6.8000000000000E-01  1.2719480489834E+00  8.6766108320797E-04
    70  6.9000000000000E-01  1.2637854975758E+00  1.8063614606427E-02
    71  7.0000000000000E-01  1.2546831483401E+00  3.5584308956500E-02
    72  7.1000000000000E-01  1.2446630762582E+00  5.3396897088656E-02
    73  7.2000000000000E-01  1.2337483501648E+00  7.1471212865514E-02
    74  7.3000000000000E-01  1.2219629010576E+00  8.9780122783072E-02
    75  7.4000000000000E-01  1.2093313918448E+00  1.0829984248872E-01
    76  7.5000000000000E-01  1.1958790896581E+00  1.2701021414634E-01
    77  7.6000000000000E-01  1.1816317418170E+00  1.4589494103434E-01
    78  7.7000000000000E-01  1.1666154564809E+00  1.6494177613208E-01
    79  7.8000000000000E-01  1.1508565889567E+00  1.8414266185307E-01
    80  7.9000000000000E-01  1.1343816345684E+00  2.0349381851757E-01
    81  8.0000000000000E-01  1.1172171289114E+00  2.2299577961826E-01
    82  8.1000000000000E-01  1.0993895562338E+00  2.4265337241528E-01
    83  8.2000000000000E-01  1.0809252665996E+00  2.6247564289903E-01
    84  8.3000000000000E-01  1.0618504023910E+00  2.8247572467334E-01
    85  8.4000000000000E-01  1.0421908346159E+00  3.0267065183545E-01
    86  8.5000000000000E-01  1.0219721093809E+00  3.2308111645672E-01
    87  8.6000000000000E-01  1.0012194047952E+00  3.4373117179399E-01
    88  8.7000000000000E-01  9.7995749846503E-01  3.6464788288359E-01
    89  8.8000000000000E-01  9.5821074564003E-01  3.8586092667907E-01
    90  8.9000000000000E-01  9.3600306797130E-01  4.0740214439103E-01
    91  9.0000000000000E-01  9.1335795274575E-01  4.2930504916298E-01
    92  9.1000000000000E-01  8.9029846236570E-01  4.5160429267143E-01
    93  9.2000000000000E-01  8.6684725375334E-01  4.7433509466495E-01
    94  9.3000000000000E-01  8.4302660727386E-01  4.9753263985323E-01
    95  9.4000000000000E-01  8.1885846469041E-01  5.2123144692111E-01
    96  9.5000000000000E-01  7.9436447558973E-01  5.4546471476914E-01
    97  9.6000000000000E-01  7.6956605164794E-01  5.7026365137305E-01
    98  9.7000000000000E-01  7.4448442804403E-01  5.9565679090382E-01
    99  9.8000000000000E-01  7.1914073127209E-01  6.2166930495995E-01
   100  9.9000000000000E-01  6.9355605255398E-01  6.4832231393163E-01
   101  1.0000000000000E+00  6.6775152601089E-01  6.7563220464336E-01
   102  1.0100000000000E+00  6.4174841071525E-01  7.0360996050637E-01
   103  1.0200000000000E+00  6.1556817571338E-01  7.3226051045754E-01
   104  1.0300000000000E+00  5.8923258708401E-01  7.6158210296656E-01
   105  1.0400000000000E+00  5.6276379607695E-01  7.9156571136018E-01
   106  1.0500000000000E+00  5.3618442736108E-01  8.2219447664426E-01
   107  1.0600000000000E+00  5.0951766639818E-01  8.5344319390046E-01
   108  1.0700000000000E+00  4.8278734495142E-01  8.8527784820050E-01
   109  1.0800000000000E+00  4.5601802373097E-01  9.1765520581613E-01
   110  1.0900000000000E+00  4.2923507117571E-01  9.5052246631232E-01
   111  1.1000000000000E+00  4.0246473736794E-01  9.8381698089499E-01
   112  1.1100000000000E+00  3.7573422207608E-01  1.0174660421466E+00
   113  1.1200000000000E+00  3.4907173591981E-01  1.0513867500255E+00
   114  1.1300000000000E+00  3.2250655365063E-01  1.0854859587256E+00
   115  1.1400000000000E+00  2.9606905853950E-01  1.1196603087040E+00
   116  1.1500000000000E+00  2.6979077686126E-01  1.1537963478660E+00
   117  1.1600000000000E+00  2.4370440146283E-01  1.1877707455796E+00
   118  1.1700000000000E+00  2.1784380339983E-01  1.2214506028396E+00
   119  1.1800000000000E+00  1.9224403062345E-01  1.2546938615466E+00
   120  1.1900000000000E+00  1.6694129269760E-01  1.2873498154805E+00
   121  1.2000000000000E+00  1.4197293052690E-01  1.3192597251455E+00
   122  1.2100000000000E+00  1.1737737007842E-01  1.3502575382298E+00
   123  1.2200000000000E+00  9.3194059088503E-02  1.3801707169578E+00
   124  1.2300000000000E+00  6.9463385759115E-02  1.4088211731095E+00
   125  1.2400000000000E+00  4.6226578471349E-02  1.4360263109270E+00
   126  1.2500000000000E+00  2.3525585576574E-02  1.4616001775229E+00
   127  1.2600000000000E+00  1.4029343732451E-03  1.4853547197312E+00
   128  1.2700000000000E+00 -2.0098431558411E-02  1.5071011455875E+00
   129  1.2800000000000E+00 -4.0935337406847E-02  1.5266513877877E+00
   130  1.2900000000000E+00 -6.1064585198960E-02  1.5438196655257E+00
   131  1.3000000000000E+00 -8.0443185385228E-02  1.5584241400448E+00
   132  1.3100000000000E+00 -9.9028612265565E-02  1.5702886580367E+00
   133  1.3200000000000E+00 -1.1677908337317E-01  1.5792445756686E+00
   134  1.3300000000000E+00 -1.3365386268072E-01  1.5851326544857E+00
   135  1.3400000000000E+00 -1.4961358719315E-01  1.5878050187179E+00
   136  1.3500000000000E+00 -1.6462061613682E-01  1.5871271615842E+00
   137  1.3600000000000E+00 -1.7863940153933E-01  1.5829799860184E+00
   138  1.3700000000000E+00 -1.9163687851192E-01  1.5752618628036E+00
   139  1.3800000000000E+00 -2.0358287299118E-01  1.5638906863905E+00
   140  1.3900000000000E+00 -2.1445052406246E-01  1.5488059056537E+00
   141  1.4000000000000E+00 -2.2421671726485E-01  1.5299705034827E+00
   142  1.4100000000000E+00 -2.3286252446027E-01  1.5073728953753E+00
   143  1.4200000000000E+00 -2.4037364493266E-01  1.4810287131041E+00
   144  1.4300000000000E+00 -2.4674084135440E-01  1.4509824349884E+00
   145  1.4400000000000E+00 -2.5196036311525E-01  1.4173088193392E+00
   146  1.4500000000000E+00 -2.5603434823868E-01  1.3801140921890E+00
   147  1.4600000000000E+00 -2.5897119370688E-01  1.3395368344494E+00
   148  1.4700000000000E+00 -2.6078588247360E-01  1.2957485071422E+00
   149  1.4800000000000E+00 -2.6150025374868E-01  1.2489535462693E+00
   150  1.4900000000000E+00 -2.6114320128476E-01  1.1993889511933E+00
   151  1.5000000000000E+00 -2.5975078237053E-01  1.1473232820506E+00
   152  1.5100000000000E+00 -2.5736621804505E-01  1.0930549727356E+00
   153  1.5200000000000E+00 -2.5403976264439E-01  1.0369098561860E+00
   154  1.5300000000000E+00 -2.4982841821575E-01  9.7923778823010E-01
   155  1.5400000000000E+00 -2.4479546653407E-01  9.2040824490904E-01
   156  1.5500000000000E+00 -2.3900978843998E-01  8.6080475600947E-01
   157  1.5600000000000E+00 -2.3254493696942E-01  8.0081802445074E-01
   158  1.5700000000000E+00 -2.2547792725207E-01  7.4083756712614E-01
   159  1.5800000000000E+00 -2.1788770240491E-01  6.8124169774026E-01
   160  1.5900000000000E+00 -2.0985323061092E-01  6.2238565594784E-01
   161  1.6000000000000E+00 -2.0145118748012E-01  5.6458769518165E-01
   162  1.6100000000000E+00 -1.9275314132654E-01  5.0811267004204E-01
   163  1.6200000000000E+00 -1.8382291013680E-01  4.5315853872842E-01
   164  1.6300000000000E+00 -1.7471883503295E-01  3.9988125186179E-01
   165  1.6400000000000E+00 -1.6549743706965E-01  3.4842659511535E-01
   166  1.6500000000000E+00 -1.5621341527627E-01  2.9893137367007E-01
   167  1.6600000000000E+00 -1.4691939464580E-01  2.5152254935466E-01
   168  1.6700000000000E+00 -1.3766567895957E-01  2.0631635673639E-01
   169  1.6800000000000E+00 -1.2850001845926E-01  1.6341747924873E-01
   170  1.6900000000000E+00 -1.1946739606964E-01  1.2291830670644E-01
   171  1.7000000000000E+00 -1.1060983336582E-01  8.4898276842729E-02
   172  1.7100000000000E+00 -1.0196621784376E-01  4.9423307034540E-02
   173  1.7200000000000E+00 -9.3572152888610E-02  1.6545321688562E-02
   174  1.7300000000000E+00 -8.5459831657671E-02 -1.3698119984879E-02
   175  1.7400000000000E+00 -7.7657935905992E-02 -4.1284091875039E-02
   176  1.7500000000000E+00 -7.0191560583341E-02 -6.6204461448178E-02
   177  1.7600000000000E+00 -6.3082164824149E-02 -8.8465940560249E-02
   178  1.7700000000000E+00 -5.6347549737666E-02 -1.0809002525764E-01
   179  1.7800000000000E+00 -5.0001863187491E-02 -1.2511282412468E-01
   180  1.7900000000000E+00 -4.4055631528012E-02 -1.3958477565529E-01
   181  1.8000000000000E+00 -3.8515818042512E-02 -1.5157025604863E-01
   182  1.8100000000000E+00 -3.3385907606975E-02 -1.6114707974039E-01
   183  1.8200000000000E+00 -2.8666016884953E-02 -1.6840589588399E-01
   184  1.8300000000000E+00 -2.4353029145513E-02 -1.7344948487478E-01
   185  1.8400000000000E+00 -2.0440752589510E-02 -1.7639195986054E-01
   186  1.8500000000000E+00 -1.6920100871404E-02 -1.7735787899505E-01
   187  1.8600000000000E+00 -1.3779294316015E-02 -1.7648127496080E-01
   188  1.8700000000000E+00 -1.1004080153930E-02 -1.7390460900551E-01
   189  1.8800000000000E+00 -8.5779699370964E-03 -1.6977765739872E-01
   190  1.8900000000000E+00 -6.4824921492055E-03 -1.6425633881216E-01
   191  1.9000000000000E+00 -4.6974578937786E-03 -1.5750149166143E-01
   192  1.9100000000000E+00 -3.2012374323902E-03 -1.4967761089187E-01
   193  1.9200000000000E+00 -1.9710452471405E-03 -1.4095155408561E-01
   194  1.9300000000000E+00 -9.8323122936690E-04 -1.3149122705233E-01
   195  1.9400000000000E+00 -2.1357554051195E-04 -1.2146425928476E-01
   196  1.9500000000000E+00  3.6241534278544E-04 -1.1103667978592E-01
   197  1.9600000000000E+00  7.6921390063928E-04 -1.0037160381662E-01
   198  1.9700000000000E+00  1.0309816950742E-03 -8.9627944089740E-02
   199  1.9800000000000E+00  1.1712739542676E-03 -7.8959119782721E-02
   200  1.9900000000000E+00  1.2128019843434E-03 -6.8511946269185E-02
   201  2.0000000000000E+00  1.1770818101097E-03 -5.8425234722152E-02
   202  2.0100000000000E+00  1.0830941036749E-03 -4.8825476782202E-02
   203  2.0200000000000E+00  9.4798566970939E-04 -3.9828479669429E-02
   204  2.0300000000000E+00  7.8937250406270E-04 -3.1545783397468E-02
   205  2.0400000000000E+00  6.2264729236270E-04 -2.4076682769854E-02
   206  2.0500000000000E+00  4.6090084006639E-04 -1.7507714818201E-02
   207  2.0600000000000E+00  3.1474921143624E-04 -1.1911917165802E-02
   208  2.0700000000000E+00  1.9221277480799E-04 -7.3487973424829E-03
   209  2.0800000000000E+00  9.8565596961537E-05 -3.8617993876096E-03
   210  2.0900000000000E+00  3.6059743244769E-05 -1.4690488202135E-03
   211  2.1000000000000E+00  5.9924926389294E-06 -2.5936677438664E-04
   212  2.1100000000000E+00 -9.2599197323156E-07  4.1513372644601E-05
   213  2.1200000000000E+00  1.0384238690357E-07 -4.4917180810167E-06
   214  2.13  0.  0.
   215  2.14  0.  0.
   216  2.15  0.  0.
   217  2.16  0.  0.
   218  2.17  0.  0.
   219  2.18  0.  0.
   220  2.19  0.  0.
   221  2.20  0.  0.
   222  2.21  0.  0.
   223  2.22  0.  0.
   224  2.23  0.  0.
   225  2.24  0.  0.
   226  2.25  0.  0.
   227  2.26  0.  0.
   228  2.27  0.  0.
   229  2.28  0.  0.
   230  2.29  0.  0.
   231  2.30  0.  0.
   232  2.31  0.  0.
   233  2.32  0.  0.
   234  2.33  0.  0.
   235  2.34  0.  0.
   236  2.35  0.  0.
   237  2.36  0.  0.
   238  2.37  0.  0.
   239  2.38  0.  0.
   240  2.39  0.  0.
   241  2.40  0.  0.
   242  2.41  0.  0.
   243  2.42  0.  0.
   244  2.43  0.  0.
   245  2.44  0.  0.
   246  2.45  0.  0.
   247  2.46  0.  0.
   248  2.47  0.  0.
   249  2.48  0.  0.
   250  2.49  0.  0.
   251  2.50  0.  0.
   252  2.51  0.  0.
   253  2.52  0.  0.
   254  2.53  0.  0.
   255  2.54  0.  0.
   256  2.55  0.  0.
   257  2.56  0.  0.
   258  2.57  0.  0.
   259  2.58  0.  0.
   260  2.59  0.  0.
   261  2.60  0.  0.
   262  2.61  0.  0.
   263  2.62  0.  0.
   264  2.63  0.  0.
   265  2.64  0.  0.
   266  2.65  0.  0.
   267  2.66  0.  0.
   268  2.67  0.  0.
   269  2.68  0.  0.
   270  2.69  0.  0.
   271  2.70  0.  0.
   272  2.71  0.  0.
   273  2.72  0.  0.
   274  2.73  0.  0.
   275  2.74  0.  0.
   276  2.75  0.  0.
   277  2.76  0.  0.
   278  2.77  0.  0.
   279  2.78  0.  0.
   280  2.79  0.  0.
   281  2.80  0.  0.
   282  2.81  0.  0.
   283  2.82  0.  0.
   284  2.83  0.  0.
   285  2.84  0.  0.
   286  2.85  0.  0.
   287  2.86  0.  0.
   288  2.87  0.  0.
   289  2.88  0.  0.
   290  2.89  0.  0.
   291  2.90  0.  0.
   292  2.91  0.  0.
   293  2.92  0.  0.
   294  2.93  0.  0.
   295  2.94  0.  0.
   296  2.95  0.  0.
   297  2.96  0.  0.
   298  2.97  0.  0.
   299  2.98  0.  0.
   300  2.99  0.  0.
   301  3.00  0.  0.
   302  3.01  0.  0.
   303  3.02  0.  0.
   304  3.03  0.  0.
   305  3.04  0.  0.
   306  3.05  0.  0.
   307  3.06  0.  0.
   308  3.07  0.  0.
   309  3.08  0.  0.
   310  3.09  0.  0.
   311  3.10  0.  0.
   312  3.11  0.  0.
   313  3.12  0.  0.
   314  3.13  0.  0.
   315  3.14  0.  0.
   316  3.15  0.  0.
   317  3.16  0.  0.
   318  3.17  0.  0.
   319  3.18  0.  0.
   320  3.19  0.  0.
   321  3.20  0.  0.
   322  3.21  0.  0.
   323  3.22  0.  0.
   324  3.23  0.  0.
   325  3.24  0.  0.
   326  3.25  0.  0.
   327  3.26  0.  0.
   328  3.27  0.  0.
   329  3.28  0.  0.
   330  3.29  0.  0.
   331  3.30  0.  0.
   332  3.31  0.  0.
   333  3.32  0.  0.
   334  3.33  0.  0.
   335  3.34  0.  0.
   336  3.35  0.  0.
   337  3.36  0.  0.
   338  3.37  0.  0.
   339  3.38  0.  0.
   340  3.39  0.  0.
   341  3.40  0.  0.
   342  3.41  0.  0.
   343  3.42  0.  0.
   344  3.43  0.  0.
   345  3.44  0.  0.
   346  3.45  0.  0.
   347  3.46  0.  0.
   348  3.47  0.  0.
   349  3.48  0.  0.
   350  3.49  0.  0.
   351  3.50  0.  0.
   352  3.51  0.  0.
   353  3.52  0.  0.
   354  3.53  0.  0.
   355  3.54  0.  0.
   356  3.55  0.  0.
   357  3.56  0.  0.
   358  3.57  0.  0.
   359  3.58  0.  0.
   360  3.59  0.  0.
   361  3.60  0.  0.
   362  3.61  0.  0.
   363  3.62  0.  0.
   364  3.63  0.  0.
   365  3.64  0.  0.
   366  3.65  0.  0.
   367  3.66  0.  0.
   368  3.67  0.  0.
   369  3.68  0.  0.
   370  3.69  0.  0.
   371  3.70  0.  0.
   372  3.71  0.  0.
   373  3.72  0.  0.
   374  3.73  0.  0.
   375  3.74  0.  0.
   376  3.75  0.  0.
   377  3.76  0.  0.
   378  3.77  0.  0.
   379  3.78  0.  0.
   380  3.79  0.  0.
   381  3.80  0.  0.
   382  3.81  0.  0.
   383  3.82  0.  0.
   384  3.83  0.  0.
   385  3.84  0.  0.
   386  3.85  0.  0.
   387  3.86  0.  0.
   388  3.87  0.  0.
   389  3.88  0.  0.
   390  3.89  0.  0.
   391  3.90  0.  0.
   392  3.91  0.  0.
   393  3.92  0.  0.
   394  3.93  0.  0.
   395  3.94  0.  0.
   396  3.95  0.  0.
   397  3.96  0.  0.
   398  3.97  0.  0.
   399  3.98  0.  0.
   400  3.99  0.  0.
   401  4.00  0.  0.
   402  4.01  0.  0.
   403  4.02  0.  0.
   404  4.03  0.  0.
   405  4.04  0.  0.
   406  4.05  0.  0.
   407  4.06  0.  0.
   408  4.07  0.  0.
   409  4.08  0.  0.
   410  4.09  0.  0.
   411  4.10  0.  0.
   412  4.11  0.  0.
   413  4.12  0.  0.
   414  4.13  0.  0.
   415  4.14  0.  0.
   416  4.15  0.  0.
   417  4.16  0.  0.
   418  4.17  0.  0.
   419  4.18  0.  0.
   420  4.19  0.  0.
   421  4.20  0.  0.
   422  4.21  0.  0.
   423  4.22  0.  0.
   424  4.23  0.  0.
   425  4.24  0.  0.
   426  4.25  0.  0.
   427  4.26  0.  0.
   428  4.27  0.  0.
   429  4.28  0.  0.
   430  4.29  0.  0.
   431  4.30  0.  0.
   432  4.31  0.  0.
   433  4.32  0.  0.
   434  4.33  0.  0.
   435  4.34  0.  0.
   436  4.35  0.  0.
   437  4.36  0.  0.
   438  4.37  0.  0.
   439  4.38  0.  0.
   440  4.39  0.  0.
   441  4.40  0.  0.
   442  4.41  0.  0.
   443  4.42  0.  0.
   444  4.43  0.  0.
   445  4.44  0.  0.
   446  4.45  0.  0.
   447  4.46  0.  0.
   448  4.47  0.  0.
   449  4.48  0.  0.
   450  4.49  0.  0.
   451  4.50  0.  0.
   452  4.51  0.  0.
   453  4.52  0.  0.
   454  4.53  0.  0.
   455  4.54  0.  0.
   456  4.55  0.  0.
   457  4.56  0.  0.
   458  4.57  0.  0.
   459  4.58  0.  0.
   460  4.59  0.  0.
   461  4.60  0.  0.
   462  4.61  0.  0.
   463  4.62  0.  0.
   464  4.63  0.  0.
   465  4.64  0.  0.
   466  4.65  0.  0.
   467  4.66  0.  0.
   468  4.67  0.  0.
   469  4.68  0.  0.
   470  4.69  0.  0.
   471  4.70  0.  0.
   472  4.71  0.  0.
   473  4.72  0.  0.
   474  4.73  0.  0.
   475  4.74  0.  0.
   476  4.75  0.  0.
   477  4.76  0.  0.
   478  4.77  0.  0.
   479  4.78  0.  0.
   480  4.79  0.  0.
   481  4.80  0.  0.
   482  4.81  0.  0.
   483  4.82  0.  0.
   484  4.83  0.  0.
   485  4.84  0.  0.
   486  4.85  0.  0.
   487  4.86  0.  0.
   488  4.87  0.  0.
   489  4.88  0.  0.
   490  4.89  0.  0.
   491  4.90  0.  0.
   492  4.91  0.  0.
   493  4.92  0.  0.
   494  4.93  0.  0.
   495  4.94  0.  0.
   496  4.95  0.  0.
   497  4.96  0.  0.
   498  4.97  0.  0.
   499  4.98  0.  0.
   500  4.99  0.  0.
   501  5.00  0.  0.
   502  5.01  0.  0.
   503  5.02  0.  0.
   504  5.03  0.  0.
   505  5.04  0.  0.
   506  5.05  0.  0.
   507  5.06  0.  0.
   508  5.07  0.  0.
   509  5.08  0.  0.
   510  5.09  0.  0.
   511  5.10  0.  0.
   512  5.11  0.  0.
   513  5.12  0.  0.
   514  5.13  0.  0.
   515  5.14  0.  0.
   516  5.15  0.  0.
   517  5.16  0.  0.
   518  5.17  0.  0.
   519  5.18  0.  0.
   520  5.19  0.  0.
   521  5.20  0.  0.
   522  5.21  0.  0.
   523  5.22  0.  0.
   524  5.23  0.  0.
   525  5.24  0.  0.
   526  5.25  0.  0.
   527  5.26  0.  0.
   528  5.27  0.  0.
   529  5.28  0.  0.
   530  5.29  0.  0.
   531  5.30  0.  0.
   532  5.31  0.  0.
   533  5.32  0.  0.
   534  5.33  0.  0.
   535  5.34  0.  0.
   536  5.35  0.  0.
   537  5.36  0.  0.
   538  5.37  0.  0.
   539  5.38  0.  0.
   540  5.39  0.  0.
   541  5.40  0.  0.
   542  5.41  0.  0.
   543  5.42  0.  0.
   544  5.43  0.  0.
   545  5.44  0.  0.
   546  5.45  0.  0.
   547  5.46  0.  0.
   548  5.47  0.  0.
   549  5.48  0.  0.
   550  5.49  0.  0.
   551  5.50  0.  0.
   552  5.51  0.  0.
   553  5.52  0.  0.
   554  5.53  0.  0.
   555  5.54  0.  0.
   556  5.55  0.  0.
   557  5.56  0.  0.
   558  5.57  0.  0.
   559  5.58  0.  0.
   560  5.59  0.  0.
   561  5.60  0.  0.
   562  5.61  0.  0.
   563  5.62  0.  0.
   564  5.63  0.  0.
   565  5.64  0.  0.
   566  5.65  0.  0.
   567  5.66  0.  0.
   568  5.67  0.  0.
   569  5.68  0.  0.
   570  5.69  0.  0.
   571  5.70  0.  0.
   572  5.71  0.  0.
   573  5.72  0.  0.
   574  5.73  0.  0.
   575  5.74  0.  0.
   576  5.75  0.  0.
   577  5.76  0.  0.
   578  5.77  0.  0.
   579  5.78  0.  0.
   580  5.79  0.  0.
   581  5.80  0.  0.
   582  5.81  0.  0.
   583  5.82  0.  0.
   584  5.83  0.  0.
   585  5.84  0.  0.
   586  5.85  0.  0.
   587  5.86  0.  0.
   588  5.87  0.  0.
   589  5.88  0.  0.
   590  5.89  0.  0.
   591  5.90  0.  0.
   592  5.91  0.  0.
   593  5.92  0.  0.
   594  5.93  0.  0.
   595  5.94  0.  0.
   596  5.95  0.  0.
   597  5.96  0.  0.
   598  5.97  0.  0.
   599  5.98  0.  0.
   600  5.99  0.  0.
   1                         6.1835568027514E+00  9.4628528823211E-01  4.8826039928928E-02
     1  0.0000000000000E+00  1.6705292565922E-08 -3.6314123499914E-08  2.9601953333014E-08
     2  1.0000000000000E-02  1.5260844355542E-03 -1.9694516078821E-03  9.1055695326061E-04
     3  2.0000000000000E-02  6.0804427536565E-03 -7.8284999927857E-03  3.6040396852706E-03
     4  3.0000000000000E-02  1.3591879251529E-02 -1.7430281892487E-02  7.9667433433396E-03
     5  4.0000000000000E-02  2.3943355444692E-02 -3.0533523940389E-02  1.3812007480111E-02
     6  5.0000000000000E-02  3.6974387293033E-02 -4.6807716141711E-02  2.0884426739979E-02
     7  6.0000000000000E-02  5.2484333398252E-02 -6.5840206987667E-02  2.8865625490917E-02
     8  7.0000000000000E-02  7.0236507848655E-02 -8.7145075941007E-02  3.7381478895206E-02
     9  8.0000000000000E-02  8.9963034681993E-02 -1.1017360271217E-01  4.6010633310590E-02
    10  9.0000000000000E-02  1.1137034585609E-01 -1.3432611998044E-01  5.4294152186964E-02
    11  1.0000000000000E-01  1.3414521145719E-01 -1.5896500764698E-01  6.1746090296642E-02
    12  1.1000000000000E-01  1.5796117989741E-01 -1.8342856290349E-01  6.7864779670931E-02
    13  1.2000000000000E-01  1.8248529727361E-01 -2.0704546183870E-01  7.2144595398769E-02
    14  1.3000000000000E-01  2.0738496905373E-01 -2.2914951535940E-01  7.4087958780524E-02
    15  1.4000000000000E-01  2.3233482394537E-01 -2.4909441514224E-01  7.3217329442441E-02
    16  1.5000000000000E-01  2.5702343925835E-01 -2.6626816431054E-01  6.9086937031300E-02
    17  1.6000000000000E-01  2.8115978931506E-01 -2.8010689258591E-01  6.1294007059949E-02
    18  1.7000000000000E-01  3.0447928345591E-01 -2.9010776671689E-01  4.9489244301073E-02
    19  1.8000000000000E-01  3.2674926784314E-01 -2.9584072384138E-01  3.3386350675265E-02
    20  1.9000000000000E-01  3.4777387544456E-01 -2.9695877778748E-01  1.2770372603229E-02
    21  2.0000000000000E-01  3.6739812109186E-01 -2.9320667574132E-01 -1.2495305040732E-02
    22  2.1000000000000E-01  3.8551115311955E-01 -2.8442771469678E-01 -4.2463475340301E-02
    23  2.2000000000000E-01  4.0204858952638E-01 -2.7056856304252E-01 -7.7099263940687E-02
    24  2.3000000000000E-01  4.1699388454741E-01 -2.5168197185265E-01 -1.1627801784023E-01
    25  2.4000000000000E-01  4.3037869064082E-01 -2.2792730217675E-01 -1.5978499044867E-01
    26  2.5000000000000E-01  4.4228220081078E-01 -1.9956883806917E-01 -2.0731684963548E-01
    27  2.6000000000000E-01  4.5282947652419E-01 -1.6697189941632E-01 -2.5848499937650E-01
    28  2.7000000000000E-01  4.6218878683951E-01 -1.3059681295135E-01 -3.1282066943016E-01
    29  2.8000000000000E-01  4.7056800435554E-01 -9.0990843322642E-02 -3.6978169193625E-01
    30  2.9000000000000E-01  4.7821012281433E-01 -4.8778227849781E-02 -4.2876084962516E-01
    31  3.0000000000000E-01  4.8538797927807E-01 -4.6484978321670E-03 -4.8909564812402E-01
    32  3.1000000000000E-01  4.9239828038474E-01  4.0656694812196E-02 -5.5007933528720E-01
    33  3.2000000000000E-01  4.9955504694043E-01  8.6357994930225E-02 -6.1097296415099E-01
    34  3.3000000000000E-01  5.0718260372780E-01  1.3165372771477E-01 -6.7101827354923E-01
    35  3.4000000000000E-01  5.1560825164086E-01  1.7573594873743E-01 -7.2945114209181E-01
    36  3.5000000000000E-01  5.2515476687972E-01  2.1780684448956E-01 -7.8551535748633E-01
    37  3.6000000000000E-01  5.3613287678952E-01  2.5709515737158E-01 -8.3847643437563E-01
    38  3.7000000000000E-01  5.4883386388867E-01  2.9287230528128E-01 -8.8763521017839E-01
    39  3.8000000000000E-01  5.6352244864424E-01  3.2446786861283E-01 -9.3234094996722E-01
    40  3.9000000000000E-01  5.8043009761182E-01  3.5128412659139E-01 -9.7200369821285E-01
    41  4.0000000000000E-01  5.9974889671589E-01  3.7280934030990E-01 -1.0061056271747E+00
    42  4.1000000000000E-01  6.2162611981377E-01  3.8862950135904E-01 -1.0342111486407E+00
    43  4.2000000000000E-01  6.4615961042380E-01  3.9843829218368E-01 -1.0559755773315E+00
    44  4.3000000000000E-01  6.7339407982128E-01  4.0204503678082E-01 -1.0711521602052E+00
    45  4.4000000000000E-01  7.0331840787648E-01  3.9938045749322E-01 -1.0795973156762E+00
    46  4.5000000000000E-01  7.3586401433300E-01  3.9050009477179E-01 -1.0812739598520E+00
    47  4.6000000000000E-01  7.7090434804604E-01  3.7558529111932E-01 -1.0762528326865E+00
    48  4.7000000000000E-01  8.0825552039379E-01  3.5494168716043E-01 -1.0647117748000E+00
    49  4.8000000000000E-01  8.4767808704091E-01  3.2899522602596E-01 -1.0469329448932E+00
    50  4.9000000000000E-01  8.8887995988867E-01  2.9828571107729E-01 -1.0232980074744E+00
    51  5.0000000000000E-01  9.3152040881843E-01  2.6345801048798E-01 -9.9428136024299E-01
    52  5.1000000000000E-01  9.7521509115204E-01  2.2525104940845E-01 -9.6044150919049E-01
    53  5.2000000000000E-01  1.0195420260369E+00  1.8448477543784E-01 -9.2241073652221E-01
    54  5.3000000000000E-01  1.0640484116205E+00  1.4204532502761E-01 -8.8088324116095E-01
    55  5.4000000000000E-01  1.1082581652972E+00  9.8868656402013E-02 -8.3660196316978E-01
    56  5.5000000000000E-01  1.1516800518370E+00  5.5922947830047E-02 -7.9034433129637E-01
    57  5.6000000000000E-01  1.1938162511699E+00  1.4190087932142E-02 -7.4290719642436E-01
    58  5.7000000000000E-01  1.2341712072611E+00 -2.5353393441249E-02 -6.9509123252480E-01
    59  5.8000000000000E-01  1.2722605921117E+00 -6.1755589846374E-02 -6.4768510032452E-01
    60  5.9000000000000E-01  1.3076202146139E+00 -9.4108305954071E-02 -6.0144967703587E-01
    61  6.0000000000000E-01  1.3398147029051E+00 -1.2156559443536E-01 -5.5710265791027E-01
    62  6.1000000000000E-01  1.3684457910465E+00 -1.4336137386939E-01 -5.1530383198236E-01
    63  6.2000000000000E-01  1.3931600462975E+00 -1.5882577241317E-01 -4.7664132516400E-01
    64  6.3000000000000E-01  1.4136558818933E+00 -1.6739986185526E-01 -4.4161908894292E-01
    65  6.4000000000000E-01  1.4296897119296E+00 -1.6864847324388E-01 -4.1064589256205E-01
    66  6.5000000000000E-01  1.4410811195245E+00 -1.6227081809938E-01 -3.8402605103040E-01
    67  6.6000000000000E-01  1.4477169266150E+00 -1.4810867773398E-01 -3.6195209107626E-01
    68  6.7000000000000E-01  1.4495540732556E+00 -1.2615196673508E-01 -3.4449952272020E-01
    69  6.8000000000000E-01  1.4466212357722E+00 -9.6541524450321E-02 -3.3162384612676E-01
    70  6.9000000000000E-01  1.4390191361944E+00 -5.9569039472065E-02 -3.2315988247435E-01