Ge    ONCVPSP-4.0.1  r_core=   1.90839   1.80836   1.90839
     32.0000     14.0000      250217    zatom,zion,pspd
     8       2   2     4   600     0    pspcod,pspxc,lmax,lloc,mmax,r2well
  5.99000000  5.00000000  0.00000000    rchrg fchrg qchrg
     2     3     2     0    nproj
     3     1           extension_switch
     4     3     0    nprojso
   0                         6.1467900907331E+00  5.6349430293748E-01
     1  0.0000000000000E+00 -3.3858804648901E-11  9.0547777609196E-11
     2  1.0000000000000E-02  3.0464377630880E-02 -9.5151886149736E-03
     3  2.0000000000000E-02  6.0904032510340E-02 -1.9008309155708E-02
     4  3.0000000000000E-02  9.1294348970850E-02 -2.8457498997229E-02
     5  4.0000000000000E-02  1.2161092451935E-01 -3.7841304014661E-02
     6  5.0000000000000E-02  1.5182967394982E-01 -4.7138876860336E-02
     7  6.0000000000000E-02  1.8192693051042E-01 -5.6330168137926E-02
     8  7.0000000000000E-02  2.1187954318319E-01 -6.5396108212893E-02
     9  8.0000000000000E-02  2.4166496916856E-01 -7.4318777489131E-02
    10  9.0000000000000E-02  2.7126136070813E-01 -8.3081563093251E-02
    11  1.0000000000000E-01  3.0064764542913E-01 -9.1669300039899E-02
    12  1.1000000000000E-01  3.2980359945031E-01 -1.0006839510234E-01
    13  1.2000000000000E-01  3.5870991255231E-01 -1.0826693178120E-01
    14  1.3000000000000E-01  3.8734824478537E-01 -1.1625475494924E-01
    15  1.4000000000000E-01  4.1570127396241E-01 -1.2402353394961E-01
    16  1.5000000000000E-01  4.4375273356590E-01 -1.3156680313735E-01
    17  1.6000000000000E-01  4.7148744068164E-01 -1.3887997907811E-01
    18  1.7000000000000E-01  4.9889131366116E-01 -1.4596035384997E-01
    19  1.8000000000000E-01  5.2595137930594E-01 -1.5280706413486E-01
    20  1.9000000000000E-01  5.5265576946030E-01 -1.5942103603023E-01
    21  2.0000000000000E-01  5.7899370699523E-01 -1.6580490575975E-01
    22  2.1000000000000E-01  6.0495548126125E-01 -1.7196291670944E-01
    23  2.2000000000000E-01  6.3053241318429E-01 -1.7790079346282E-01
    24  2.3000000000000E-01  6.5571681027364E-01 -1.8362559375090E-01
    25  2.4000000000000E-01  6.8050191190427E-01 -1.8914553946991E-01
    26  2.5000000000000E-01  7.0488182532673E-01 -1.9446982814811E-01
    27  2.6000000000000E-01  7.2885145294565E-01 -1.9960842646126E-01
    28  2.7000000000000E-01  7.5240641149133E-01 -2.0457184760255E-01
    29  2.8000000000000E-01  7.7554294378817E-01 -2.0937091450428E-01
    30  2.9000000000000E-01  7.9825782389760E-01 -2.1401651108459E-01
    31  3.0000000000000E-01  8.2054825648045E-01 -2.1851932385036E-01
    32  3.1000000000000E-01  8.4241177128552E-01 -2.2288957632621E-01
    33  3.2000000000000E-01  8.6384611372467E-01 -2.2713675889724E-01
    34  3.3000000000000E-01  8.8484913254157E-01 -2.3126935674958E-01
    35  3.4000000000000E-01  9.0541866561972E-01 -2.3529457866540E-01
    36  3.5000000000000E-01  9.2555242500517E-01 -2.3921808947816E-01
    37  3.6000000000000E-01  9.4524788224090E-01 -2.4304374901867E-01
    38  3.7000000000000E-01  9.6450215512237E-01 -2.4677336038125E-01
    39  3.8000000000000E-01  9.8331189698659E-01 -2.5040643031406E-01
    40  3.9000000000000E-01  1.0016731896417E+00 -2.5393994448570E-01
    41  4.0000000000000E-01  1.0195814410286E+00 -2.5736816030343E-01
    42  4.1000000000000E-01  1.0370312886813E+00 -2.6068241985739E-01
    43  4.2000000000000E-01  1.0540165100206E+00 -2.6387098543819E-01
    44  4.3000000000000E-01  1.0705299404726E+00 -2.6691889992684E-01
    45  4.4000000000000E-01  1.0865634003513E+00 -2.6980787418271E-01
    46  4.5000000000000E-01  1.1021076313884E+00 -2.7251620336253E-01
    47  4.6000000000000E-01  1.1171522437244E+00 -2.7501871388947E-01
    48  4.7000000000000E-01  1.1316856740996E+00 -2.7728674255942E-01
    49  4.8000000000000E-01  1.1456951559062E+00 -2.7928814902278E-01
    50  4.9000000000000E-01  1.1591667016698E+00 -2.8098736261641E-01
    51  5.0000000000000E-01  1.1720850984403E+00 -2.8234546424414E-01
    52  5.1000000000000E-01  1.1844339164716E+00 -2.8332030371665E-01
    53  5.2000000000000E-01  1.1961955314662E+00 -2.8386665266664E-01
    54  5.3000000000000E-01  1.2073511605573E+00 -2.8393639285283E-01
    55  5.4000000000000E-01  1.2178809120918E+00 -2.8347873936181E-01
    56  5.5000000000000E-01  1.2277638491656E+00 -2.8244049790967E-01
    57  5.6000000000000E-01  1.2369780667533E+00 -2.8076635514117E-01
    58  5.7000000000000E-01  1.2455007821633E+00 -2.7839920052239E-01
    59  5.8000000000000E-01  1.2533084384360E+00 -2.7528047812871E-01
    60  5.9000000000000E-01  1.2603768201978E+00 -2.7135056634412E-01
    61  6.0000000000000E-01  1.2666811813734E+00 -2.6654918321393E-01
    62  6.1000000000000E-01  1.2721963840588E+00 -2.6081581493238E-01
    63  6.2000000000000E-01  1.2768970477562E+00 -2.5409016470274E-01
    64  6.3000000000000E-01  1.2807577080809E+00 -2.4631261898161E-01
    65  6.4000000000000E-01  1.2837529839582E+00 -2.3742472791381E-01
    66  6.5000000000000E-01  1.2858577522519E+00 -2.2736969658124E-01
    67  6.6000000000000E-01  1.2870473286860E+00 -2.1609288353075E-01
    68  6.7000000000000E-01  1.2872976538600E+00 -2.0354230291226E-01
    69  6.8000000000000E-01  1.2865854830950E+00 -1.8966912645343E-01
    70  6.9000000000000E-01  1.2848885788029E+00 -1.7442818141914E-01
    71  7.0000000000000E-01  1.2821859040283E+00 -1.5777844065645E-01
    72  7.1000000000000E-01  1.2784578157833E+00 -1.3968350080719E-01
    73  7.2000000000000E-01  1.2736862567759E+00 -1.2011204478397E-01
    74  7.3000000000000E-01  1.2678549441218E+00 -9.9038284648258E-02
    75  7.4000000000000E-01  1.2609495536319E+00 -7.6442381104412E-02
    76  7.5000000000000E-01  1.2529578982765E+00 -5.2310835929034E-02
    77  7.6000000000000E-01  1.2438700994506E+00 -2.6636853790637E-02
    78  7.7000000000000E-01  1.2336787496969E+00  5.7932991967792E-04
    79  7.8000000000000E-01  1.2223790655844E+00  2.9330158431760E-02
    80  7.9000000000000E-01  1.2099690294937E+00  5.9600503077572E-02
    81  8.0000000000000E-01  1.1964495191223E+00  9.1367455626257E-02
    82  8.1000000000000E-01  1.1818244235936E+00  1.2460016591607E-01
    83  8.2000000000000E-01  1.1661007451351E+00  1.5925972693266E-01
    84  8.3000000000000E-01  1.1492886853774E+00  1.9529910916726E-01
    85  8.4000000000000E-01  1.1314017154250E+00  2.3266314575468E-01
    86  8.5000000000000E-01  1.1124566289495E+00  2.7128856954244E-01
    87  8.6000000000000E-01  1.0924735776670E+00  3.1110410287873E-01
    88  8.7000000000000E-01  1.0714760886763E+00  3.5203060053408E-01
    89  8.8000000000000E-01  1.0494910632534E+00  3.9398124579081E-01
    90  8.9000000000000E-01  1.0265487568207E+00  4.3686179934720E-01
    91  9.0000000000000E-01  1.0026827399357E+00  4.8057090029693E-01
    92  9.1000000000000E-01  9.7792984027171E-01  5.2500041805558E-01
    93  9.2000000000000E-01  9.5233006569240E-01  5.7003585372407E-01
    94  9.3000000000000E-01  9.2592650864994E-01  6.1555678900305E-01
    95  9.4000000000000E-01  8.9876523226543E-01  6.6143738040549E-01
    96  9.5000000000000E-01  8.7089513857578E-01  7.0754689616260E-01
    97  9.6000000000000E-01  8.4236781955451E-01  7.5375029288079E-01
    98  9.7000000000000E-01  8.1323739163357E-01  7.9990882868829E-01
    99  9.8000000000000E-01  7.8356031456775E-01  8.4588070931362E-01
   100  9.9000000000000E-01  7.5339519559255E-01  8.9152176326332E-01
   101  1.0000000000000E+00  7.2280257992937E-01  9.3668614201908E-01
   102  1.0100000000000E+00  6.9184472878734E-01  9.8122704095470E-01
   103  1.0200000000000E+00  6.6058538609900E-01  1.0249974364833E+00
   104  1.0300000000000E+00  6.2908953530643E-01  1.0678508347876E+00
   105  1.0400000000000E+00  5.9742314758438E-01  1.1096420273602E+00
   106  1.0500000000000E+00  5.6565292294748E-01  1.1502278484925E+00
   107  1.0600000000000E+00  5.3384602573905E-01  1.1894679297924E+00
   108  1.0700000000000E+00  5.0206981603847E-01  1.2272254467951E+00
   109  1.0800000000000E+00  4.7039157855368E-01  1.2633678527459E+00
   110  1.0900000000000E+00  4.3887825058256E-01  1.2977675946880E+00
   111  1.1000000000000E+00  4.0759615063448E-01  1.3303028070800E+00
   112  1.1100000000000E+00  3.7661070929856E-01  1.3608579782895E+00
   113  1.1200000000000E+00  3.4598620392947E-01  1.3893245854744E+00
   114  1.1300000000000E+00  3.1578549869566E-01  1.4156016935537E+00
   115  1.1400000000000E+00  2.8606979149653E-01  1.4395965142008E+00
   116  1.1500000000000E+00  2.5689836920844E-01  1.4612249210467E+00
   117  1.1600000000000E+00  2.2832837266015E-01  1.4804119175718E+00
   118  1.1700000000000E+00  2.0041457267167E-01  1.4970920544761E+00
   119  1.1800000000000E+00  1.7320915841299E-01  1.5112097936600E+00
   120  1.1900000000000E+00  1.4676153925429E-01  1.5227198163081E+00
   121  1.2000000000000E+00  1.2111816118588E-01  1.5315872729492E+00
   122  1.2100000000000E+00  9.6322338785797E-02  1.5377879737657E+00
   123  1.2200000000000E+00  7.2414103606706E-02  1.5413085178356E+00
   124  1.2300000000000E+00  4.9430069741259E-02  1.5421463604136E+00
   125  1.2400000000000E+00  2.7403317208823E-02  1.5403098177863E+00
   126  1.2500000000000E+00  6.3632936858499E-03  1.5358180096711E+00
   127  1.2600000000000E+00 -1.3664265021018E-02  1.5287007395634E+00
   128  1.2700000000000E+00 -3.2657395484549E-02  1.5189983138647E+00
   129  1.2800000000000E+00 -5.0597948000815E-02  1.5067613010530E+00
   130  1.2900000000000E+00 -6.7471608744574E-02  1.4920502325724E+00
   131  1.3000000000000E+00 -8.3267902837492E-02  1.4749352475193E+00
   132  1.3100000000000E+00 -9.7980178553312E-02  1.4554956835922E+00
   133  1.3200000000000E+00 -1.1160557300373E-01  1.4338196171417E+00
   134  1.3300000000000E+00 -1.2414495976374E-01  1.4100033554985E+00
   135  1.3400000000000E+00 -1.3560287900661E-01  1.3841508850865E+00
   136  1.3500000000000E+00 -1.4598745082373E-01  1.3563732791158E+00
   137  1.3600000000000E+00 -1.5531027250322E-01  1.3267880689218E+00
   138  1.3700000000000E+00 -1.6358630063363E-01  1.2955185832461E+00
   139  1.3800000000000E+00 -1.7083371898234E-01  1.2626932599570E+00
   140  1.3900000000000E+00 -1.7707379317503E-01  1.2284449348751E+00
   141  1.4000000000000E+00 -1.8233071326871E-01  1.1929101124930E+00
   142  1.4100000000000E+00 -1.8663142536925E-01  1.1562282234777E+00
   143  1.4200000000000E+00 -1.9000545349181E-01  1.1185408738917E+00
   144  1.4300000000000E+00 -1.9248471290132E-01  1.0799910910880E+00
   145  1.4400000000000E+00 -1.9410331619800E-01  1.0407225712116E+00
   146  1.4500000000000E+00 -1.9489737343090E-01  1.0008789331773E+00
   147  1.4600000000000E+00 -1.9490478753005E-01  9.6060298389651E-01
   148  1.4700000000000E+00 -1.9416504634557E-01  9.2003599939059E-01
   149  1.4800000000000E+00 -1.9271901256969E-01  8.7931702625682E-01
   150  1.4900000000000E+00 -1.9060871279504E-01  8.3858220774796E-01
   151  1.5000000000000E+00 -1.8787712693146E-01  7.9796413848947E-01
   152  1.5100000000000E+00 -1.8456797916269E-01  7.5759125159068E-01
   153  1.5200000000000E+00 -1.8072553157495E-01  7.1758724160964E-01
   154  1.5300000000000E+00 -1.7639438153242E-01  6.7807052651032E-01
   155  1.5400000000000E+00 -1.7161926380970E-01  6.3915375140628E-01
   156  1.5500000000000E+00 -1.6644485842008E-01  6.0094333652021E-01
   157  1.5600000000000E+00 -1.6091560500082E-01  5.6353907140753E-01
   158  1.5700000000000E+00 -1.5507552453395E-01  5.2703375709632E-01
   159  1.5800000000000E+00 -1.4896804909388E-01  4.9151289739113E-01
   160  1.5900000000000E+00 -1.4263586022222E-01  4.5705444017428E-01
   161  1.6000000000000E+00 -1.3612073643667E-01  4.2372856912320E-01
   162  1.6100000000000E+00 -1.2946341028525E-01  3.9159754584477E-01
   163  1.6200000000000E+00 -1.2270343526072E-01  3.6071560201540E-01
   164  1.6300000000000E+00 -1.1587906279340E-01  3.3112888070900E-01
   165  1.6400000000000E+00 -1.0902712944497E-01  3.0287542569964E-01
   166  1.6500000000000E+00 -1.0218295433141E-01  2.7598521714250E-01
   167  1.6600000000000E+00 -9.5380246711725E-02  2.5048025167203E-01
   168  1.6700000000000E+00 -8.8651023591121E-02  2.2637466461047E-01
   169  1.6800000000000E+00 -8.2025537102493E-02  2.0367489165613E-01
   170  1.6900000000000E+00 -7.5532211351252E-02  1.8237986712404E-01
   171  1.7000000000000E+00 -6.9197588334599E-02  1.6248125554175E-01
   172  1.7100000000000E+00 -6.3046282478561E-02  1.4396371316281E-01
   173  1.7200000000000E+00 -5.7100943275449E-02  1.2680517575369E-01
   174  1.7300000000000E+00 -5.1382225401848E-02  1.1097716850653E-01
   175  1.7400000000000E+00 -4.5908765719973E-02  9.6445134321669E-02
   176  1.7500000000000E+00 -4.0697169123879E-02  8.3168793570253E-02
   177  1.7600000000000E+00 -3.5761987427533E-02  7.1102430507127E-02
   178  1.7700000000000E+00 -3.1115821057985E-02  6.0195977282816E-02
   179  1.7800000000000E+00 -2.6769554827903E-02  5.0396925834649E-02
   180  1.7900000000000E+00 -2.2732535150778E-02  4.1651633872488E-02
   181  1.8000000000000E+00 -1.9012539482075E-02  3.3905525029259E-02
   182  1.8100000000000E+00 -1.5615876430687E-02  2.7103733506716E-02
   183  1.8200000000000E+00 -1.2549756994980E-02  2.1198878893437E-02
   184  1.8300000000000E+00 -9.8231202539314E-03  1.6153916447557E-02
   185  1.8400000000000E+00 -7.4364789674044E-03  1.1910353632295E-02
   186  1.8500000000000E+00 -5.3886068236577E-03  8.4096504804100E-03
   187  1.8600000000000E+00 -3.6770456886773E-03  5.5950139104289E-03
   188  1.8700000000000E+00 -2.2982093939887E-03  3.4118939358080E-03
   189  1.8800000000000E+00 -1.2479231388277E-03  1.8090209266367E-03
   190  1.8900000000000E+00 -5.1692394509544E-04  7.3265103023537E-04
   191  1.9000000000000E+00 -1.1256338674235E-04  1.5614148633707E-04
   192  1.9100000000000E+00  6.0354047660484E-06 -8.0166290985936E-06
   193  1.9200000000000E+00 -1.7587211687639E-07  2.3957276889048E-07
   194  1.93  0.  0.
   195  1.94  0.  0.
   196  1.95  0.  0.
   197  1.96  0.  0.
   198  1.97  0.  0.
   199  1.98  0.  0.
   200  1.99  0.  0.
   201  2.00  0.  0.
   202  2.01  0.  0.
   203  2.02  0.  0.
   204  2.03  0.  0.
   205  2.04  0.  0.
   206  2.05  0.  0.
   207  2.06  0.  0.
   208  2.07  0.  0.
   209  2.08  0.  0.
   210  2.09  0.  0.
   211  2.10  0.  0.
   212  2.11  0.  0.
   213  2.12  0.  0.
   214  2.13  0.  0.
   215  2.14  0.  0.
   216  2.15  0.  0.
   217  2.16  0.  0.
   218  2.17  0.  0.
   219  2.18  0.  0.
   220  2.19  0.  0.
   221  2.20  0.  0.
   222  2.21  0.  0.
   223  2.22  0.  0.
   224  2.23  0.  0.
   225  2.24  0.  0.
   226  2.25  0.  0.
   227  2.26  0.  0.
   228  2.27  0.  0.
   229  2.28  0.  0.
   230  2.29  0.  0.
   231  2.30  0.  0.
   232  2.31  0.  0.
   233  2.32  0.  0.
   234  2.33  0.  0.
   235  2.34  0.  0.
   236  2.35  0.  0.
   237  2.36  0.  0.
   238  2.37  0.  0.
   239  2.38  0.  0.
   240  2.39  0.  0.
   241  2.40  0.  0.
   242  2.41  0.  0.
   243  2.42  0.  0.
   244  2.43  0.  0.
   245  2.44  0.  0.
   246  2.45  0.  0.
   247  2.46  0.  0.
   248  2.47  0.  0.
   249  2.48  0.  0.
   250  2.49  0.  0.
   251  2.50  0.  0.
   252  2.51  0.  0.
   253  2.52  0.  0.
   254  2.53  0.  0.
   255  2.54  0.  0.
   256  2.55  0.  0.
   257  2.56  0.  0.
   258  2.57  0.  0.
   259  2.58  0.  0.
   260  2.59  0.  0.
   261  2.60  0.  0.
   262  2.61  0.  0.
   263  2.62  0.  0.
   264  2.63  0.  0.
   265  2.64  0.  0.
   266  2.65  0.  0.
   267  2.66  0.  0.
   268  2.67  0.  0.
   269  2.68  0.  0.
   270  2.69  0.  0.
   271  2.70  0.  0.
   272  2.71  0.  0.
   273  2.72  0.  0.
   274  2.73  0.  0.
   275  2.74  0.  0.
   276  2.75  0.  0.
   277  2.76  0.  0.
   278  2.77  0.  0.
   279  2.78  0.  0.
   280  2.79  0.  0.
   281  2.80  0.  0.
   282  2.81  0.  0.
   283  2.82  0.  0.
   284  2.83  0.  0.
   285  2.84  0.  0.
   286  2.85  0.  0.
   287  2.86  0.  0.
   288  2.87  0.  0.
   289  2.88  0.  0.
   290  2.89  0.  0.
   291  2.90  0.  0.
   292  2.91  0.  0.
   293  2.92  0.  0.
   294  2.93  0.  0.
   295  2.94  0.  0.
   296  2.95  0.  0.
   297  2.96  0.  0.
   298  2.97  0.  0.
   299  2.98  0.  0.
   300  2.99  0.  0.
   301  3.00  0.  0.
   302  3.01  0.  0.
   303  3.02  0.  0.
   304  3.03  0.  0.
   305  3.04  0.  0.
   306  3.05  0.  0.
   307  3.06  0.  0.
   308  3.07  0.  0.
   309  3.08  0.  0.
   310  3.09  0.  0.
   311  3.10  0.  0.
   312  3.11  0.  0.
   313  3.12  0.  0.
   314  3.13  0.  0.
   315  3.14  0.  0.
   316  3.15  0.  0.
   317  3.16  0.  0.
   318  3.17  0.  0.
   319  3.18  0.  0.
   320  3.19  0.  0.
   321  3.20  0.  0.
   322  3.21  0.  0.
   323  3.22  0.  0.
   324  3.23  0.  0.
   325  3.24  0.  0.
   326  3.25  0.  0.
   327  3.26  0.  0.
   328  3.27  0.  0.
   329  3.28  0.  0.
   330  3.29  0.  0.
   331  3.30  0.  0.
   332  3.31  0.  0.
   333  3.32  0.  0.
   334  3.33  0.  0.
   335  3.34  0.  0.
   336  3.35  0.  0.
   337  3.36  0.  0.
   338  3.37  0.  0.
   339  3.38  0.  0.
   340  3.39  0.  0.
   341  3.40  0.  0.
   342  3.41  0.  0.
   343  3.42  0.  0.
   344  3.43  0.  0.
   345  3.44  0.  0.
   346  3.45  0.  0.
   347  3.46  0.  0.
   348  3.47  0.  0.
   349  3.48  0.  0.
   350  3.49  0.  0.
   351  3.50  0.  0.
   352  3.51  0.  0.
   353  3.52  0.  0.
   354  3.53  0.  0.
   355  3.54  0.  0.
   356  3.55  0.  0.
   357  3.56  0.  0.
   358  3.57  0.  0.
   359  3.58  0.  0.
   360  3.59  0.  0.
   361  3.60  0.  0.
   362  3.61  0.  0.
   363  3.62  0.  0.
   364  3.63  0.  0.
   365  3.64  0.  0.
   366  3.65  0.  0.
   367  3.66  0.  0.
   368  3.67  0.  0.
   369  3.68  0.  0.
   370  3.69  0.  0.
   371  3.70  0.  0.
   372  3.71  0.  0.
   373  3.72  0.  0.
   374  3.73  0.  0.
   375  3.74  0.  0.
   376  3.75  0.  0.
   377  3.76  0.  0.
   378  3.77  0.  0.
   379  3.78  0.  0.
   380  3.79  0.  0.
   381  3.80  0.  0.
   382  3.81  0.  0.
   383  3.82  0.  0.
   384  3.83  0.  0.
   385  3.84  0.  0.
   386  3.85  0.  0.
   387  3.86  0.  0.
   388  3.87  0.  0.
   389  3.88  0.  0.
   390  3.89  0.  0.
   391  3.90  0.  0.
   392  3.91  0.  0.
   393  3.92  0.  0.
   394  3.93  0.  0.
   395  3.94  0.  0.
   396  3.95  0.  0.
   397  3.96  0.  0.
   398  3.97  0.  0.
   399  3.98  0.  0.
   400  3.99  0.  0.
   401  4.00  0.  0.
   402  4.01  0.  0.
   403  4.02  0.  0.
   404  4.03  0.  0.
   405  4.04  0.  0.
   406  4.05  0.  0.
   407  4.06  0.  0.
   408  4.07  0.  0.
   409  4.08  0.  0.
   410  4.09  0.  0.
   411  4.10  0.  0.
   412  4.11  0.  0.
   413  4.12  0.  0.
   414  4.13  0.  0.
   415  4.14  0.  0.
   416  4.15  0.  0.
   417  4.16  0.  0.
   418  4.17  0.  0.
   419  4.18  0.  0.
   420  4.19  0.  0.
   421  4.20  0.  0.
   422  4.21  0.  0.
   423  4.22  0.  0.
   424  4.23  0.  0.
   425  4.24  0.  0.
   426  4.25  0.  0.
   427  4.26  0.  0.
   428  4.27  0.  0.
   429  4.28  0.  0.
   430  4.29  0.  0.
   431  4.30  0.  0.
   432  4.31  0.  0.
   433  4.32  0.  0.
   434  4.33  0.  0.
   435  4.34  0.  0.
   436  4.35  0.  0.
   437  4.36  0.  0.
   438  4.37  0.  0.
   439  4.38  0.  0.
   440  4.39  0.  0.
   441  4.40  0.  0.
   442  4.41  0.  0.
   443  4.42  0.  0.
   444  4.43  0.  0.
   445  4.44  0.  0.
   446  4.45  0.  0.
   447  4.46  0.  0.
   448  4.47  0.  0.
   449  4.48  0.  0.
   450  4.49  0.  0.
   451  4.50  0.  0.
   452  4.51  0.  0.
   453  4.52  0.  0.
   454  4.53  0.  0.
   455  4.54  0.  0.
   456  4.55  0.  0.
   457  4.56  0.  0.
   458  4.57  0.  0.
   459  4.58  0.  0.
   460  4.59  0.  0.
   461  4.60  0.  0.
   462  4.61  0.  0.
   463  4.62  0.  0.
   464  4.63  0.  0.
   465  4.64  0.  0.
   466  4.65  0.  0.
   467  4.66  0.  0.
   468  4.67  0.  0.
   469  4.68  0.  0.
   470  4.69  0.  0.
   471  4.70  0.  0.
   472  4.71  0.  0.
   473  4.72  0.  0.
   474  4.73  0.  0.
   475  4.74  0.  0.
   476  4.75  0.  0.
   477  4.76  0.  0.
   478  4.77  0.  0.
   479  4.78  0.  0.
   480  4.79  0.  0.
   481  4.80  0.  0.
   482  4.81  0.  0.
   483  4.82  0.  0.
   484  4.83  0.  0.
   485  4.84  0.  0.
   486  4.85  0.  0.
   487  4.86  0.  0.
   488  4.87  0.  0.
   489  4.88  0.  0.
   490  4.89  0.  0.
   491  4.90  0.  0.
   492  4.91  0.  0.
   493  4.92  0.  0.
   494  4.93  0.  0.
   495  4.94  0.  0.
   496  4.95  0.  0.
   497  4.96  0.  0.
   498  4.97  0.  0.
   499  4.98  0.  0.
   500  4.99  0.  0.
   501  5.00  0.  0.
   502  5.01  0.  0.
   503  5.02  0.  0.
   504  5.03  0.  0.
   505  5.04  0.  0.
   506  5.05  0.  0.
   507  5.06  0.  0.
   508  5.07  0.  0.
   509  5.08  0.  0.
   510  5.09  0.  0.
   511  5.10  0.  0.
   512  5.11  0.  0.
   513  5.12  0.  0.
   514  5.13  0.  0.
   515  5.14  0.  0.
   516  5.15  0.  0.
   517  5.16  0.  0.
   518  5.17  0.  0.
   519  5.18  0.  0.
   520  5.19  0.  0.
   521  5.20  0.  0.
   522  5.21  0.  0.
   523  5.22  0.  0.
   524  5.23  0.  0.
   525  5.24  0.  0.
   526  5.25  0.  0.
   527  5.26  0.  0.
   528  5.27  0.  0.
   529  5.28  0.  0.
   530  5.29  0.  0.
   531  5.30  0.  0.
   532  5.31  0.  0.
   533  5.32  0.  0.
   534  5.33  0.  0.
   535  5.34  0.  0.
   536  5.35  0.  0.
   537  5.36  0.  0.
   538  5.37  0.  0.
   539  5.38  0.  0.
   540  5.39  0.  0.
   541  5.40  0.  0.
   542  5.41  0.  0.
   543  5.42  0.  0.
   544  5.43  0.  0.
   545  5.44  0.  0.
   546  5.45  0.  0.
   547  5.46  0.  0.
   548  5.47  0.  0.
   549  5.48  0.  0.
   550  5.49  0.  0.
   551  5.50  0.  0.
   552  5.51  0.  0.
   553  5.52  0.  0.
   554  5.53  0.  0.
   555  5.54  0.  0.
   556  5.55  0.  0.
   557  5.56  0.  0.
   558  5.57  0.  0.
   559  5.58  0.  0.
   560  5.59  0.  0.
   561  5.60  0.  0.
   562  5.61  0.  0.
   563  5.62  0.  0.
   564  5.63  0.  0.
   565  5.64  0.  0.
   566  5.65  0.  0.
   567  5.66  0.  0.
   568  5.67  0.  0.
   569  5.68  0.  0.
   570  5.69  0.  0.
   571  5.70  0.  0.
   572  5.71  0.  0.
   573  5.72  0.  0.
   574  5.73  0.  0.
   575  5.74  0.  0.
   576  5.75  0.  0.
   577  5.76  0.  0.
   578  5.77  0.  0.
   579  5.78  0.  0.
   580  5.79  0.  0.
   581  5.80  0.  0.
   582  5.81  0.  0.
   583  5.82  0.  0.
   584  5.83  0.  0.
   585  5.84  0.  0.
   586  5.85  0.  0.
   587  5.86  0.  0.
   588  5.87  0.  0.
   589  5.88  0.  0.
   590  5.89  0.  0.
   591  5.90  0.  0.
   592  5.91  0.  0.
   593  5.92  0.  0.
   594  5.93  0.  0.
   595  5.94  0.  0.
   596  5.95  0.  0.
   597  5.96  0.  0.
   598  5.97  0.  0.
   599  5.98  0.  0.
   600  5.99  0.  0.
   1                         3.6306252061050E+00  6.6104677086751E-01  7.2278776343465E-03
     1  0.0000000000000E+00 -3.3614682738714E-09  5.9323834178393E-09 -3.6431550276550E-09
     2  1.0000000000000E-02 -5.1237156058607E-04  1.6383225558377E-03 -1.2846339433132E-03
     3  2.0000000000000E-02 -2.0369325231549E-03  6.5302286763367E-03 -5.1244186664466E-03
     4  3.0000000000000E-02 -4.5361812329509E-03  1.4606816448714E-02 -1.1477173673095E-02
     5  4.0000000000000E-02 -7.9481447656990E-03  2.5754188528163E-02 -2.0273165552065E-02
     6  5.0000000000000E-02 -1.2187167250305E-02  3.9814849560261E-02 -3.1415952132599E-02
     7  6.0000000000000E-02 -1.7145000738552E-02  5.6589640017119E-02 -4.4783550444164E-02
     8  7.0000000000000E-02 -2.2692186010423E-02  7.5840184192852E-02 -6.0229914810726E-02
     9  8.0000000000000E-02 -2.8679707342219E-02  9.7291824171568E-02 -7.7586707766340E-02
    10  9.0000000000000E-02 -3.4940902080880E-02  1.2063700596184E-01 -9.6665343033607E-02
    11  1.0000000000000E-01 -4.1293602897442E-02  1.4553907874817E-01 -1.1725927659076E-01
    12  1.1000000000000E-01 -4.7542487868529E-02  1.7163646340087E-01 -1.3914651890954E-01
    13  1.2000000000000E-01 -5.3481611087784E-02  1.9854714206465E-01 -1.6209233880396E-01
    14  1.3000000000000E-01 -5.8897084366628E-02  2.2587341686203E-01 -1.8585212702123E-01
    15  1.4000000000000E-01 -6.3569878770055E-02  2.5320688254249E-01 -2.1017438575596E-01
    16  1.5000000000000E-01 -6.7278713268817E-02  2.8013355531935E-01 -2.3480380870251E-01
    17  1.6000000000000E-01 -6.9802996691292E-02  3.0623909819228E-01 -2.5948441509088E-01
    18  1.7000000000000E-01 -7.0925788439312E-02  3.3111408177803E-01 -2.8396270040011E-01
    19  1.8000000000000E-01 -7.0436743101064E-02  3.5435921907986E-01 -3.0799076611223E-01
    20  1.9000000000000E-01 -6.8135004155232E-02  3.7559051272551E-01 -3.3132939096908E-01
    21  2.0000000000000E-01 -6.3832012414069E-02  3.9444425399490E-01 -3.5375100672167E-01
    22  2.1000000000000E-01 -5.7354195694976E-02  4.1058181443481E-01 -3.7504254231244E-01
    23  2.2000000000000E-01 -4.8545507431945E-02  4.2369417300345E-01 -3.9500810179730E-01
    24  2.3000000000000E-01 -3.7269783527363E-02  4.3350612448175E-01 -4.1347144307979E-01
    25  2.4000000000000E-01 -2.3412888684635E-02  4.3978011830039E-01 -4.3027822667949E-01
    26  2.5000000000000E-01 -6.8846257321383E-03  4.4231968092668E-01 -4.4529800626421E-01
    27  2.6000000000000E-01  1.2379615974757E-02  4.4097237948991E-01 -4.5842593551829E-01
    28  2.7000000000000E-01  3.4417494132322E-02  4.3563228935049E-01 -4.6958416906239E-01
    29  2.8000000000000E-01  5.9238647004146E-02  4.2624193378159E-01 -4.7872293855453E-01
    30  2.9000000000000E-01  8.6823941513821E-02  4.1279366977399E-01 -4.8582128874616E-01
    31  3.0000000000000E-01  1.1712504705992E-01  3.9533050013181E-01 -4.9088746210559E-01
    32  3.1000000000000E-01  1.5006434256384E-01  3.7394629843191E-01 -4.9395892460880E-01
    33  3.2000000000000E-01  1.8553516052572E-01  3.4878544000240E-01 -4.9510202939243E-01
    34  3.3000000000000E-01  2.2340236806928E-01  3.2004183876542E-01 -4.9441131912167E-01
    35  3.4000000000000E-01  2.6350328114342E-01  2.8795739651025E-01 -4.9200847209709E-01
    36  3.5000000000000E-01  3.0564890426082E-01  2.5281987784352E-01 -4.8804090126884E-01
    37  3.6000000000000E-01  3.4962548443152E-01  2.1496023062734E-01 -4.8268001939122E-01
    38  3.7000000000000E-01  3.9519636433524E-01  1.7474937809286E-01 -4.7611918749605E-01
    39  3.8000000000000E-01  4.4210411631021E-01  1.3259451493286E-01 -4.6857136764031E-01
    40  3.9000000000000E-01  4.9007293545673E-01  8.8934945466053E-02 -4.6026650445276E-01
    41  4.0000000000000E-01  5.3881126709852E-01  4.4237507360510E-02 -4.5144866332274E-01
    42  4.1000000000000E-01  5.8801464104833E-01 -1.0083706556625E-03 -4.4237295610521E-01
    43  4.2000000000000E-01  6.3736868261840E-01 -4.6295924238964E-02 -4.3330228792366E-01
    44  4.3000000000000E-01  6.8655226813020E-01 -9.1106565305978E-02 -4.2450396100439E-01
    45  4.4000000000000E-01  7.3524079083745E-01 -1.3491559035585E-01 -4.1624617344490E-01
    46  4.5000000000000E-01  7.8310950170279E-01 -1.7719802264298E-01 -4.0879445237972E-01
    47  4.6000000000000E-01  8.2983688838115E-01 -2.1743452366848E-01 -4.0240806214151E-01
    48  4.7000000000000E-01  8.7510805507402E-01 -2.5511730822789E-01 -3.9733642870561E-01
    49  4.8000000000000E-01  9.1861806564007E-01 -2.8975599674109E-01 -3.9381562194420E-01
    50  4.9000000000000E-01  9.6007521248226E-01 -3.2088333880927E-01 -3.9206493699478E-01
    51  5.0000000000000E-01  9.9920417428202E-01 -3.4806074289337E-01 -3.9228361536684E-01
    52  5.1000000000000E-01  1.0357490266124E+00 -3.7088354868283E-01 -3.9464774527316E-01
    53  5.2000000000000E-01  1.0694760708270E+00 -3.8898598110819E-01 -3.9930737909045E-01
    54  5.3000000000000E-01  1.1001764483754E+00 -4.0204572802352E-01 -4.0638390383774E-01
    55  5.4000000000000E-01  1.1276685098258E+00 -4.0978808731597E-01 -4.1596769813335E-01
    56  5.5000000000000E-01  1.1517999103533E+00 -4.1198963355124E-01 -4.2811610627310E-01
    57  5.6000000000000E-01  1.1724494062622E+00 -4.0848135919323E-01 -4.4285175689226E-01
    58  5.7000000000000E-01  1.1895283302138E+00 -3.9915125089087E-01 -4.6016125016464E-01
    59  5.8000000000000E-01  1.2029817262038E+00 -3.8394626725081E-01 -4.7999423368720E-01
    60  5.9000000000000E-01  1.2127891289356E+00 -3.6287369084724E-01 -5.0226288314167E-01
    61  6.0000000000000E-01  1.2189649760285E+00 -3.3600183389391E-01 -5.2684179955141E-01
    62  6.1000000000000E-01  1.2215586454490E+00 -3.0346008394774E-01 -5.5356833051358E-01
    63  6.2000000000000E-01  1.2206541146086E+00 -2.6543828315306E-01 -5.8224331822603E-01
    64  6.3000000000000E-01  1.2163692416958E+00 -2.2218544179503E-01 -6.1263227249484E-01
    65  6.4000000000000E-01  1.2088546739558E+00 -1.7400779423065E-01 -6.4446696225314E-01
    66  6.5000000000000E-01  1.1982923917523E+00 -1.2126621252741E-01 -6.7744741449268E-01
    67  6.6000000000000E-01  1.1848939013001E+00 -6.4373000283247E-02 -7.1124430495881E-01
    68  6.7000000000000E-01  1.1688980929007E+00 -3.7880960488615E-03 -7.4550172053442E-01
    69  6.8000000000000E-01  1.1505687852927E+00  5.9985277552641E-02 -7.7984026899144E-01
    70  6.9000000000000E-01  1.1301919803203E+00  1.2640547658713E-01 -8.1386050776205E-01
    71  7.0000000000000E-01  1.1080728554650E+00  1.9489776212251E-01 -8.4714665962539E-01
    72  7.1000000000000E-01  1.0845325248592E+00  2.6486003634107E-01 -8.7927057975846E-01
    73  7.2000000000000E-01  1.0599046021554E+00  3.3566892982419E-01 -9.0979593550265E-01
    74  7.3000000000000E-01  1.0345316010401E+00  4.0668617711026E-01 -9.3828255748799E-01
    75  7.4000000000000E-01  1.0087612112229E+00  4.7726521400997E-01 -9.6429091846267E-01
    76  7.5000000000000E-01  9.8294248937204E-01  5.4675792724243E-01 -9.8738669432897E-01
    77  7.6000000000000E-01  9.5742200569944E-01  6.1452148476945E-01 -1.0071453605084E+00
    78  7.7000000000000E-01  9.3253998768610E-01  6.7992517378035E-01 -1.0231567758681E+00
    79  7.8000000000000E-01  9.0862650279050E-01  7.4235717263718E-01 -1.0350297060484E+00
    80  7.9000000000000E-01  8.8599772187703E-01  8.0123118324185E-01 -1.0423962381523E+00
    81  8.0000000000000E-01  8.6495230454545E-01  8.5599285123557E-01 -1.0449160393822E+00