Ge    ONCVPSP-4.0.1  r_core=   1.90839   1.80836   1.90839
     32.0000     14.0000      231019    zatom,zion,pspd
     8       2   2     4   600     0    pspcod,pspxc,lmax,lloc,mmax,r2well
  5.99000000  5.00000000  0.00000000    rchrg fchrg qchrg
     2     2     2     0     0    nproj
     1     1           extension_switch
   0                         6.1472813343260E+00  5.6378696491200E-01
     1  0.0000000000000E+00 -3.4030389617357E-11  9.1041840732942E-11
     2  1.0000000000000E-02  3.0481395194042E-02 -9.5349435810152E-03
     3  2.0000000000000E-02  6.0937976245220E-02 -1.9047599880399E-02
     4  3.0000000000000E-02  9.1345036786942E-02 -2.8515888995992E-02
     5  4.0000000000000E-02  1.2167808500609E-01 -3.7918143369539E-02
     6  5.0000000000000E-02  1.5191294843076E-01 -4.7233307944317E-02
     7  6.0000000000000E-02  1.8202587575552E-01 -5.6441133170499E-02
     8  7.0000000000000E-02  2.1199363475669E-01 -6.5522358581811E-02
     9  8.0000000000000E-02  2.4179360538458E-01 -7.4458884758043E-02
    10  9.0000000000000E-02  2.7140386716121E-01 -8.3233931600400E-02
    11  1.0000000000000E-01  3.0080328006201E-01 -9.1832180979217E-02
    12  1.1000000000000E-01  3.2997155811680E-01 -1.0023990196551E-01
    13  1.2000000000000E-01  3.5888933502905E-01 -1.0844505702734E-01
    14  1.3000000000000E-01  3.8753822118252E-01 -1.1643738775821E-01
    15  1.4000000000000E-01  4.1590085147992E-01 -1.2420847890535E-01
    16  1.5000000000000E-01  4.4396092353916E-01 -1.3175179967964E-01
    17  1.6000000000000E-01  4.7170322585790E-01 -1.3906272155404E-01
    18  1.7000000000000E-01  4.9911365564622E-01 -1.4613851199116E-01
    19  1.8000000000000E-01  5.2617922611906E-01 -1.5297830378251E-01
    20  1.9000000000000E-01  5.5288806313451E-01 -1.5958303992753E-01
    21  2.0000000000000E-01  5.7922939115970E-01 -1.6595539423033E-01
    22  2.1000000000000E-01  6.0519350864259E-01 -1.7209966804126E-01
    23  2.2000000000000E-01  6.3077175296433E-01 -1.7802166381880E-01
    24  2.3000000000000E-01  6.5595645524234E-01 -1.8372853643163E-01
    25  2.4000000000000E-01  6.8074088534821E-01 -1.8922862335863E-01
    26  2.5000000000000E-01  7.0511918759585E-01 -1.9453125517499E-01
    27  2.6000000000000E-01  7.2908630764339E-01 -1.9964654793208E-01
    28  2.7000000000000E-01  7.5263791123671E-01 -2.0458517924604E-01
    29  2.8000000000000E-01  7.7577029550195E-01 -2.0935815010334E-01
    30  2.9000000000000E-01  7.9848029356831E-01 -2.1397653456823E-01
    31  3.0000000000000E-01  8.2076517337098E-01 -2.1845121973616E-01
    32  3.1000000000000E-01  8.4262253154518E-01 -2.2279263841708E-01
    33  3.2000000000000E-01  8.6405018337696E-01 -2.2701049715100E-01
    34  3.3000000000000E-01  8.8504604982319E-01 -2.3111350225527E-01
    35  3.4000000000000E-01  9.0560804265153E-01 -2.3510908667654E-01
    36  3.5000000000000E-01  9.2573394878192E-01 -2.3900314046973E-01
    37  3.6000000000000E-01  9.4542131493211E-01 -2.4279974775145E-01
    38  3.7000000000000E-01  9.6466733368254E-01 -2.4650093297456E-01
    39  3.8000000000000E-01  9.8346873207922E-01 -2.5010641934489E-01
    40  3.9000000000000E-01  1.0018216638870E+00 -2.5361340214956E-01
    41  4.0000000000000E-01  1.0197216065910E+00 -2.5701633968916E-01
    42  4.1000000000000E-01  1.0371632642186E+00 -2.6030676440463E-01
    43  4.2000000000000E-01  1.0541404770216E+00 -2.6347311666246E-01
    44  4.3000000000000E-01  1.0706461390162E+00 -2.6650060351220E-01
    45  4.4000000000000E-01  1.0866721243248E+00 -2.6937108455707E-01
    46  4.5000000000000E-01  1.1022092232071E+00 -2.7206298688400E-01
    47  4.6000000000000E-01  1.1172470885998E+00 -2.7455125078507E-01
    48  4.7000000000000E-01  1.1317741939075E+00 -2.7680730776892E-01
    49  4.8000000000000E-01  1.1457778027085E+00 -2.7879909211071E-01
    50  4.9000000000000E-01  1.1592439509488E+00 -2.8049108692437E-01
    51  5.0000000000000E-01  1.1721574421063E+00 -2.8184440546300E-01
    52  5.1000000000000E-01  1.1845018557054E+00 -2.8281690806447E-01
    53  5.2000000000000E-01  1.1962595694630E+00 -2.8336335486238E-01
    54  5.3000000000000E-01  1.2074117952366E+00 -2.8343559407914E-01
    55  5.4000000000000E-01  1.2179386288399E+00 -2.8298278541131E-01
    56  5.5000000000000E-01  1.2278191136779E+00 -2.8195165770907E-01
    57  5.6000000000000E-01  1.2370313180418E+00 -2.8028679984505E-01
    58  5.7000000000000E-01  1.2455524257947E+00 -2.7793098336549E-01
    59  5.8000000000000E-01  1.2533588400641E+00 -2.7482551521984E-01
    60  5.9000000000000E-01  1.2604262994507E+00 -2.7091061857811E-01
    61  6.0000000000000E-01  1.2667300061553E+00 -2.6612583946965E-01
    62  6.1000000000000E-01  1.2722447653204E+00 -2.6041047671496E-01
    63  6.2000000000000E-01  1.2769451347873E+00 -2.5370403237685E-01
    64  6.3000000000000E-01  1.2808055843709E+00 -2.4594667972999E-01
    65  6.4000000000000E-01  1.2838006636698E+00 -2.3707974554135E-01
    66  6.5000000000000E-01  1.2859051773436E+00 -2.2704620327035E-01
    67  6.6000000000000E-01  1.2870943667189E+00 -2.1579117363697E-01
    68  6.7000000000000E-01  1.2873440965138E+00 -2.0326242887315E-01
    69  6.8000000000000E-01  1.2866310454168E+00 -1.8941089686566E-01
    70  6.9000000000000E-01  1.2849328992019E+00 -1.7419116132060E-01
    71  7.0000000000000E-01  1.2822285450270E+00 -1.5756195403157E-01
    72  7.1000000000000E-01  1.2784982655271E+00 -1.3948663531508E-01
    73  7.2000000000000E-01  1.2737239312974E+00 -1.1993365868929E-01
    74  7.3000000000000E-01  1.2678891903496E+00 -9.8877015916385E-02
    75  7.4000000000000E-01  1.2609796531266E+00 -7.6296658603056E-02
    76  7.5000000000000E-01  1.2529830716714E+00 -5.2178892660375E-02
    77  7.6000000000000E-01  1.2438895115680E+00 -2.6516742059637E-02
    78  7.7000000000000E-01  1.2336915153035E+00  6.8972151222571E-04
    79  7.8000000000000E-01  1.2223842557463E+00  2.9433086299456E-02
    80  7.9000000000000E-01  1.2099656784835E+00  5.9698348405978E-02
    81  8.0000000000000E-01  1.1964366318265E+00  9.1462702735623E-02
    82  8.1000000000000E-01  1.1818009833654E+00  1.2469537940123E-01
    83  8.2000000000000E-01  1.1660657220299E+00  1.5935752776353E-01
    84  8.3000000000000E-01  1.1492410447089E+00  1.9540214994422E-01
    85  8.4000000000000E-01  1.1313404265720E+00  2.3277408532206E-01
    86  8.5000000000000E-01  1.1123806743443E+00  2.7141004717066E-01
    87  8.6000000000000E-01  1.0923819618924E+00  3.1123871223135E-01
    88  8.7000000000000E-01  1.0713678475965E+00  3.5218086364028E-01
    89  8.8000000000000E-01  1.0493652731035E+00  3.9414958724525E-01
    90  8.9000000000000E-01  1.0264045431796E+00  4.3705052096031E-01
    91  9.0000000000000E-01  1.0025192865057E+00  4.8078215641629E-01
    92  9.1000000000000E-01  9.7774639739111E-01  5.2523619177623E-01
    93  9.2000000000000E-01  9.5212595850729E-01  5.7029793420026E-01
    94  9.3000000000000E-01  9.2570114487378E-01  6.1584675006622E-01
    95  9.4000000000000E-01  8.9851810945811E-01  6.6175656068526E-01
    96  9.5000000000000E-01  8.7062585087665E-01  7.0789638089636E-01
    97  9.6000000000000E-01  8.4207606380785E-01  7.5413089758555E-01
    98  9.7000000000000E-01  8.1292297284936E-01  8.0032108485461E-01
    99  9.8000000000000E-01  7.8322315066514E-01  8.4632485226622E-01
   100  9.9000000000000E-01  7.5303532137922E-01  8.9199772231637E-01
   101  1.0000000000000E+00  7.2242015027518E-01  9.3719353303666E-01
   102  1.0100000000000E+00  6.9144002095708E-01  9.8176516140797E-01
   103  1.0200000000000E+00  6.6015880121549E-01  1.0255652630759E+00
   104  1.0300000000000E+00  6.2864159892172E-01  1.0684470237008E+00
   105  1.0400000000000E+00  5.9695450934392E-01  1.1102649171483E+00
   106  1.0500000000000E+00  5.6516435533922E-01  1.1508754656363E+00
   107  1.0600000000000E+00  5.3333842192658E-01  1.1901379968989E+00
   108  1.0700000000000E+00  5.0154418678471E-01  1.2279153934074E+00
   109  1.0800000000000E+00  4.6984904824877E-01  1.2640748287068E+00
   110  1.0900000000000E+00  4.3832005239697E-01  1.2984884859803E+00
   111  1.1000000000000E+00  4.0702362082544E-01  1.3310342540424E+00
   112  1.1100000000000E+00  3.7602528070463E-01  1.3615963960901E+00
   113  1.1200000000000E+00  3.4538939869510E-01  1.3900661867022E+00
   114  1.1300000000000E+00  3.1517892027362E-01  1.4163425127703E+00
   115  1.1400000000000E+00  2.8545511598254E-01  1.4403324342771E+00
   116  1.1500000000000E+00  2.5627733606744E-01  1.4619517010940E+00
   117  1.1600000000000E+00  2.2770277490948E-01  1.4811252222601E+00
   118  1.1700000000000E+00  1.9978624659058E-01  1.4977874845218E+00
   119  1.1800000000000E+00  1.7257997285245E-01  1.5118829172513E+00
   120  1.1900000000000E+00  1.4613338462446E-01  1.5233662012283E+00
   121  1.2000000000000E+00  1.2049293820179E-01  1.5322025191493E+00
   122  1.2100000000000E+00  9.5701947053934E-02  1.5383677461334E+00
   123  1.2200000000000E+00  7.1800430137192E-02  1.5418485789013E+00
   124  1.2300000000000E+00  4.8824977471178E-02  1.5426426027348E+00
   125  1.2400000000000E+00  2.6808633622633E-02  1.5407582957516E+00
   126  1.2500000000000E+00  5.7807996186392E-03  1.5362149704658E+00
   127  1.2600000000000E+00 -1.4232846312777E-02  1.5290426530450E+00
   128  1.2700000000000E+00 -3.3210408901766E-02  1.5192819011031E+00
   129  1.2800000000000E+00 -5.1133816749421E-02  1.5069835612977E+00
   130  1.2900000000000E+00 -6.7988843974405E-02  1.4922084684206E+00
   131  1.3000000000000E+00 -8.3765112698389E-02  1.4750270880712E+00
   132  1.3100000000000E+00 -9.8456076598806E-02  1.4555191053943E+00
   133  1.3200000000000E+00 -1.1205898587722E-01  1.4337729627334E+00
   134  1.3300000000000E+00 -1.2457483410788E-01  1.4098853493988E+00
   135  1.3400000000000E+00 -1.3600828754201E-01  1.3839606470710E+00
   136  1.3500000000000E+00 -1.4636759754963E-01  1.3561103346609E+00
   137  1.3600000000000E+00 -1.5566449697971E-01  1.3264523567092E+00
   138  1.3700000000000E+00 -1.6391408131153E-01  1.2951104596470E+00
   139  1.3800000000000E+00 -1.7113467555480E-01  1.2622135004370E+00
   140  1.3900000000000E+00 -1.7734768793196E-01  1.2278947322842E+00
   141  1.4000000000000E+00 -1.8257745144346E-01  1.1922910722324E+00
   142  1.4100000000000E+00 -1.8685105447424E-01  1.1555423555563E+00
   143  1.4200000000000E+00 -1.9019816164831E-01  1.1177905819117E+00
   144  1.4300000000000E+00 -1.9265082617607E-01  1.0791791582242E+00
   145  1.4400000000000E+00 -1.9424329496733E-01  1.0398521432709E+00
   146  1.4500000000000E+00 -1.9501180780068E-01  9.9995349885094E-01
   147  1.4600000000000E+00 -1.9499439184726E-01  9.5962635233916E-01
   148  1.4700000000000E+00 -1.9423065284453E-01  9.1901227528220E-01
   149  1.4800000000000E+00 -1.9276156420259E-01  8.7825058252454E-01
   150  1.4900000000000E+00 -1.9062925530334E-01  8.3747765614468E-01
   151  1.5000000000000E+00 -1.8787680022034E-01  7.9682629824354E-01
   152  1.5100000000000E+00 -1.8454800804646E-01  7.5642511635778E-01
   153  1.5200000000000E+00 -1.8068721596640E-01  7.1639794497246E-01
   154  1.5300000000000E+00 -1.7633908615335E-01  6.7686330628470E-01
   155  1.5400000000000E+00 -1.7154840750380E-01  6.3793391302272E-01
   156  1.5500000000000E+00 -1.6635990315251E-01  5.9971621575915E-01
   157  1.5600000000000E+00 -1.6081804463124E-01  5.6230999677270E-01
   158  1.5700000000000E+00 -1.5496687345159E-01  5.2580801211517E-01
   159  1.5800000000000E+00 -1.4884983080432E-01  4.9029568313310E-01
   160  1.5900000000000E+00 -1.4250959597598E-01  4.5585083827806E-01
   161  1.6000000000000E+00 -1.3598793398915E-01  4.2254350562071E-01
   162  1.6100000000000E+00 -1.2932555287669E-01  3.9043575606561E-01
   163  1.6200000000000E+00 -1.2256197090289E-01  3.5958159684803E-01
   164  1.6300000000000E+00 -1.1573539394736E-01  3.3002691448594E-01
   165  1.6400000000000E+00 -1.0888260317085E-01  3.0180946596203E-01
   166  1.6500000000000E+00 -1.0203885298746E-01  2.7495891652672E-01
   167  1.6600000000000E+00 -9.5237779275560E-02  2.4949692214512E-01
   168  1.6700000000000E+00 -8.8511317670555E-02  2.2543725426396E-01
   169  1.6800000000000E+00 -8.1889631698310E-02  2.0278596424929E-01
   170  1.6900000000000E+00 -7.5401050427753E-02  1.8154158454671E-01
   171  1.7000000000000E+00 -6.9072015247375E-02  1.6169536334535E-01
   172  1.7100000000000E+00 -6.2927035301950E-02  1.4323152928498E-01
   173  1.7200000000000E+00 -5.6988651064811E-02  1.2612758253781E-01
   174  1.7300000000000E+00 -5.1277405418244E-02  1.1035460809292E-01
   175  1.7400000000000E+00 -4.5811821636955E-02  9.5877607461072E-02
   176  1.7500000000000E+00 -4.0608390229603E-02  8.2655861881839E-02
   177  1.7600000000000E+00 -3.5681548819128E-02  7.0643222193072E-02
   178  1.7700000000000E+00 -3.1043784888477E-02  5.9789196145291E-02
   179  1.7800000000000E+00 -2.6705872652461E-02  5.0040863376872E-02
   180  1.7900000000000E+00 -2.2677051307074E-02  4.1344184507832E-02
   181  1.8000000000000E+00 -1.8964995332771E-02  3.3644204294626E-02
   182  1.8100000000000E+00 -1.5575915555864E-02  2.6885699346014E-02
   183  1.8200000000000E+00 -1.2516932829019E-02  2.1020957892680E-02
   184  1.8300000000000E+00 -9.7969047930174E-03  1.6012632712553E-02
   185  1.8400000000000E+00 -7.4162650375761E-03  1.1801950255014E-02
   186  1.8500000000000E+00 -5.3737162852426E-03  8.3301212393106E-03
   187  1.8600000000000E+00 -3.6667385283907E-03  5.5401372949746E-03
   188  1.8700000000000E+00 -2.2916933379775E-03  3.3772688282237E-03
   189  1.8800000000000E+00 -1.2443625017196E-03  1.7900970580682E-03
   190  1.8900000000000E+00 -5.1546101472149E-04  7.2482798412498E-04
   191  1.9000000000000E+00 -1.1228473580747E-04  1.5455753080666E-04
   192  1.9100000000000E+00  5.9720146925300E-06 -7.7802847573053E-06
   193  1.9200000000000E+00 -1.7497632443289E-07  2.3565782667186E-07
   194  1.93 -0.  0.
   195  1.94  0. -0.
   196  1.95  0. -0.
   197  1.96  0.  0.
   198  1.97  0.  0.
   199  1.98  0.  0.
   200  1.99  0.  0.
   201  2.00  0.  0.
   202  2.01  0.  0.
   203  2.02  0.  0.
   204  2.03  0.  0.
   205  2.04  0.  0.
   206  2.05  0.  0.
   207  2.06  0.  0.
   208  2.07  0.  0.
   209  2.08  0.  0.
   210  2.09  0.  0.
   211  2.10  0.  0.
   212  2.11  0.  0.
   213  2.12  0.  0.
   214  2.13  0.  0.
   215  2.14  0.  0.
   216  2.15  0.  0.
   217  2.16  0.  0.
   218  2.17  0.  0.
   219  2.18  0.  0.
   220  2.19  0.  0.
   221  2.20  0.  0.
   222  2.21  0.  0.
   223  2.22  0.  0.
   224  2.23  0.  0.
   225  2.24  0.  0.
   226  2.25  0.  0.
   227  2.26  0.  0.
   228  2.27  0.  0.
   229  2.28  0.  0.
   230  2.29  0.  0.
   231  2.30  0.  0.
   232  2.31  0.  0.
   233  2.32  0.  0.
   234  2.33  0.  0.
   235  2.34  0.  0.
   236  2.35  0.  0.
   237  2.36  0.  0.
   238  2.37  0.  0.
   239  2.38  0.  0.
   240  2.39  0.  0.
   241  2.40  0.  0.
   242  2.41  0.  0.
   243  2.42  0.  0.
   244  2.43  0.  0.
   245  2.44  0.  0.
   246  2.45  0.  0.
   247  2.46  0.  0.
   248  2.47  0.  0.
   249  2.48  0.  0.
   250  2.49  0.  0.
   251  2.50  0.  0.
   252  2.51  0.  0.
   253  2.52  0.  0.
   254  2.53  0.  0.
   255  2.54  0.  0.
   256  2.55  0.  0.
   257  2.56  0.  0.
   258  2.57  0.  0.
   259  2.58  0.  0.
   260  2.59  0.  0.
   261  2.60  0.  0.
   262  2.61  0.  0.
   263  2.62  0.  0.
   264  2.63  0.  0.
   265  2.64  0.  0.
   266  2.65  0.  0.
   267  2.66  0.  0.
   268  2.67  0.  0.
   269  2.68  0.  0.
   270  2.69  0.  0.
   271  2.70  0.  0.
   272  2.71  0.  0.
   273  2.72  0.  0.
   274  2.73  0.  0.
   275  2.74  0.  0.
   276  2.75  0.  0.
   277  2.76  0.  0.
   278  2.77  0.  0.
   279  2.78  0.  0.
   280  2.79  0.  0.
   281  2.80  0.  0.
   282  2.81  0.  0.
   283  2.82  0.  0.
   284  2.83  0.  0.
   285  2.84  0.  0.
   286  2.85  0.  0.
   287  2.86  0.  0.
   288  2.87  0.  0.
   289  2.88  0.  0.
   290  2.89  0.  0.
   291  2.90  0.  0.
   292  2.91  0.  0.
   293  2.92  0.  0.
   294  2.93  0.  0.
   295  2.94  0.  0.
   296  2.95  0.  0.
   297  2.96  0.  0.
   298  2.97  0.  0.
   299  2.98  0.  0.
   300  2.99  0.  0.
   301  3.00  0.  0.
   302  3.01  0.  0.
   303  3.02  0.  0.
   304  3.03  0.  0.
   305  3.04  0.  0.
   306  3.05  0.  0.
   307  3.06  0.  0.
   308  3.07  0.  0.
   309  3.08  0.  0.
   310  3.09  0.  0.
   311  3.10  0.  0.
   312  3.11  0.  0.
   313  3.12  0.  0.
   314  3.13  0.  0.
   315  3.14  0.  0.
   316  3.15  0.  0.
   317  3.16  0.  0.
   318  3.17  0.  0.
   319  3.18  0.  0.
   320  3.19  0.  0.
   321  3.20  0.  0.
   322  3.21  0.  0.
   323  3.22  0.  0.
   324  3.23  0.  0.
   325  3.24  0.  0.
   326  3.25  0.  0.
   327  3.26  0.  0.
   328  3.27  0.  0.
   329  3.28  0.  0.
   330  3.29  0.  0.
   331  3.30  0.  0.
   332  3.31  0.  0.
   333  3.32  0.  0.
   334  3.33  0.  0.
   335  3.34  0.  0.
   336  3.35  0.  0.
   337  3.36  0.  0.
   338  3.37  0.  0.
   339  3.38  0.  0.
   340  3.39  0.  0.
   341  3.40  0.  0.
   342  3.41  0.  0.
   343  3.42  0.  0.
   344  3.43  0.  0.
   345  3.44  0.  0.
   346  3.45  0.  0.
   347  3.46  0.  0.
   348  3.47  0.  0.
   349  3.48  0.  0.
   350  3.49  0.  0.
   351  3.50  0.  0.
   352  3.51  0.  0.
   353  3.52  0.  0.
   354  3.53  0.  0.
   355  3.54  0.  0.
   356  3.55  0.  0.
   357  3.56  0.  0.
   358  3.57  0.  0.
   359  3.58  0.  0.
   360  3.59  0.  0.
   361  3.60  0.  0.
   362  3.61  0.  0.
   363  3.62  0.  0.
   364  3.63  0.  0.
   365  3.64  0.  0.
   366  3.65  0.  0.
   367  3.66  0.  0.
   368  3.67  0.  0.
   369  3.68  0.  0.
   370  3.69  0.  0.
   371  3.70  0.  0.
   372  3.71  0.  0.
   373  3.72  0.  0.
   374  3.73  0.  0.
   375  3.74  0.  0.
   376  3.75  0.  0.
   377  3.76  0.  0.
   378  3.77  0.  0.
   379  3.78  0.  0.
   380  3.79  0.  0.
   381  3.80  0.  0.
   382  3.81  0.  0.
   383  3.82  0.  0.
   384  3.83  0.  0.
   385  3.84  0.  0.
   386  3.85  0.  0.
   387  3.86  0.  0.
   388  3.87  0.  0.
   389  3.88  0.  0.
   390  3.89  0.  0.
   391  3.90  0.  0.
   392  3.91  0.  0.
   393  3.92  0.  0.
   394  3.93  0.  0.
   395  3.94  0.  0.
   396  3.95  0.  0.
   397  3.96  0.  0.
   398  3.97  0.  0.
   399  3.98  0.  0.
   400  3.99  0.  0.
   401  4.00  0.  0.
   402  4.01  0.  0.
   403  4.02  0.  0.
   404  4.03  0.  0.
   405  4.04  0.  0.
   406  4.05  0.  0.
   407  4.06  0.  0.
   408  4.07  0.  0.
   409  4.08  0.  0.
   410  4.09  0.  0.
   411  4.10  0.  0.
   412  4.11  0.  0.
   413  4.12  0.  0.
   414  4.13  0.  0.
   415  4.14  0.  0.
   416  4.15  0.  0.
   417  4.16  0.  0.
   418  4.17  0.  0.
   419  4.18  0.  0.
   420  4.19  0.  0.
   421  4.20  0.  0.
   422  4.21  0.  0.
   423  4.22  0.  0.
   424  4.23  0.  0.
   425  4.24  0.  0.
   426  4.25  0.  0.
   427  4.26  0.  0.
   428  4.27  0.  0.
   429  4.28  0.  0.
   430  4.29  0.  0.
   431  4.30  0.  0.
   432  4.31  0.  0.
   433  4.32  0.  0.
   434  4.33  0.  0.
   435  4.34  0.  0.
   436  4.35  0.  0.
   437  4.36  0.  0.
   438  4.37  0.  0.
   439  4.38  0.  0.
   440  4.39  0.  0.
   441  4.40  0.  0.
   442  4.41  0.  0.
   443  4.42  0.  0.
   444  4.43  0.  0.
   445  4.44  0.  0.
   446  4.45  0.  0.
   447  4.46  0.  0.
   448  4.47  0.  0.
   449  4.48  0.  0.
   450  4.49  0.  0.
   451  4.50  0.  0.
   452  4.51  0.  0.
   453  4.52  0.  0.
   454  4.53  0.  0.
   455  4.54  0.  0.
   456  4.55  0.  0.
   457  4.56  0.  0.
   458  4.57  0.  0.
   459  4.58  0.  0.
   460  4.59  0.  0.
   461  4.60  0.  0.
   462  4.61  0.  0.
   463  4.62  0.  0.
   464  4.63  0.  0.
   465  4.64  0.  0.
   466  4.65  0.  0.
   467  4.66  0.  0.
   468  4.67  0.  0.
   469  4.68  0.  0.
   470  4.69  0.  0.
   471  4.70  0.  0.
   472  4.71  0.  0.
   473  4.72  0.  0.
   474  4.73  0.  0.
   475  4.74  0.  0.
   476  4.75  0.  0.
   477  4.76  0.  0.
   478  4.77  0.  0.
   479  4.78  0.  0.
   480  4.79  0.  0.
   481  4.80  0.  0.
   482  4.81  0.  0.
   483  4.82  0.  0.
   484  4.83  0.  0.
   485  4.84  0.  0.
   486  4.85  0.  0.
   487  4.86  0.  0.
   488  4.87  0.  0.
   489  4.88  0.  0.
   490  4.89  0.  0.
   491  4.90  0.  0.
   492  4.91  0.  0.
   493  4.92  0.  0.
   494  4.93  0.  0.
   495  4.94  0.  0.
   496  4.95  0.  0.
   497  4.96  0.  0.
   498  4.97  0.  0.
   499  4.98  0.  0.
   500  4.99  0.  0.
   501  5.00  0.  0.
   502  5.01  0.  0.
   503  5.02  0.  0.
   504  5.03  0.  0.
   505  5.04  0.  0.
   506  5.05  0.  0.
   507  5.06  0.  0.
   508  5.07  0.  0.
   509  5.08  0.  0.
   510  5.09  0.  0.
   511  5.10  0.  0.
   512  5.11  0.  0.
   513  5.12  0.  0.
   514  5.13  0.  0.
   515  5.14  0.  0.
   516  5.15  0.  0.
   517  5.16  0.  0.
   518  5.17  0.  0.
   519  5.18  0.  0.
   520  5.19  0.  0.
   521  5.20  0.  0.
   522  5.21  0.  0.
   523  5.22  0.  0.
   524  5.23  0.  0.
   525  5.24  0.  0.
   526  5.25  0.  0.
   527  5.26  0.  0.
   528  5.27  0.  0.
   529  5.28  0.  0.
   530  5.29  0.  0.
   531  5.30  0.  0.
   532  5.31  0.  0.
   533  5.32  0.  0.
   534  5.33  0.  0.
   535  5.34  0.  0.
   536  5.35  0.  0.
   537  5.36  0.  0.
   538  5.37  0.  0.
   539  5.38  0.  0.
   540  5.39  0.  0.
   541  5.40  0.  0.
   542  5.41  0.  0.
   543  5.42  0.  0.
   544  5.43  0.  0.
   545  5.44  0.  0.
   546  5.45  0.  0.
   547  5.46  0.  0.
   548  5.47  0.  0.
   549  5.48  0.  0.
   550  5.49  0.  0.
   551  5.50  0.  0.
   552  5.51  0.  0.
   553  5.52  0.  0.
   554  5.53  0.  0.
   555  5.54  0.  0.
   556  5.55  0.  0.
   557  5.56  0.  0.
   558  5.57  0.  0.
   559  5.58  0.  0.
   560  5.59  0.  0.
   561  5.60  0.  0.
   562  5.61  0.  0.
   563  5.62  0.  0.
   564  5.63  0.  0.
   565  5.64  0.  0.
   566  5.65  0.  0.
   567  5.66  0.  0.
   568  5.67  0.  0.
   569  5.68  0.  0.
   570  5.69  0.  0.
   571  5.70  0.  0.
   572  5.71  0.  0.
   573  5.72  0.  0.
   574  5.73  0.  0.
   575  5.74  0.  0.
   576  5.75  0.  0.
   577  5.76  0.  0.
   578  5.77  0.  0.
   579  5.78  0.  0.
   580  5.79  0.  0.
   581  5.80  0.  0.
   582  5.81  0.  0.
   583  5.82  0.  0.
   584  5.83  0.  0.
   585  5.84  0.  0.
   586  5.85  0.  0.
   587  5.86  0.  0.
   588  5.87  0.  0.
   589  5.88  0.  0.
   590  5.89  0.  0.
   591  5.90  0.  0.
   592  5.91  0.  0.
   593  5.92  0.  0.
   594  5.93  0.  0.
   595  5.94  0.  0.
   596  5.95  0.  0.
   597  5.96  0.  0.
   598  5.97  0.  0.
   599  5.98  0.  0.
   600  5.99  0.  0.
   1                         3.6262835241618E+00  6.5768319196355E-01
     1  0.0000000000000E+00 -3.3440993099654E-09  5.9176261529847E-09
     2  1.0000000000000E-02 -5.0689270534309E-04  1.6322859414791E-03
     3  2.0000000000000E-02 -2.0150849472778E-03  6.5061350727734E-03
     4  3.0000000000000E-02 -4.4872777841961E-03  1.4552803384423E-02
     5  4.0000000000000E-02 -7.8618334160885E-03  2.5658654517581E-02
     6  5.0000000000000E-02 -1.2053559443854E-02  3.9666553935093E-02
     7  6.0000000000000E-02 -1.6954794116091E-02  5.6377798261682E-02
     8  7.0000000000000E-02 -2.2436780016900E-02  7.5554557593771E-02
     9  8.0000000000000E-02 -2.8351310304127E-02  9.6922802661907E-02
    10  9.0000000000000E-02 -3.4532628440098E-02  1.2017568312323E-01
    11  1.0000000000000E-01 -4.0799559401711E-02  1.4497731803096E-01
    12  1.1000000000000E-01 -4.6957847646742E-02  1.7096695473033E-01
    13  1.2000000000000E-01 -5.2802674678845E-02  1.9776344812008E-01
    14  1.3000000000000E-01 -5.8121326922226E-02  2.2497000844328E-01
    15  1.4000000000000E-01 -6.2695982812647E-02  2.5217916257388E-01
    16  1.5000000000000E-01 -6.6306586554593E-02  2.7897787118233E-01
    17  1.6000000000000E-01 -6.8733774902022E-02  3.0495274222432E-01
    18  1.7000000000000E-01 -6.9761822604843E-02  3.2969527992352E-01
    19  1.8000000000000E-01 -6.9181571833759E-02  3.5280710782869E-01
    20  1.9000000000000E-01 -6.6793310956863E-02  3.7390510462341E-01
    21  2.0000000000000E-01 -6.2409568492603E-02  3.9262639215631E-01
    22  2.1000000000000E-01 -5.5857788901209E-02  4.0863311663037E-01
    23  2.2000000000000E-01 -4.6982858092179E-02  4.2161696603075E-01
    24  2.3000000000000E-01 -3.5649448106429E-02  4.3130336965578E-01
    25  2.4000000000000E-01 -2.1744152361526E-02  4.3745532901953E-01
    26  2.5000000000000E-01 -5.1773851069441E-03  4.3987683337840E-01
    27  2.6000000000000E-01  1.4114978700959E-02  4.3841581765691E-01
    28  2.7000000000000E-01  3.6170244054587E-02  4.3296662556117E-01
    29  2.8000000000000E-01  6.0997834945496E-02  4.2347194611771E-01
    30  2.9000000000000E-01  8.8578546374284E-02  4.0992419770228E-01
    31  3.0000000000000E-01  1.1886412040814E-01  3.9236633976394E-01
    32  3.1000000000000E-01  1.5177715375823E-01  3.7089209883847E-01
    33  3.2000000000000E-01  1.8721134063313E-01  3.4564560201113E-01
    34  3.3000000000000E-01  2.2503205084946E-01  3.1682041766080E-01
    35  3.4000000000000E-01  2.6507723938812E-01  2.8465801002197E-01
    36  3.5000000000000E-01  3.0715867981593E-01  2.4944562076423E-01
    37  3.6000000000000E-01  3.5106351028966E-01  2.1151359733687E-01
    38  3.7000000000000E-01  3.9655607726431E-01  1.7123219418643E-01
    39  3.8000000000000E-01  4.4338005857866E-01  1.2900787905636E-01
    40  3.9000000000000E-01  4.9126084432928E-01  8.5279182352245E-02
    41  4.0000000000000E-01  5.3990815090444E-01  4.0512132938008E-02
    42  4.1000000000000E-01  5.8901884076739E-01 -4.8046713431376E-03
    43  4.2000000000000E-01  6.3827991808548E-01 -5.0165305710112E-02
    44  4.3000000000000E-01  6.8737166812703E-01 -9.5052016477112E-02
    45  4.4000000000000E-01  7.3597090651667E-01 -1.3894091525569E-01
    46  4.5000000000000E-01  7.8375430297410E-01 -1.8130780689565E-01
    47  4.6000000000000E-01  8.3040174307955E-01 -2.2163408680389E-01
    48  4.7000000000000E-01  8.7559969092392E-01 -2.5941264205094E-01
    49  4.8000000000000E-01  9.1904451522427E-01 -2.9415369016354E-01
    50  4.9000000000000E-01  9.6044574161949E-01 -3.2539048971857E-01
    51  5.0000000000000E-01  9.9952919440853E-01 -3.5268485779908E-01
    52  5.1000000000000E-01  1.0360399919499E+00 -3.7563243104197E-01
    53  5.2000000000000E-01  1.0697453612987E+00 -3.9386760938361E-01
    54  5.3000000000000E-01  1.1004372394039E+00 -4.0706812467309E-01
    55  5.4000000000000E-01  1.1279346303041E+00 -4.1495918004210E-01
    56  5.5000000000000E-01  1.1520856902292E+00 -4.1731711025997E-01
    57  5.6000000000000E-01  1.1727695153069E+00 -4.1397251821666E-01
    58  5.7000000000000E-01  1.1898976096638E+00 -4.0481284811626E-01
    59  5.8000000000000E-01  1.2034150150606E+00 -3.8978436187186E-01
    60  5.9000000000000E-01  1.2133010867911E+00 -3.6889349150752E-01
    61  6.0000000000000E-01  1.2195699043414E+00 -3.4220754702812E-01
    62  6.1000000000000E-01  1.2222703092387E+00 -3.0985476614278E-01
    63  6.2000000000000E-01  1.2214855665509E+00 -2.7202369934738E-01
    64  6.3000000000000E-01  1.2173326506016E+00 -2.2896193111113E-01
    65  6.4000000000000E-01  1.2099611595893E+00 -1.8097414519200E-01
    66  6.5000000000000E-01  1.1995518678985E+00 -1.2841954934760E-01
    67  6.6000000000000E-01  1.1863149289254E+00 -7.1708681832265E-02
    68  6.7000000000000E-01  1.1704877451595E+00 -1.1299628999722E-02
    69  6.8000000000000E-01  1.1523325260278E+00  5.2306310013348E-02
    70  6.9000000000000E-01  1.1321335575750E+00  1.1856946923765E-01
    71  7.0000000000000E-01  1.1101942113832E+00  1.8691712427834E-01
    72  7.1000000000000E-01  1.0868337231868E+00  2.5674920959285E-01
    73  7.2000000000000E-01  1.0623837743812E+00  3.2744438619144E-01
    74  7.3000000000000E-01  1.0371849120283E+00  3.9836639705127E-01
    75  7.4000000000000E-01  1.0115828449860E+00  4.6887064392699E-01
    76  7.5000000000000E-01  9.8592465543014E-01  5.3831091632714E-01
    77  7.6000000000000E-01  9.6055496625226E-01  6.0604620124461E-01
    78  7.7000000000000E-01  9.3581210560884E-01  6.7144750080681E-01
    79  7.8000000000000E-01  9.1202431024114E-01  7.3390458436967E-01
    80  7.9000000000000E-01  8.8950600908264E-01  7.9283260172921E-01
    81  8.0000000000000E-01  8.6855422811639E-01  8.4767848506942E-01
    82  8.1000000000000E-01  8.4944515644265E-01  8.9792706900054E-01
    83  8.2000000000000E-01  8.3243091207448E-01  9.4310686055324E-01
    84  8.3000000000000E-01  8.1773654410990E-01  9.8279539425985E-01
    85  8.4000000000000E-01  8.0555730564970E-01  1.0166241114428E+00
    86  8.5000000000000E-01  7.9605622916321E-01  1.0442827075049E+00
    87  8.6000000000000E-01  7.8936203297580E-01  1.0655228963285E+00
    88  8.7000000000000E-01  7.8556738419240E-01  1.0801615467892E+00
    89  8.8000000000000E-01  7.8472753971530E-01  1.0880831528145E+00
    90  8.9000000000000E-01  7.8685938309884E-01  1.0892416052989E+00
    91  9.0000000000000E-01  7.9194087084956E-01  1.0836612414602E+00
    92  9.1000000000000E-01  7.9991089747092E-01  1.0714371548027E+00
    93  9.2000000000000E-01  8.1066958411249E-01  1.0527347566700E+00
    94  9.3000000000000E-01  8.2407899116087E-01  1.0277885883329E+00
    95  9.4000000000000E-01  8.3996425055299E-01  9.9690039058550E-01
    96  9.5000000000000E-01  8.5811510905003E-01  9.6043644583094E-01
    97  9.6000000000000E-01  8.7828786923052E-01  9.1882421553420E-01
    98  9.7000000000000E-01  9.0020771059465E-01  8.7254830362412E-01
    99  9.8000000000000E-01  9.2357136896410E-01  8.2214578385185E-01
   100  9.9000000000000E-01  9.4805014836098E-01  7.6820093617807E-01
   101  1.0000000000000E+00  9.7329323579923E-01  7.1133944388806E-01
   102  1.0100000000000E+00  9.9893128596307E-01  6.5222210924926E-01
   103  1.0200000000000E+00  1.0245802396210E+00  5.9153815105914E-01
   104  1.0300000000000E+00  1.0498453368658E+00  5.2999815231868E-01
   105  1.0400000000000E+00  1.0743252839085E+00  4.6832673045871E-01
   106  1.0500000000000E+00  1.0976165302241E+00  4.0725500598226E-01