Ge    ONCVPSP-4.0.1  r_core=   1.90839   1.80836   1.90839
     32.0000     14.0000      250925    zatom,zion,pspd
     8   -1012   2     4   600     0    pspcod,pspxc,lmax,lloc,mmax,r2well
  5.99000000  5.00000000  0.00000000    rchrg fchrg qchrg
     2     3     2     0    nproj
     3     1           extension_switch
     4     3     0    nprojso
   0                         6.1478758508068E+00  5.6376960512657E-01
     1  0.0000000000000E+00 -3.3872044058469E-11  9.0585136613974E-11
     2  1.0000000000000E-02  3.0462773335463E-02 -9.5160504594917E-03
     3  2.0000000000000E-02  6.0900819128836E-02 -1.9010005144874E-02
     4  3.0000000000000E-02  9.1289517021406E-02 -2.8459974041143E-02
     5  4.0000000000000E-02  1.2160446002688E-01 -3.7844476250142E-02
     6  5.0000000000000E-02  1.5182155874040E-01 -4.7142638568750E-02
     7  6.0000000000000E-02  1.8191714259908E-01 -5.6334386955389E-02
     8  7.0000000000000E-02  2.1186805725116E-01 -6.5400628621402E-02
     9  8.0000000000000E-02  2.4165175712501E-01 -7.4323422574442E-02
    10  9.0000000000000E-02  2.7124639233056E-01 -8.3086136552824E-02
    11  1.0000000000000E-01  3.0063088907594E-01 -9.1673588421785E-02
    12  1.1000000000000E-01  3.2978502283781E-01 -1.0007217025361E-01
    13  1.2000000000000E-01  3.5868948358835E-01 -1.0826995348254E-01
    14  1.3000000000000E-01  3.8732593245055E-01 -1.1625677371038E-01
    15  1.4000000000000E-01  4.1567704922970E-01 -1.2402429393864E-01
    16  1.5000000000000E-01  4.4372657034865E-01 -1.3156604521574E-01
    17  1.6000000000000E-01  4.7145931679987E-01 -1.3887744391172E-01
    18  1.7000000000000E-01  4.9886121181551E-01 -1.4595578506591E-01
    19  1.8000000000000E-01  5.2591928804851E-01 -1.5280021149304E-01
    20  1.9000000000000E-01  5.5262168415157E-01 -1.5941165857834E-01
    21  2.0000000000000E-01  5.7895763073600E-01 -1.6579277494017E-01
    22  2.1000000000000E-01  6.0491742578891E-01 -1.7194781938702E-01
    23  2.2000000000000E-01  6.3049239972271E-01 -1.7788253484258E-01
    24  2.3000000000000E-01  6.5567487032623E-01 -1.8360400015587E-01
    25  2.4000000000000E-01  6.8045808798036E-01 -1.8912046095016E-01
    26  2.5000000000000E-01  7.0483617159152E-01 -1.9444114089329E-01
    27  2.6000000000000E-01  7.2880403578489E-01 -1.9957603499068E-01
    28  2.7000000000000E-01  7.5235730998222E-01 -2.0453568670848E-01
    29  2.8000000000000E-01  7.7549225006903E-01 -2.0933095092632E-01
    30  2.9000000000000E-01  7.9820564342925E-01 -2.1397274489519E-01
    31  3.0000000000000E-01  8.2049470819351E-01 -2.1847178953379E-01
    32  3.1000000000000E-01  8.4235698760845E-01 -2.2283834353630E-01
    33  3.2000000000000E-01  8.6379024048853E-01 -2.2708193288172E-01
    34  3.3000000000000E-01  8.8479232875855E-01 -2.3121107843170E-01
    35  3.4000000000000E-01  9.0536110313336E-01 -2.3523302437685E-01
    36  3.5000000000000E-01  9.2549428801148E-01 -2.3915347034009E-01
    37  3.6000000000000E-01  9.4518936668072E-01 -2.4297630997086E-01
    38  3.7000000000000E-01  9.6444346794629E-01 -2.4670337886293E-01
    39  3.8000000000000E-01  9.8325325529509E-01 -2.5033421460267E-01
    40  3.9000000000000E-01  1.0016148197042E+00 -2.5386583170326E-01
    41  4.0000000000000E-01  1.0195235771859E+00 -2.5729251410352E-01
    42  4.1000000000000E-01  1.0369741721385E+00 -2.6060562780837E-01
    43  4.2000000000000E-01  1.0539603875359E+00 -2.6379345612161E-01
    44  4.3000000000000E-01  1.0704750629507E+00 -2.6684105977252E-01
    45  4.4000000000000E-01  1.0865100213513E+00 -2.6973016406485E-01
    46  4.5000000000000E-01  1.1020560055547E+00 -2.7243907498368E-01
    47  4.6000000000000E-01  1.1171026251516E+00 -2.7494262598123E-01
    48  4.7000000000000E-01  1.1316383146442E+00 -2.7721215693109E-01
    49  4.8000000000000E-01  1.1456503034551E+00 -2.7921552649081E-01
    50  4.9000000000000E-01  1.1591245983804E+00 -2.8091715884909E-01
    51  5.0000000000000E-01  1.1720459789646E+00 -2.8227812555732E-01
    52  5.1000000000000E-01  1.1843980061774E+00 -2.8325626285711E-01
    53  5.2000000000000E-01  1.1961630446703E+00 -2.8380632462054E-01
    54  5.3000000000000E-01  1.2073222987846E+00 -2.8388017071689E-01
    55  5.4000000000000E-01  1.2178558623739E+00 -2.8342699031507E-01
    56  5.5000000000000E-01  1.2277427823932E+00 -2.8239355932333E-01
    57  5.6000000000000E-01  1.2369611360973E+00 -2.8072453086334E-01
    58  5.7000000000000E-01  1.2454881215766E+00 -2.7836275737368E-01
    59  5.8000000000000E-01  1.2533001612509E+00 -2.7524964264337E-01
    60  5.9000000000000E-01  1.2603730178307E+00 -2.7132552178998E-01
    61  6.0000000000000E-01  1.2666819221489E+00 -2.6653006692218E-01
    62  6.1000000000000E-01  1.2722017121654E+00 -2.6080271596648E-01
    63  6.2000000000000E-01  1.2769069823439E+00 -2.5408312189304E-01
    64  6.3000000000000E-01  1.2807722425092E+00 -2.4631161934961E-01
    65  6.4000000000000E-01  1.2837720852055E+00 -2.3742970550710E-01
    66  6.5000000000000E-01  1.2858813604911E+00 -2.2738053173718E-01
    67  6.6000000000000E-01  1.2870753570351E+00 -2.1610940258292E-01
    68  6.7000000000000E-01  1.2873299883110E+00 -2.0356427835124E-01
    69  6.8000000000000E-01  1.2866219826263E+00 -1.8969627754886E-01
    70  6.9000000000000E-01  1.2849290756769E+00 -1.7446017530666E-01
    71  7.0000000000000E-01  1.2822302042752E+00 -1.5781489388928E-01
    72  7.1000000000000E-01  1.2785056998718E+00 -1.3972398136813E-01
    73  7.2000000000000E-01  1.2737374804677E+00 -1.2015607454954E-01
    74  7.3000000000000E-01  1.2679092395086E+00 -9.9085342292973E-02
    75  7.4000000000000E-01  1.2610066303481E+00 -7.6491905429211E-02
    76  7.5000000000000E-01  1.2530174448835E+00 -5.2362229594116E-02
    77  7.6000000000000E-01  1.2439317849846E+00 -2.6689487429254E-02
    78  7.7000000000000E-01  1.2337422253717E+00  5.2611323345779E-04
    79  7.8000000000000E-01  1.2224439666392E+00  2.9277038391649E-02
    80  7.9000000000000E-01  1.2100349771748E+00  5.9548177063713E-02
    81  8.0000000000000E-01  1.1965161227864E+00  9.1316633369948E-02
    82  8.1000000000000E-01  1.1818912829193E+00  1.2455156395012E-01
    83  8.2000000000000E-01  1.1661674524285E+00  1.5921406286873E-01
    84  8.3000000000000E-01  1.1493548279565E+00  1.9525709584348E-01
    85  8.4000000000000E-01  1.1314668780668E+00  2.3262548529939E-01
    86  8.5000000000000E-01  1.1125203963830E+00  2.7125594740016E-01
    87  8.6000000000000E-01  1.0925355370961E+00  3.1107718184651E-01
    88  8.7000000000000E-01  1.0715358323137E+00  3.5201001485635E-01
    89  8.8000000000000E-01  1.0495481908486E+00  3.9396759536147E-01
    90  8.9000000000000E-01  1.0266028781639E+00  4.3685564406746E-01
    91  9.0000000000000E-01  1.0027334773195E+00  4.8057275463671E-01
    92  9.1000000000000E-01  9.7797683089341E-01  5.2501074586549E-01
    93  9.2000000000000E-01  9.5237296397918E-01  5.7005506334391E-01
    94  9.3000000000000E-01  9.2596498848951E-01  6.1558522871038E-01
    95  9.4000000000000E-01  8.9879898912617E-01  6.6147533424646E-01
    96  9.5000000000000E-01  8.7092389150031E-01  7.0759458020418E-01
    97  9.6000000000000E-01  8.4239131301177E-01  7.5380785192094E-01
    98  9.7000000000000E-01  8.1325539721536E-01  7.9997633345767E-01
    99  9.8000000000000E-01  7.8357263251663E-01  8.4595815419850E-01
   100  9.9000000000000E-01  7.5340165614945E-01  8.9160906457586E-01
   101  1.0000000000000E+00  7.2280304449016E-01  9.3678313683715E-01
   102  1.0100000000000E+00  6.9183909085915E-01  9.8133348654926E-01
   103  1.0200000000000E+00  6.6057357204859E-01  1.0251130103464E+00
   104  1.0300000000000E+00  6.2907150489422E-01  1.0679751352699E+00
   105  1.0400000000000E+00  5.9739889427944E-01  1.1097745749225E+00
   106  1.0500000000000E+00  5.6562247402028E-01  1.1503680875697E+00
   107  1.0600000000000E+00  5.3380944213054E-01  1.1896152312654E+00
   108  1.0700000000000E+00  5.0202719200568E-01  1.2273791110587E+00
   109  1.0800000000000E+00  4.7034304109349E-01  1.2635271133580E+00
   110  1.0900000000000E+00  4.3882395863737E-01  1.2979316225810E+00
   111  1.1000000000000E+00  4.0753629408476E-01  1.3304707153067E+00
   112  1.1100000000000E+00  3.7654550774901E-01  1.3610288272774E+00
   113  1.1200000000000E+00  3.4591590529724E-01  1.3894973887517E+00
   114  1.1300000000000E+00  3.1571037761029E-01  1.4157754239114E+00
   115  1.1400000000000E+00  2.8599014752296E-01  1.4397701102471E+00
   116  1.1500000000000E+00  2.5681452490575E-01  1.4613972941100E+00
   117  1.1600000000000E+00  2.2824067148975E-01  1.4805819589023E+00
   118  1.1700000000000E+00  2.0032337677017E-01  1.4972586426958E+00
   119  1.1800000000000E+00  1.7311484624574E-01  1.5113718024057E+00
   120  1.1900000000000E+00  1.4666450316662E-01  1.5228761220120E+00
   121  1.2000000000000E+00  1.2101880486987E-01  1.5317367626993E+00
   122  1.2100000000000E+00  9.6221074681016E-02  1.5379295531866E+00
   123  1.2200000000000E+00  7.2311350253957E-02  1.5414411189296E+00
   124  1.2300000000000E+00  4.9326249108654E-02  1.5422689493029E+00
   125  1.2400000000000E+00  2.7298852009754E-02  1.5404214022948E+00
   126  1.2500000000000E+00  6.2586047084800E-03  1.5359176466880E+00
   127  1.2600000000000E+00 -1.3768761553188E-02  1.5287875421294E+00
   128  1.2700000000000E+00 -3.2761290501670E-02  1.5190714579238E+00
   129  1.2800000000000E+00 -5.0700842106539E-02  1.5068200318166E+00
   130  1.2900000000000E+00 -6.7573114648176E-02  1.4920938704427E+00
   131  1.3000000000000E+00 -8.3367647680762E-02  1.4749631935228E+00
   132  1.3100000000000E+00 -9.8077806115402E-02  1.4555074242785E+00
   133  1.3200000000000E+00 -1.1170074576798E-01  1.4338147289040E+00
   134  1.3300000000000E+00 -1.2423736083188E-01  1.4099815082798E+00
   135  1.3400000000000E+00 -1.3569221384677E-01  1.3841118454368E+00
   136  1.3500000000000E+00 -1.4607344883985E-01  1.3563169125718E+00
   137  1.3600000000000E+00 -1.5539268841549E-01  1.3267143416863E+00
   138  1.3700000000000E+00 -1.6366491566014E-01  1.2954275631472E+00
   139  1.3800000000000E+00 -1.7090834181471E-01  1.2625851166759E+00
   140  1.3900000000000E+00 -1.7714426074166E-01  1.2283199394332E+00
   141  1.4000000000000E+00 -1.8239689128143E-01  1.1927686359985E+00
   142  1.4100000000000E+00 -1.8669320865062E-01  1.1560707351339E+00
   143  1.4200000000000E+00 -1.9006276608228E-01  1.1183679382779E+00
   144  1.4300000000000E+00 -1.9253750794705E-01  1.0798033647279E+00
   145  1.4400000000000E+00 -1.9415157562195E-01  1.0405207984501E+00
   146  1.4500000000000E+00 -1.9494110739146E-01  1.0006639413922E+00
   147  1.4600000000000E+00 -1.9494403367330E-01  9.6037567807734E-01
   148  1.4700000000000E+00 -1.9419986885880E-01  9.1979735612032E-01
   149  1.4800000000000E+00 -1.9274950104528E-01  8.7906808713914E-01
   150  1.4900000000000E+00 -1.9063498091548E-01  8.3832407232553E-01
   151  1.5000000000000E+00 -1.8789931098771E-01  7.9769795670393E-01
   152  1.5100000000000E+00 -1.8458623641902E-01  7.5731821583805E-01
   153  1.5200000000000E+00 -1.8074003849512E-01  7.1730857844894E-01
   154  1.5300000000000E+00 -1.7640533188271E-01  6.7778748808588E-01
   155  1.5400000000000E+00 -1.7162686665539E-01  6.3886760664622E-01
   156  1.5500000000000E+00 -1.6644933603283E-01  6.0065536217664E-01
   157  1.5600000000000E+00 -1.6091719069497E-01  5.6325054300449E-01
   158  1.5700000000000E+00 -1.5507446045025E-01  5.2674593985321E-01
   159  1.5800000000000E+00 -1.4896458394965E-01  4.9122703718935E-01
   160  1.5900000000000E+00 -1.4263024704694E-01  4.5677175463514E-01
   161  1.6000000000000E+00 -1.3611323031212E-01  4.2345023886428E-01
   162  1.6100000000000E+00 -1.2945426610932E-01  3.9132470598104E-01
   163  1.6200000000000E+00 -1.2269290555343E-01  3.6044933396950E-01
   164  1.6300000000000E+00 -1.1586739556367E-01  3.3087020439345E-01
   165  1.6400000000000E+00 -1.0901456613555E-01  3.0262529213035E-01
   166  1.6500000000000E+00 -1.0216972785909E-01  2.7574450154052E-01
   167  1.6600000000000E+00 -9.5366579619039E-02  2.5024974710693E-01
   168  1.6700000000000E+00 -8.8637126324385E-02  2.2615507623409E-01
   169  1.6800000000000E+00 -8.2011606430311E-02  2.0346683157183E-01
   170  1.6900000000000E+00 -7.5518428936258E-02  1.8218384993183E-01
   171  1.7000000000000E+00 -6.9184119469688E-02  1.6229769459399E-01
   172  1.7100000000000E+00 -6.3033274997721E-02  1.4379291756074E-01
   173  1.7200000000000E+00 -5.7088526647533E-02  1.2664734810880E-01
   174  1.7300000000000E+00 -5.1370510014252E-02  1.1083240348570E-01
   175  1.7400000000000E+00 -4.5897842357337E-02  9.6313417988173E-02
   176  1.7500000000000E+00 -4.0687108647924E-02  8.3050003539599E-02
   177  1.7600000000000E+00 -3.5752840647993E-02  7.0996336860795E-02
   178  1.7700000000000E+00 -3.1107618907313E-02  6.0102244779366E-02
   179  1.7800000000000E+00 -2.6762308959177E-02  5.0315117955395E-02
   180  1.7900000000000E+00 -2.2726238866071E-02  4.1581218167475E-02
   181  1.8000000000000E+00 -1.9007168848957E-02  3.3845879159871E-02
   182  1.8100000000000E+00 -1.5611391639019E-02  2.7054152081106E-02
   183  1.8200000000000E+00 -1.2546104292447E-02  2.1158580873327E-02
   184  1.8300000000000E+00 -9.8202339757028E-03  1.6122052578886E-02
   185  1.8400000000000E+00 -7.4342819325715E-03  1.1886014614240E-02
   186  1.8500000000000E+00 -5.3870125568396E-03  8.3918768624504E-03
   187  1.8600000000000E+00 -3.6759608275720E-03  5.5828063596731E-03
   188  1.8700000000000E+00 -2.2975361841379E-03  3.4042237889209E-03
   189  1.8800000000000E+00 -1.2475618851404E-03  1.8048394803264E-03
   190  1.8900000000000E+00 -5.1677673947371E-04  7.3091443076559E-04
   191  1.9000000000000E+00 -1.1253202813738E-04  1.5576293083730E-04
   192  1.9100000000000E+00  6.0337825458612E-06 -7.9961619498690E-06
   193  1.9200000000000E+00 -1.7582377556789E-07  2.3897928947969E-07
   194  1.93  0.  0.
   195  1.94  0.  0.
   196  1.95  0.  0.
   197  1.96  0.  0.
   198  1.97  0.  0.
   199  1.98  0.  0.
   200  1.99  0.  0.
   201  2.00  0.  0.
   202  2.01  0.  0.
   203  2.02  0.  0.
   204  2.03  0.  0.
   205  2.04  0.  0.
   206  2.05  0.  0.
   207  2.06  0.  0.
   208  2.07  0.  0.
   209  2.08  0.  0.
   210  2.09  0.  0.
   211  2.10  0.  0.
   212  2.11  0.  0.
   213  2.12  0.  0.
   214  2.13  0.  0.
   215  2.14  0.  0.
   216  2.15  0.  0.
   217  2.16  0.  0.
   218  2.17  0.  0.
   219  2.18  0.  0.
   220  2.19  0.  0.
   221  2.20  0.  0.
   222  2.21  0.  0.
   223  2.22  0.  0.
   224  2.23  0.  0.
   225  2.24  0.  0.
   226  2.25  0.  0.
   227  2.26  0.  0.
   228  2.27  0.  0.
   229  2.28  0.  0.
   230  2.29  0.  0.
   231  2.30  0.  0.
   232  2.31  0.  0.
   233  2.32  0.  0.
   234  2.33  0.  0.
   235  2.34  0.  0.
   236  2.35  0.  0.
   237  2.36  0.  0.
   238  2.37  0.  0.
   239  2.38  0.  0.
   240  2.39  0.  0.
   241  2.40  0.  0.
   242  2.41  0.  0.
   243  2.42  0.  0.
   244  2.43  0.  0.
   245  2.44  0.  0.
   246  2.45  0.  0.
   247  2.46  0.  0.
   248  2.47  0.  0.
   249  2.48  0.  0.
   250  2.49  0.  0.
   251  2.50  0.  0.
   252  2.51  0.  0.
   253  2.52  0.  0.
   254  2.53  0.  0.
   255  2.54  0.  0.
   256  2.55  0.  0.
   257  2.56  0.  0.
   258  2.57  0.  0.
   259  2.58  0.  0.
   260  2.59  0.  0.
   261  2.60  0.  0.
   262  2.61  0.  0.
   263  2.62  0.  0.
   264  2.63  0.  0.
   265  2.64  0.  0.
   266  2.65  0.  0.
   267  2.66  0.  0.
   268  2.67  0.  0.
   269  2.68  0.  0.
   270  2.69  0.  0.
   271  2.70  0.  0.
   272  2.71  0.  0.
   273  2.72  0.  0.
   274  2.73  0.  0.
   275  2.74  0.  0.
   276  2.75  0.  0.
   277  2.76  0.  0.
   278  2.77  0.  0.
   279  2.78  0.  0.
   280  2.79  0.  0.
   281  2.80  0.  0.
   282  2.81  0.  0.
   283  2.82  0.  0.
   284  2.83  0.  0.
   285  2.84  0.  0.
   286  2.85  0.  0.
   287  2.86  0.  0.
   288  2.87  0.  0.
   289  2.88  0.  0.
   290  2.89  0.  0.
   291  2.90  0.  0.
   292  2.91  0.  0.
   293  2.92  0.  0.
   294  2.93  0.  0.
   295  2.94  0.  0.
   296  2.95  0.  0.
   297  2.96  0.  0.
   298  2.97  0.  0.
   299  2.98  0.  0.
   300  2.99  0.  0.
   301  3.00  0.  0.
   302  3.01  0.  0.
   303  3.02  0.  0.
   304  3.03  0.  0.
   305  3.04  0.  0.
   306  3.05  0.  0.
   307  3.06  0.  0.
   308  3.07  0.  0.
   309  3.08  0.  0.
   310  3.09  0.  0.
   311  3.10  0.  0.
   312  3.11  0.  0.
   313  3.12  0.  0.
   314  3.13  0.  0.
   315  3.14  0.  0.
   316  3.15  0.  0.
   317  3.16  0.  0.
   318  3.17  0.  0.
   319  3.18  0.  0.
   320  3.19  0.  0.
   321  3.20  0.  0.
   322  3.21  0.  0.
   323  3.22  0.  0.
   324  3.23  0.  0.
   325  3.24  0.  0.
   326  3.25  0.  0.
   327  3.26  0.  0.
   328  3.27  0.  0.
   329  3.28  0.  0.
   330  3.29  0.  0.
   331  3.30  0.  0.
   332  3.31  0.  0.
   333  3.32  0.  0.
   334  3.33  0.  0.
   335  3.34  0.  0.
   336  3.35  0.  0.
   337  3.36  0.  0.
   338  3.37  0.  0.
   339  3.38  0.  0.
   340  3.39  0.  0.
   341  3.40  0.  0.
   342  3.41  0.  0.
   343  3.42  0.  0.
   344  3.43  0.  0.
   345  3.44  0.  0.
   346  3.45  0.  0.
   347  3.46  0.  0.
   348  3.47  0.  0.
   349  3.48  0.  0.
   350  3.49  0.  0.
   351  3.50  0.  0.
   352  3.51  0.  0.
   353  3.52  0.  0.
   354  3.53  0.  0.
   355  3.54  0.  0.
   356  3.55  0.  0.
   357  3.56  0.  0.
   358  3.57  0.  0.
   359  3.58  0.  0.
   360  3.59  0.  0.
   361  3.60  0.  0.
   362  3.61  0.  0.
   363  3.62  0.  0.
   364  3.63  0.  0.
   365  3.64  0.  0.
   366  3.65  0.  0.
   367  3.66  0.  0.
   368  3.67  0.  0.
   369  3.68  0.  0.
   370  3.69  0.  0.
   371  3.70  0.  0.
   372  3.71  0.  0.
   373  3.72  0.  0.
   374  3.73  0.  0.
   375  3.74  0.  0.
   376  3.75  0.  0.
   377  3.76  0.  0.
   378  3.77  0.  0.
   379  3.78  0.  0.
   380  3.79  0.  0.
   381  3.80  0.  0.
   382  3.81  0.  0.
   383  3.82  0.  0.
   384  3.83  0.  0.
   385  3.84  0.  0.
   386  3.85  0.  0.
   387  3.86  0.  0.
   388  3.87  0.  0.
   389  3.88  0.  0.
   390  3.89  0.  0.
   391  3.90  0.  0.
   392  3.91  0.  0.
   393  3.92  0.  0.
   394  3.93  0.  0.
   395  3.94  0.  0.
   396  3.95  0.  0.
   397  3.96  0.  0.
   398  3.97  0.  0.
   399  3.98  0.  0.
   400  3.99  0.  0.
   401  4.00  0.  0.
   402  4.01  0.  0.
   403  4.02  0.  0.
   404  4.03  0.  0.
   405  4.04  0.  0.
   406  4.05  0.  0.
   407  4.06  0.  0.
   408  4.07  0.  0.
   409  4.08  0.  0.
   410  4.09  0.  0.
   411  4.10  0.  0.
   412  4.11  0.  0.
   413  4.12  0.  0.
   414  4.13  0.  0.
   415  4.14  0.  0.
   416  4.15  0.  0.
   417  4.16  0.  0.
   418  4.17  0.  0.
   419  4.18  0.  0.
   420  4.19  0.  0.
   421  4.20  0.  0.
   422  4.21  0.  0.
   423  4.22  0.  0.
   424  4.23  0.  0.
   425  4.24  0.  0.
   426  4.25  0.  0.
   427  4.26  0.  0.
   428  4.27  0.  0.
   429  4.28  0.  0.
   430  4.29  0.  0.
   431  4.30  0.  0.
   432  4.31  0.  0.
   433  4.32  0.  0.
   434  4.33  0.  0.
   435  4.34  0.  0.
   436  4.35  0.  0.
   437  4.36  0.  0.
   438  4.37  0.  0.
   439  4.38  0.  0.
   440  4.39  0.  0.
   441  4.40  0.  0.
   442  4.41  0.  0.
   443  4.42  0.  0.
   444  4.43  0.  0.
   445  4.44  0.  0.
   446  4.45  0.  0.
   447  4.46  0.  0.
   448  4.47  0.  0.
   449  4.48  0.  0.
   450  4.49  0.  0.
   451  4.50  0.  0.
   452  4.51  0.  0.
   453  4.52  0.  0.
   454  4.53  0.  0.
   455  4.54  0.  0.
   456  4.55  0.  0.
   457  4.56  0.  0.
   458  4.57  0.  0.
   459  4.58  0.  0.
   460  4.59  0.  0.
   461  4.60  0.  0.
   462  4.61  0.  0.
   463  4.62  0.  0.
   464  4.63  0.  0.
   465  4.64  0.  0.
   466  4.65  0.  0.
   467  4.66  0.  0.
   468  4.67  0.  0.
   469  4.68  0.  0.
   470  4.69  0.  0.
   471  4.70  0.  0.
   472  4.71  0.  0.
   473  4.72  0.  0.
   474  4.73  0.  0.
   475  4.74  0.  0.
   476  4.75  0.  0.
   477  4.76  0.  0.
   478  4.77  0.  0.
   479  4.78  0.  0.
   480  4.79  0.  0.
   481  4.80  0.  0.
   482  4.81  0.  0.
   483  4.82  0.  0.
   484  4.83  0.  0.
   485  4.84  0.  0.
   486  4.85  0.  0.
   487  4.86  0.  0.
   488  4.87  0.  0.
   489  4.88  0.  0.
   490  4.89  0.  0.
   491  4.90  0.  0.
   492  4.91  0.  0.
   493  4.92  0.  0.
   494  4.93  0.  0.
   495  4.94  0.  0.
   496  4.95  0.  0.
   497  4.96  0.  0.
   498  4.97  0.  0.
   499  4.98  0.  0.
   500  4.99  0.  0.
   501  5.00  0.  0.
   502  5.01  0.  0.
   503  5.02  0.  0.
   504  5.03  0.  0.
   505  5.04  0.  0.
   506  5.05  0.  0.
   507  5.06  0.  0.
   508  5.07  0.  0.
   509  5.08  0.  0.
   510  5.09  0.  0.
   511  5.10  0.  0.
   512  5.11  0.  0.
   513  5.12  0.  0.
   514  5.13  0.  0.
   515  5.14  0.  0.
   516  5.15  0.  0.
   517  5.16  0.  0.
   518  5.17  0.  0.
   519  5.18  0.  0.
   520  5.19  0.  0.
   521  5.20  0.  0.
   522  5.21  0.  0.
   523  5.22  0.  0.
   524  5.23  0.  0.
   525  5.24  0.  0.
   526  5.25  0.  0.
   527  5.26  0.  0.
   528  5.27  0.  0.
   529  5.28  0.  0.
   530  5.29  0.  0.
   531  5.30  0.  0.
   532  5.31  0.  0.
   533  5.32  0.  0.
   534  5.33  0.  0.
   535  5.34  0.  0.
   536  5.35  0.  0.
   537  5.36  0.  0.
   538  5.37  0.  0.
   539  5.38  0.  0.
   540  5.39  0.  0.
   541  5.40  0.  0.
   542  5.41  0.  0.
   543  5.42  0.  0.
   544  5.43  0.  0.
   545  5.44  0.  0.
   546  5.45  0.  0.
   547  5.46  0.  0.
   548  5.47  0.  0.
   549  5.48  0.  0.
   550  5.49  0.  0.
   551  5.50  0.  0.
   552  5.51  0.  0.
   553  5.52  0.  0.
   554  5.53  0.  0.
   555  5.54  0.  0.
   556  5.55  0.  0.
   557  5.56  0.  0.
   558  5.57  0.  0.
   559  5.58  0.  0.
   560  5.59  0.  0.
   561  5.60  0.  0.
   562  5.61  0.  0.
   563  5.62  0.  0.
   564  5.63  0.  0.
   565  5.64  0.  0.
   566  5.65  0.  0.
   567  5.66  0.  0.
   568  5.67  0.  0.
   569  5.68  0.  0.
   570  5.69  0.  0.
   571  5.70  0.  0.
   572  5.71  0.  0.
   573  5.72  0.  0.
   574  5.73  0.  0.
   575  5.74  0.  0.
   576  5.75  0.  0.
   577  5.76  0.  0.
   578  5.77  0.  0.
   579  5.78  0.  0.
   580  5.79  0.  0.
   581  5.80  0.  0.
   582  5.81  0.  0.
   583  5.82  0.  0.
   584  5.83  0.  0.
   585  5.84  0.  0.
   586  5.85  0.  0.
   587  5.86  0.  0.
   588  5.87  0.  0.
   589  5.88  0.  0.
   590  5.89  0.  0.
   591  5.90  0.  0.
   592  5.91  0.  0.
   593  5.92  0.  0.
   594  5.93  0.  0.
   595  5.94  0.  0.
   596  5.95  0.  0.
   597  5.96  0.  0.
   598  5.97  0.  0.
   599  5.98  0.  0.
   600  5.99  0.  0.
   1                         3.6311867856583E+00  6.6096102155371E-01  7.2275459198466E-03
     1  0.0000000000000E+00 -3.3591850412407E-09  5.9321876855201E-09 -3.6428964844681E-09
     2  1.0000000000000E-02 -5.1166406856111E-04  1.6382340465279E-03 -1.2850291682685E-03
     3  2.0000000000000E-02 -2.0341111816929E-03  6.5298739400276E-03 -5.1259918593582E-03
     4  3.0000000000000E-02 -4.5298654597074E-03  1.4606015673322E-02 -1.1480684558239E-02
     5  4.0000000000000E-02 -7.9369965885154E-03  2.5752758420378E-02 -2.0279335827842E-02
     6  5.0000000000000E-02 -1.2169907624196E-02  3.9812601973061E-02 -3.1425450967867E-02
     7  6.0000000000000E-02 -1.7120425145839E-02  5.6586380597826E-02 -4.4796980671595E-02
     8  7.0000000000000E-02 -2.2659179153642E-02  7.5835711058304E-02 -6.0247800001321E-02
     9  8.0000000000000E-02 -2.8637256750079E-02  9.7285926617519E-02 -7.7609480360097E-02
    10  9.0000000000000E-02 -3.4888110460268E-02  1.2062946321430E-01 -9.6693333687470E-02
    11  1.0000000000000E-01 -4.1229699079173E-02  1.4552965876503E-01 -1.1729270489133E-01
    12  1.1000000000000E-01 -4.7466836211041E-02  1.7162492173296E-01 -1.3918548558140E-01
    13  1.2000000000000E-01 -5.3393719221086E-02  1.9853322078596E-01 -1.6213681952643E-01
    14  1.3000000000000E-01 -5.8796609178331E-02  2.2585684357973E-01 -1.8590196794707E-01
    15  1.4000000000000E-01 -6.3456630556010E-02  2.5318736949805E-01 -2.1022930080570E-01
    16  1.5000000000000E-01 -6.7152657992537E-02  2.8011079859262E-01 -2.3486337868524E-01
    17  1.6000000000000E-01 -6.9664256318673E-02  3.0621277702113E-01 -2.5954808868175E-01
    18  1.7000000000000E-01 -7.0774639337979E-02  3.3108385800663E-01 -2.8402979698108E-01
    19  1.8000000000000E-01 -7.0273612516620E-02  3.5432473674893E-01 -3.0806048046016E-01
    20  1.9000000000000E-01 -6.7960464799598E-02  3.7555139781821E-01 -3.3140079975266E-01
    21  2.0000000000000E-01 -6.3646775223657E-02  3.9440011435204E-01 -3.5382307674600E-01
    22  2.1000000000000E-01 -5.7159100838389E-02  4.1053223985295E-01 -3.7511414042843E-01
    23  2.2000000000000E-01 -4.8341513667976E-02  4.2363873552900E-01 -3.9507800637183E-01
    24  2.3000000000000E-01 -3.7057956034108E-02  4.3344437891379E-01 -4.1353835690301E-01
    25  2.4000000000000E-01 -2.3194385499147E-02  4.3971160291396E-01 -4.3034079116657E-01
    26  2.5000000000000E-01 -6.6606829572194E-03  4.4224391842730E-01 -4.4535481679234E-01
    27  2.6000000000000E-01  1.2607700024700E-02  4.4088887820890E-01 -4.5847555772369E-01
    28  2.7000000000000E-01  3.4648375660947E-02  4.3554054468892E-01 -4.6962515590957E-01
    29  2.8000000000000E-01  5.9470954141650E-02  4.2614142990904E-01 -4.7875384797778E-01
    30  2.9000000000000E-01  8.7056292198333E-02  4.1268388158625E-01 -4.8584070165494E-01
    31  3.0000000000000E-01  1.1735606717917E-01  3.9521089546953E-01 -4.9089400053852E-01
    32  3.1000000000000E-01  1.5029268414006E-01  3.7381634055944E-01 -4.9395126981630E-01
    33  3.2000000000000E-01  1.8575951972493E-01  3.4864459034389E-01 -4.9507893962717E-01
    34  3.3000000000000E-01  2.2362150281656E-01  3.1988955989208E-01 -4.9437164691572E-01
    35  3.4000000000000E-01  2.6371602812918E-01  2.8779315536994E-01 -4.9195118080908E-01
    36  3.5000000000000E-01  3.0585419512849E-01  2.5264314922081E-01 -4.8796508068951E-01
    37  3.6000000000000E-01  3.4982236094521E-01  2.1477050081914E-01 -4.8258490020466E-01
    38  3.7000000000000E-01  3.9538399233651E-01  1.7454614878139E-01 -4.7600415440473E-01
    39  3.8000000000000E-01  4.4228179828543E-01  1.3237730723503E-01 -4.6843597097494E-01
    40  3.9000000000000E-01  4.9024012155172E-01  8.8703304134854E-02 -4.6011047010365E-01
    41  4.0000000000000E-01  5.3896756443352E-01  4.3991005111358E-02 -4.5127190084667E-01
    42  4.1000000000000E-01  5.8815982120519E-01 -1.2701287236027E-03 -4.4217556488107E-01
    43  4.2000000000000E-01  6.3750268719170E-01 -4.6573296159103E-02 -4.3308456125110E-01
    44  4.3000000000000E-01  6.8667521225581E-01 -9.1399867733321E-02 -4.2426638806241E-01
    45  4.4000000000000E-01  7.3535296463421E-01 -1.3522509406590E-01 -4.1598943905020E-01
    46  4.5000000000000E-01  7.8321136958689E-01 -1.7752394807957E-01 -4.0851943451026E-01
    47  4.6000000000000E-01  8.2992908623649E-01 -2.1777703658127E-01 -4.0211582721501E-01
    48  4.7000000000000E-01  8.7519138528655E-01 -2.5547651544117E-01 -3.9702822462887E-01
    49  4.8000000000000E-01  9.1869349002842E-01 -2.9013194209659E-01 -3.9349286897511E-01
    50  4.9000000000000E-01  9.6014384318137E-01 -3.2127599932595E-01 -3.9172921648401E-01
    51  5.0000000000000E-01  9.9926726266036E-01 -3.4847002518706E-01 -3.9193665647177E-01
    52  5.1000000000000E-01  1.0358079503264E+00 -3.7130928568816E-01 -3.9429140976114E-01
    53  5.2000000000000E-01  1.0695323191385E+00 -3.8942792914421E-01 -3.9894364437144E-01
    54  5.3000000000000E-01  1.1002316058787E+00 -4.0250356424309E-01 -4.0601484438903E-01
    55  5.4000000000000E-01  1.1277242387502E+00 -4.1026140757695E-01 -4.1559546549959E-01
    56  5.5000000000000E-01  1.1518579316254E+00 -4.1247795074537E-01 -4.2774290784318E-01
    57  5.6000000000000E-01  1.1725114795267E+00 -4.0898410206540E-01 -4.4247983367231E-01
    58  5.7000000000000E-01  1.1895962330260E+00 -3.9966776337882E-01 -4.5979285377948E-01
    59  5.8000000000000E-01  1.2030572326190E+00 -3.8447580837119E-01 -4.7963160285669E-01
    60  5.9000000000000E-01  1.2128739877281E+00 -3.6341543515003E-01 -5.0190821988571E-01
    61  6.0000000000000E-01  1.2190608887803E+00 -3.3655487250318E-01 -5.2649724538594E-01
    62  6.1000000000000E-01  1.2216672447521E+00 -3.0402342620158E-01 -5.5323594290290E-01
    63  6.2000000000000E-01  1.2207769426266E+00 -2.6601085885102E-01 -5.8192504755803E-01
    64  6.3000000000000E-01  1.2165077293273E+00 -2.2276610405597E-01 -6.1232993984411E-01
    65  6.4000000000000E-01  1.2090101208398E+00 -1.7459532295879E-01 -6.4418223819163E-01
    66  6.5000000000000E-01  1.1984659473476E+00 -1.2185931847894E-01 -6.7718179920024E-01
    67  6.6000000000000E-01  1.1850865472630E+00 -6.4970329720198E-02 -7.1099910987456E-01
    68  6.7000000000000E-01  1.1691106269709E+00 -4.3882359618377E-03 -7.4527805177740E-01
    69  6.8000000000000E-01  1.1508018068860E+00  5.9383793677114E-02 -7.7963901276157E-01
    70  6.9000000000000E-01  1.1304458780066E+00  1.2580416248383E-01 -8.1368231791490E-01
    71  7.0000000000000E-01  1.1083477964956E+00  1.9429817198380E-01 -8.4699194759174E-01
    72  7.1000000000000E-01  1.0848284468825E+00  2.6426375761164E-01 -8.7913950695772E-01
    73  7.2000000000000E-01  1.0602212072421E+00  3.3507757559814E-01 -9.0968840837304E-01
    74  7.3000000000000E-01  1.0348683521116E+00  4.0610137817891E-01 -9.3819822522963E-01
    75  7.4000000000000E-01  1.0091173309542E+00  4.7668861061237E-01 -9.6422917356140E-01
    76  7.5000000000000E-01  9.8331696161391E-01  5.4619116057440E-01 -9.8734667589973E-01
    77  7.6000000000000E-01  9.5781357943723E-01  6.1396618830965E-01 -1.0071259604656E+00
    78  7.7000000000000E-01  9.3294718352760E-01  6.7938296449462E-01 -1.0231566479009E+00
    79  7.8000000000000E-01  9.0904762194625E-01  7.4182964212422E-01 -1.0350472773471E+00
    80  7.9000000000000E-01  8.8643085757103E-01  8.0071988888481E-01 -1.0424297238013E+00
    81  8.0000000000000E-01  8.6539535576729E-01  8.5549930742491E-01 -1.0449634593057E+00