Xe    ONCVPSP-4.0.1  r_core=   2.00830   1.80329   2.21002
     54.0000      8.0000      231019    zatom,zion,pspd
     8       2   2     4   600     0    pspcod,pspxc,lmax,lloc,mmax,r2well
  5.99000000  8.00000000  0.00000000    rchrg fchrg qchrg
     2     2     2     0     0    nproj
     1     1           extension_switch
   0                         8.0999379213267E+00  1.2859575779015E+00
     1  0.0000000000000E+00 -1.1282491607645E-10  2.1073341682776E-10
     2  1.0000000000000E-02  3.1835681913079E-02 -1.6569017447528E-02
     3  2.0000000000000E-02  6.3595905785311E-02 -3.3022044249823E-02
     4  3.0000000000000E-02  9.5205751683400E-02 -4.9244018346675E-02
     5  4.0000000000000E-02  1.2659137183725E-01 -6.5121727553134E-02
     6  5.0000000000000E-02  1.5768051662053E-01 -8.0544716313786E-02
     7  6.0000000000000E-02  1.8840304849004E-01 -9.5406170786694E-02
     8  7.0000000000000E-02  2.1869144000314E-01 -1.0960377528192E-01
     9  8.0000000000000E-02  2.4848125214531E-01 -1.2304053329033E-01
    10  9.0000000000000E-02  2.7771158933934E-01 -1.3562554659887E-01
    11  1.0000000000000E-01  3.0632552767332E-01 -1.4727474629755E-01
    12  1.1000000000000E-01  3.3427051307472E-01 -1.5791156983797E-01
    13  1.2000000000000E-01  3.6149872637142E-01 -1.6746757870182E-01
    14  1.3000000000000E-01  3.8796741241654E-01 -1.7588301167694E-01
    15  1.4000000000000E-01  4.1363917070996E-01 -1.8310726921560E-01
    16  1.5000000000000E-01  4.3848220522433E-01 -1.8909932486126E-01
    17  1.6000000000000E-01  4.6247053143560E-01 -1.9382806027236E-01
    18  1.7000000000000E-01  4.8558413886444E-01 -1.9727252094155E-01
    19  1.8000000000000E-01  5.0780910775502E-01 -1.9942209030135E-01
    20  1.9000000000000E-01  5.2913767884781E-01 -2.0027658051926E-01
    21  2.0000000000000E-01  5.4956827554191E-01 -1.9984623891168E-01
    22  2.1000000000000E-01  5.6910547808754E-01 -1.9815166954309E-01
    23  2.2000000000000E-01  5.8775994979798E-01 -1.9522367021959E-01
    24  2.3000000000000E-01  6.0554831562050E-01 -1.9110298572957E-01
    25  2.4000000000000E-01  6.2249299375500E-01 -1.8583997882529E-01
    26  2.5000000000000E-01  6.3862198135470E-01 -1.7949422107136E-01
    27  2.6000000000000E-01  6.5396859568331E-01 -1.7213400630640E-01
    28  2.7000000000000E-01  6.6857117243450E-01 -1.6383579006717E-01
    29  2.8000000000000E-01  6.8247272324085E-01 -1.5468355890621E-01
    30  2.9000000000000E-01  6.9572055470756E-01 -1.4476813408964E-01
    31  3.0000000000000E-01  7.0836585159951E-01 -1.3418641468819E-01
    32  3.1000000000000E-01  7.2046322708628E-01 -1.2304056556650E-01
    33  3.2000000000000E-01  7.3207024320686E-01 -1.1143715623063E-01
    34  3.3000000000000E-01  7.4324690495132E-01 -9.9486256907212E-02
    35  3.4000000000000E-01  7.5405513157017E-01 -8.7300498597073E-02
    36  3.5000000000000E-01  7.6455820891060E-01 -7.4994104168503E-02
    37  3.6000000000000E-01  7.7482022674148E-01 -6.2681897827228E-02
    38  3.7000000000000E-01  7.8490550516496E-01 -5.0478300520532E-02
    39  3.8000000000000E-01  7.9487801431945E-01 -3.8496318998750E-02
    40  3.9000000000000E-01  8.0480079165719E-01 -2.6846536367489E-02
    41  4.0000000000000E-01  8.1473536112760E-01 -1.5636112017369E-02
    42  4.1000000000000E-01  8.2474115861543E-01 -4.9677988132570E-03
    43  4.2000000000000E-01  8.3487496796966E-01  5.0610146375051E-03
    44  4.3000000000000E-01  8.4519037191476E-01  1.4359228939477E-02
    45  4.4000000000000E-01  8.5573722206163E-01  2.2842918566267E-02
    46  4.5000000000000E-01  8.6656113212946E-01  3.0436168936491E-02
    47  4.6000000000000E-01  8.7770299835508E-01  3.7071858915749E-02
    48  4.7000000000000E-01  8.8919855090108E-01  4.2692382097603E-02
    49  4.8000000000000E-01  9.0107793988141E-01  4.7250300614035E-02
    50  4.9000000000000E-01  9.1336535940289E-01  5.0708925673004E-02
    51  5.0000000000000E-01  9.2607871277500E-01  5.3042819514899E-02
    52  5.1000000000000E-01  9.3922932177009E-01  5.4238214017352E-02
    53  5.2000000000000E-01  9.5282168252328E-01  5.4293341755663E-02
    54  5.3000000000000E-01  9.6685327034779E-01  5.3218675940307E-02
    55  5.4000000000000E-01  9.8131439540902E-01  5.1037076299280E-02
    56  5.5000000000000E-01  9.9618811085252E-01  4.7783838647142E-02
    57  5.6000000000000E-01  1.0114501746177E+00  4.3506646579833E-02
    58  5.7000000000000E-01  1.0270690657954E+00  3.8265424449788E-02
    59  5.8000000000000E-01  1.0430060560030E+00  3.2132091504558E-02
    60  5.9000000000000E-01  1.0592153358622E+00  2.5190217808865E-02
    61  6.0000000000000E-01  1.0756441962697E+00  1.7534583309358E-02
    62  6.1000000000000E-01  1.0922332637568E+00  9.2706421382468E-03
    63  6.2000000000000E-01  1.1089167888423E+00  5.1389498051203E-04
    64  6.3000000000000E-01  1.1256229858921E+00 -8.6108269552984E-03
    65  6.4000000000000E-01  1.1422744226213E+00 -1.7970162126258E-02
    66  6.5000000000000E-01  1.1587884570030E+00 -2.7423098095743E-02
    67  6.6000000000000E-01  1.1750777189887E+00 -3.6821924673967E-02
    68  6.7000000000000E-01  1.1910506341062E+00 -4.6013254598300E-02
    69  6.8000000000000E-01  1.2066119856738E+00 -5.4839105023582E-02
    70  6.9000000000000E-01  1.2216635120704E+00 -6.3138032567109E-02
    71  7.0000000000000E-01  1.2361045352149E+00 -7.0746314174732E-02
    72  7.1000000000000E-01  1.2498326161607E+00 -7.7499165649226E-02
    73  7.2000000000000E-01  1.2627442334745E+00 -8.3231989311290E-02
    74  7.3000000000000E-01  1.2747354798781E+00 -8.7781641952856E-02
    75  7.4000000000000E-01  1.2857027724562E+00 -9.0987713992588E-02
    76  7.5000000000000E-01  1.2955435716018E+00 -9.2693810558490E-02
    77  7.6000000000000E-01  1.3041571037661E+00 -9.2748825103728E-02
    78  7.7000000000000E-01  1.3114450830110E+00 -9.1008196110793E-02
    79  7.8000000000000E-01  1.3173124263294E+00 -8.7335137457065E-02
    80  7.9000000000000E-01  1.3216679577017E+00 -8.1601833102436E-02
    81  8.0000000000000E-01  1.3244250958918E+00 -7.3690586916497E-02
    82  8.1000000000000E-01  1.3255025210649E+00 -6.3494918688990E-02
    83  8.2000000000000E-01  1.3248248154136E+00 -5.0920597661544E-02
    84  8.3000000000000E-01  1.3223230731289E+00 -3.5886605279341E-02
    85  8.4000000000000E-01  1.3179354752267E+00 -1.8326019287128E-02
    86  8.5000000000000E-01  1.3116078249574E+00  1.8131882186259E-03
    87  8.6000000000000E-01  1.3032940397677E+00  2.4567445622643E-02
    88  8.7000000000000E-01  1.2929565960591E+00  4.9956975747797E-02
    89  8.8000000000000E-01  1.2805669232930E+00  7.7985294520735E-02
    90  8.9000000000000E-01  1.2661057443193E+00  1.0863881922914E-01
    91  9.0000000000000E-01  1.2495633591643E+00  1.4188659050934E-01
    92  9.1000000000000E-01  1.2309398698865E+00  1.7768011142096E-01
    93  9.2000000000000E-01  1.2102453445088E+00  2.1595330615126E-01
    94  9.3000000000000E-01  1.1874999184463E+00  2.5662260005129E-01
    95  9.4000000000000E-01  1.1627338322765E+00  2.9958712184499E-01
    96  9.5000000000000E-01  1.1359874051385E+00  3.4472902797717E-01
    97  9.6000000000000E-01  1.1073109434892E+00  3.9191394818332E-01
    98  9.7000000000000E-01  1.0767645853998E+00  4.4099155047964E-01
    99  9.8000000000000E-01  1.0444180810215E+00  4.9179622289250E-01
   100  9.9000000000000E-01  1.0103505103043E+00  5.4414786837886E-01
   101  1.0000000000000E+00  9.7464993949187E-01  5.9785280854012E-01
   102  1.0100000000000E+00  9.3741301835326E-01  6.5270479090743E-01
   103  1.0200000000000E+00  8.9874452053584E-01  7.0848609378326E-01
   104  1.0300000000000E+00  8.5875682983064E-01  7.6496872186790E-01
   105  1.0400000000000E+00  8.1756937553282E-01  8.2191568518727E-01
   106  1.0500000000000E+00  7.7530802044851E-01  8.7908235317460E-01
   107  1.0600000000000E+00  7.3210440544494E-01  9.3621787514890E-01
   108  1.0700000000000E+00  6.8809525475900E-01  9.9306665788381E-01
   109  1.0800000000000E+00  6.4342164656920E-01  1.0493698904737E+00
   110  1.0900000000000E+00  5.9822825359437E-01  1.1048671062859E+00
   111  1.1000000000000E+00  5.5266255870684E-01  1.1592977714428E+00
   112  1.1100000000000E+00  5.0687405073813E-01  1.2124028890031E+00
   113  1.1200000000000E+00  4.6101340580734E-01  1.2639266078225E+00
   114  1.1300000000000E+00  4.1523165961772E-01  1.3136178249548E+00
   115  1.1400000000000E+00  3.6967937624252E-01  1.3612317704229E+00
   116  1.1500000000000E+00  3.2450581895683E-01  1.4065315632403E+00
   117  1.1600000000000E+00  2.7985812866831E-01  1.4492897276886E+00
   118  1.1700000000000E+00  2.3588051545462E-01  1.4892896590740E+00
   119  1.1800000000000E+00  1.9271346863089E-01  1.5263270284761E+00
   120  1.1900000000000E+00  1.5049299064598E-01  1.5602111163737E+00
   121  1.2000000000000E+00  1.0934985994278E-01  1.5907660654839E+00
   122  1.2100000000000E+00  6.9408927717433E-02  1.6178320436684E+00
   123  1.2200000000000E+00  3.0788453273888E-02  1.6412663083610E+00
   124  1.2300000000000E+00 -6.4005176009180E-03  1.6609441646212E+00
   125  1.2400000000000E+00 -4.2054727121380E-02  1.6767598096484E+00
   126  1.2500000000000E+00 -7.6079229062860E-02  1.6886270573645E+00
   127  1.2600000000000E+00 -1.0838785797465E-01  1.6964799375023E+00
   128  1.2700000000000E+00 -1.3890364101494E-01  1.7002731645158E+00
   129  1.2800000000000E+00 -1.6755914978681E-01  1.6999824725390E+00
   130  1.2900000000000E+00 -1.9429678998488E-01  1.6956048135657E+00
   131  1.3000000000000E+00 -2.1906902711037E-01  1.6871584169983E+00
   132  1.3100000000000E+00 -2.4183854697250E-01  1.6746827097019E+00
   133  1.3200000000000E+00 -2.6257835016139E-01  1.6582380966963E+00
   134  1.3300000000000E+00 -2.8127178015606E-01  1.6379056036299E+00
   135  1.3400000000000E+00 -2.9791248520684E-01  1.6137863831754E+00
   136  1.3500000000000E+00 -3.1250431460796E-01  1.5860010884730E+00
   137  1.3600000000000E+00 -3.2506115044708E-01  1.5546891177186E+00
   138  1.3700000000000E+00 -3.3560667638221E-01  1.5200077349345E+00
   139  1.3800000000000E+00 -3.4417408544577E-01  1.4821310728675E+00
   140  1.3900000000000E+00 -3.5080572931086E-01  1.4412490248254E+00
   141  1.4000000000000E+00 -3.5555271187007E-01  1.3975660330785E+00
   142  1.4100000000000E+00 -3.5847443037217E-01  1.3512997822231E+00
   143  1.4200000000000E+00 -3.5963806772921E-01  1.3026798065983E+00
   144  1.4300000000000E+00 -3.5911803994790E-01  1.2519460214942E+00
   145  1.4400000000000E+00 -3.5699540294872E-01  1.1993471884472E+00
   146  1.4500000000000E+00 -3.5335722331274E-01  1.1451393254151E+00
   147  1.4600000000000E+00 -3.4829591773869E-01  1.0895840730344E+00
   148  1.4700000000000E+00 -3.4190856619673E-01  1.0329470284875E+00
   149  1.4800000000000E+00 -3.3429620393170E-01  9.7549605875428E-01
   150  1.4900000000000E+00 -3.2556309759515E-01  9.1749960517410E-01
   151  1.5000000000000E+00 -3.1581601087058E-01  8.5922499131051E-01
   152  1.5100000000000E+00 -3.0516346500077E-01  8.0093674608678E-01
   153  1.5200000000000E+00 -2.9371499962847E-01  7.4289495404557E-01
   154  1.5300000000000E+00 -2.8158043932229E-01  6.8535364438164E-01
   155  1.5400000000000E+00 -2.6886917107951E-01  6.2855923010549E-01
   156  1.5500000000000E+00 -2.5568943797610E-01  5.7274900831751E-01
   157  1.5600000000000E+00 -2.4214765397399E-01  5.1814973211190E-01
   158  1.5700000000000E+00 -2.2834774469642E-01  4.6497626408874E-01
   159  1.5800000000000E+00 -2.1439051874731E-01  4.1343032083701E-01
   160  1.5900000000000E+00 -2.0037307388005E-01  3.6369931706364E-01
   161  1.6000000000000E+00 -1.8638824201892E-01  3.1595531729140E-01
   162  1.6100000000000E+00 -1.7252407680430E-01  2.7035410223523E-01
   163  1.6200000000000E+00 -1.5886338697206E-01  2.2703435609922E-01
   164  1.6300000000000E+00 -1.4548331849574E-01  1.8611698012513E-01
   165  1.6400000000000E+00 -1.3245498801246E-01  1.4770453676563E-01
   166  1.6500000000000E+00 -1.1984316963262E-01  1.1188082787191E-01
   167  1.6600000000000E+00 -1.0770603679493E-01  7.8710609272145E-02
   168  1.6700000000000E+00 -9.6094960380455E-02  4.8239443088775E-02
   169  1.6800000000000E+00 -8.5054363843608E-02  2.0493688104189E-02
   170  1.6900000000000E+00 -7.4621635658832E-02 -4.5193725547857E-03
   171  1.7000000000000E+00 -6.4827098922852E-02 -2.6811268175650E-02
   172  1.7100000000000E+00 -5.5694037496920E-02 -4.6411944441738E-02
   173  1.7200000000000E+00 -4.7238777625864E-02 -6.3369238410556E-02
   174  1.7300000000000E+00 -3.9470823534160E-02 -7.7748229226617E-02
   175  1.7400000000000E+00 -3.2393045076947E-02 -8.9630470232714E-02
   176  1.7500000000000E+00 -2.6001915120150E-02 -9.9113109023165E-02
   177  1.7600000000000E+00 -2.0287793940454E-02 -1.0630790281167E-01
   178  1.7700000000000E+00 -1.5235257577568E-02 -1.1134013725520E-01
   179  1.7800000000000E+00 -1.0823466705881E-02 -1.1434745771942E-01
   180  1.7900000000000E+00 -7.0265722975667E-03 -1.1547862254666E-01
   181  1.8000000000000E+00 -3.8141566379167E-03 -1.1489217813497E-01
   182  1.8100000000000E+00 -1.1516935894394E-03 -1.1275511481000E-01
   183  1.8200000000000E+00  9.9880843045494E-04 -1.0924082627741E-01
   184  1.8300000000000E+00  2.6780537694964E-03 -1.0452670042543E-01
   185  1.8400000000000E+00  3.9288238958847E-03 -9.8792263356014E-02
   186  1.8500000000000E+00  4.7954263623309E-03 -9.2217704553662E-02
   187  1.8600000000000E+00  5.3231275024792E-03 -8.4982348560608E-02
   188  1.8700000000000E+00  5.5575922390588E-03 -7.7263159808024E-02
   189  1.8800000000000E+00  5.5443240829130E-03 -6.9233263058764E-02
   190  1.8900000000000E+00  5.3281202217148E-03 -6.1060509837160E-02
   191  1.9000000000000E+00  4.9526263687390E-03 -5.2906254152941E-02
   192  1.9100000000000E+00  4.4589477352986E-03 -4.4922353194960E-02
   193  1.9200000000000E+00  3.8792255198189E-03 -3.7238604949707E-02
   194  1.9300000000000E+00  3.2479084912521E-03 -2.9983895726481E-02
   195  1.9400000000000E+00  2.6034219265926E-03 -2.3289098712841E-02
   196  1.9500000000000E+00  1.9794085452032E-03 -1.7270151120923E-02
   197  1.9600000000000E+00  1.4055540768604E-03 -1.2029403834664E-02
   198  1.9700000000000E+00  9.0708534863418E-04 -7.6544739413019E-03
   199  1.9800000000000E+00  5.0469416289895E-04 -4.2192423630400E-03
   200  1.9900000000000E+00  2.1208428493327E-04 -1.7645758829405E-03
   201  2.0000000000000E+00  4.6902169780136E-05 -3.9040974945471E-04
   202  2.0100000000000E+00 -2.9774642874944E-06  2.4193830405191E-05
   203  2.0200000000000E+00 -2.7259472046483E-07  2.2504565131287E-06
   204  2.03  0. -0.
   205  2.04 -0.  0.
   206  2.05  0. -0.
   207  2.06  0.  0.
   208  2.07  0.  0.
   209  2.08  0.  0.
   210  2.09  0.  0.
   211  2.10  0.  0.
   212  2.11  0.  0.
   213  2.12  0.  0.
   214  2.13  0.  0.
   215  2.14  0.  0.
   216  2.15  0.  0.
   217  2.16  0.  0.
   218  2.17  0.  0.
   219  2.18  0.  0.
   220  2.19  0.  0.
   221  2.20  0.  0.
   222  2.21  0.  0.
   223  2.22  0.  0.
   224  2.23  0.  0.
   225  2.24  0.  0.
   226  2.25  0.  0.
   227  2.26  0.  0.
   228  2.27  0.  0.
   229  2.28  0.  0.
   230  2.29  0.  0.
   231  2.30  0.  0.
   232  2.31  0.  0.
   233  2.32  0.  0.
   234  2.33  0.  0.
   235  2.34  0.  0.
   236  2.35  0.  0.
   237  2.36  0.  0.
   238  2.37  0.  0.
   239  2.38  0.  0.
   240  2.39  0.  0.
   241  2.40  0.  0.
   242  2.41  0.  0.
   243  2.42  0.  0.
   244  2.43  0.  0.
   245  2.44  0.  0.
   246  2.45  0.  0.
   247  2.46  0.  0.
   248  2.47  0.  0.
   249  2.48  0.  0.
   250  2.49  0.  0.
   251  2.50  0.  0.
   252  2.51  0.  0.
   253  2.52  0.  0.
   254  2.53  0.  0.
   255  2.54  0.  0.
   256  2.55  0.  0.
   257  2.56  0.  0.
   258  2.57  0.  0.
   259  2.58  0.  0.
   260  2.59  0.  0.
   261  2.60  0.  0.
   262  2.61  0.  0.
   263  2.62  0.  0.
   264  2.63  0.  0.
   265  2.64  0.  0.
   266  2.65  0.  0.
   267  2.66  0.  0.
   268  2.67  0.  0.
   269  2.68  0.  0.
   270  2.69  0.  0.
   271  2.70  0.  0.
   272  2.71  0.  0.
   273  2.72  0.  0.
   274  2.73  0.  0.
   275  2.74  0.  0.
   276  2.75  0.  0.
   277  2.76  0.  0.
   278  2.77  0.  0.
   279  2.78  0.  0.
   280  2.79  0.  0.
   281  2.80  0.  0.
   282  2.81  0.  0.
   283  2.82  0.  0.
   284  2.83  0.  0.
   285  2.84  0.  0.
   286  2.85  0.  0.
   287  2.86  0.  0.
   288  2.87  0.  0.
   289  2.88  0.  0.
   290  2.89  0.  0.
   291  2.90  0.  0.
   292  2.91  0.  0.
   293  2.92  0.  0.
   294  2.93  0.  0.
   295  2.94  0.  0.
   296  2.95  0.  0.
   297  2.96  0.  0.
   298  2.97  0.  0.
   299  2.98  0.  0.
   300  2.99  0.  0.
   301  3.00  0.  0.
   302  3.01  0.  0.
   303  3.02  0.  0.
   304  3.03  0.  0.
   305  3.04  0.  0.
   306  3.05  0.  0.
   307  3.06  0.  0.
   308  3.07  0.  0.
   309  3.08  0.  0.
   310  3.09  0.  0.
   311  3.10  0.  0.
   312  3.11  0.  0.
   313  3.12  0.  0.
   314  3.13  0.  0.
   315  3.14  0.  0.
   316  3.15  0.  0.
   317  3.16  0.  0.
   318  3.17  0.  0.
   319  3.18  0.  0.
   320  3.19  0.  0.
   321  3.20  0.  0.
   322  3.21  0.  0.
   323  3.22  0.  0.
   324  3.23  0.  0.
   325  3.24  0.  0.
   326  3.25  0.  0.
   327  3.26  0.  0.
   328  3.27  0.  0.
   329  3.28  0.  0.
   330  3.29  0.  0.
   331  3.30  0.  0.
   332  3.31  0.  0.
   333  3.32  0.  0.
   334  3.33  0.  0.
   335  3.34  0.  0.
   336  3.35  0.  0.
   337  3.36  0.  0.
   338  3.37  0.  0.
   339  3.38  0.  0.
   340  3.39  0.  0.
   341  3.40  0.  0.
   342  3.41  0.  0.
   343  3.42  0.  0.
   344  3.43  0.  0.
   345  3.44  0.  0.
   346  3.45  0.  0.
   347  3.46  0.  0.
   348  3.47  0.  0.
   349  3.48  0.  0.
   350  3.49  0.  0.
   351  3.50  0.  0.
   352  3.51  0.  0.
   353  3.52  0.  0.
   354  3.53  0.  0.
   355  3.54  0.  0.
   356  3.55  0.  0.
   357  3.56  0.  0.
   358  3.57  0.  0.
   359  3.58  0.  0.
   360  3.59  0.  0.
   361  3.60  0.  0.
   362  3.61  0.  0.
   363  3.62  0.  0.
   364  3.63  0.  0.
   365  3.64  0.  0.
   366  3.65  0.  0.
   367  3.66  0.  0.
   368  3.67  0.  0.
   369  3.68  0.  0.
   370  3.69  0.  0.
   371  3.70  0.  0.
   372  3.71  0.  0.
   373  3.72  0.  0.
   374  3.73  0.  0.
   375  3.74  0.  0.
   376  3.75  0.  0.
   377  3.76  0.  0.
   378  3.77  0.  0.
   379  3.78  0.  0.
   380  3.79  0.  0.
   381  3.80  0.  0.
   382  3.81  0.  0.
   383  3.82  0.  0.
   384  3.83  0.  0.
   385  3.84  0.  0.
   386  3.85  0.  0.
   387  3.86  0.  0.
   388  3.87  0.  0.
   389  3.88  0.  0.
   390  3.89  0.  0.
   391  3.90  0.  0.
   392  3.91  0.  0.
   393  3.92  0.  0.
   394  3.93  0.  0.
   395  3.94  0.  0.
   396  3.95  0.  0.
   397  3.96  0.  0.
   398  3.97  0.  0.
   399  3.98  0.  0.
   400  3.99  0.  0.
   401  4.00  0.  0.
   402  4.01  0.  0.
   403  4.02  0.  0.
   404  4.03  0.  0.
   405  4.04  0.  0.
   406  4.05  0.  0.
   407  4.06  0.  0.
   408  4.07  0.  0.
   409  4.08  0.  0.
   410  4.09  0.  0.
   411  4.10  0.  0.
   412  4.11  0.  0.
   413  4.12  0.  0.
   414  4.13  0.  0.
   415  4.14  0.  0.
   416  4.15  0.  0.
   417  4.16  0.  0.
   418  4.17  0.  0.
   419  4.18  0.  0.
   420  4.19  0.  0.
   421  4.20  0.  0.
   422  4.21  0.  0.
   423  4.22  0.  0.
   424  4.23  0.  0.
   425  4.24  0.  0.
   426  4.25  0.  0.
   427  4.26  0.  0.
   428  4.27  0.  0.
   429  4.28  0.  0.
   430  4.29  0.  0.
   431  4.30  0.  0.
   432  4.31  0.  0.
   433  4.32  0.  0.
   434  4.33  0.  0.
   435  4.34  0.  0.
   436  4.35  0.  0.
   437  4.36  0.  0.
   438  4.37  0.  0.
   439  4.38  0.  0.
   440  4.39  0.  0.
   441  4.40  0.  0.
   442  4.41  0.  0.
   443  4.42  0.  0.
   444  4.43  0.  0.
   445  4.44  0.  0.
   446  4.45  0.  0.
   447  4.46  0.  0.
   448  4.47  0.  0.
   449  4.48  0.  0.
   450  4.49  0.  0.
   451  4.50  0.  0.
   452  4.51  0.  0.
   453  4.52  0.  0.
   454  4.53  0.  0.
   455  4.54  0.  0.
   456  4.55  0.  0.
   457  4.56  0.  0.
   458  4.57  0.  0.
   459  4.58  0.  0.
   460  4.59  0.  0.
   461  4.60  0.  0.
   462  4.61  0.  0.
   463  4.62  0.  0.
   464  4.63  0.  0.
   465  4.64  0.  0.
   466  4.65  0.  0.
   467  4.66  0.  0.
   468  4.67  0.  0.
   469  4.68  0.  0.
   470  4.69  0.  0.
   471  4.70  0.  0.
   472  4.71  0.  0.
   473  4.72  0.  0.
   474  4.73  0.  0.
   475  4.74  0.  0.
   476  4.75  0.  0.
   477  4.76  0.  0.
   478  4.77  0.  0.
   479  4.78  0.  0.
   480  4.79  0.  0.
   481  4.80  0.  0.
   482  4.81  0.  0.
   483  4.82  0.  0.
   484  4.83  0.  0.
   485  4.84  0.  0.
   486  4.85  0.  0.
   487  4.86  0.  0.
   488  4.87  0.  0.
   489  4.88  0.  0.
   490  4.89  0.  0.
   491  4.90  0.  0.
   492  4.91  0.  0.
   493  4.92  0.  0.
   494  4.93  0.  0.
   495  4.94  0.  0.
   496  4.95  0.  0.
   497  4.96  0.  0.
   498  4.97  0.  0.
   499  4.98  0.  0.
   500  4.99  0.  0.
   501  5.00  0.  0.
   502  5.01  0.  0.
   503  5.02  0.  0.
   504  5.03  0.  0.
   505  5.04  0.  0.
   506  5.05  0.  0.
   507  5.06  0.  0.
   508  5.07  0.  0.
   509  5.08  0.  0.
   510  5.09  0.  0.
   511  5.10  0.  0.
   512  5.11  0.  0.
   513  5.12  0.  0.
   514  5.13  0.  0.
   515  5.14  0.  0.
   516  5.15  0.  0.
   517  5.16  0.  0.
   518  5.17  0.  0.
   519  5.18  0.  0.
   520  5.19  0.  0.
   521  5.20  0.  0.
   522  5.21  0.  0.
   523  5.22  0.  0.
   524  5.23  0.  0.
   525  5.24  0.  0.
   526  5.25  0.  0.
   527  5.26  0.  0.
   528  5.27  0.  0.
   529  5.28  0.  0.
   530  5.29  0.  0.
   531  5.30  0.  0.
   532  5.31  0.  0.
   533  5.32  0.  0.
   534  5.33  0.  0.
   535  5.34  0.  0.
   536  5.35  0.  0.
   537  5.36  0.  0.
   538  5.37  0.  0.
   539  5.38  0.  0.
   540  5.39  0.  0.
   541  5.40  0.  0.
   542  5.41  0.  0.
   543  5.42  0.  0.
   544  5.43  0.  0.
   545  5.44  0.  0.
   546  5.45  0.  0.
   547  5.46  0.  0.
   548  5.47  0.  0.
   549  5.48  0.  0.
   550  5.49  0.  0.
   551  5.50  0.  0.
   552  5.51  0.  0.
   553  5.52  0.  0.
   554  5.53  0.  0.
   555  5.54  0.  0.
   556  5.55  0.  0.
   557  5.56  0.  0.
   558  5.57  0.  0.
   559  5.58  0.  0.
   560  5.59  0.  0.
   561  5.60  0.  0.
   562  5.61  0.  0.
   563  5.62  0.  0.
   564  5.63  0.  0.
   565  5.64  0.  0.
   566  5.65  0.  0.
   567  5.66  0.  0.
   568  5.67  0.  0.
   569  5.68  0.  0.
   570  5.69  0.  0.
   571  5.70  0.  0.
   572  5.71  0.  0.
   573  5.72  0.  0.
   574  5.73  0.  0.
   575  5.74  0.  0.
   576  5.75  0.  0.
   577  5.76  0.  0.
   578  5.77  0.  0.
   579  5.78  0.  0.
   580  5.79  0.  0.
   581  5.80  0.  0.
   582  5.81  0.  0.
   583  5.82  0.  0.
   584  5.83  0.  0.
   585  5.84  0.  0.
   586  5.85  0.  0.
   587  5.86  0.  0.
   588  5.87  0.  0.
   589  5.88  0.  0.
   590  5.89  0.  0.
   591  5.90  0.  0.
   592  5.91  0.  0.
   593  5.92  0.  0.
   594  5.93  0.  0.
   595  5.94  0.  0.
   596  5.95  0.  0.
   597  5.96  0.  0.
   598  5.97  0.  0.
   599  5.98  0.  0.
   600  5.99  0.  0.
   1                         5.4702767789825E+00  8.7939944824269E-01
     1  0.0000000000000E+00  6.5188060366372E-09 -1.3597374157182E-08
     2  1.0000000000000E-02  1.0796244061446E-03 -1.4733605672441E-03
     3  2.0000000000000E-02  4.3044936291617E-03 -5.8653240905921E-03
     4  3.0000000000000E-02  9.6328266617048E-03 -1.3092014595948E-02
     5  4.0000000000000E-02  1.6995754707722E-02 -2.3015226245202E-02
     6  5.0000000000000E-02  2.6298457567446E-02 -3.5444777505642E-02
     7  6.0000000000000E-02  3.7421728905170E-02 -5.0141753404981E-02
     8  7.0000000000000E-02  5.0223945209289E-02 -6.6822583298529E-02
     9  8.0000000000000E-02  6.4543406735291E-02 -8.5163887977693E-02
    10  9.0000000000000E-02  8.0201012698186E-02 -1.0480801738937E-01
    11  1.0000000000000E-01  9.7003227545724E-02 -1.2536918891181E-01
    12  1.1000000000000E-01  1.1474529038286E-01 -1.4644012622281E-01
    13  1.2000000000000E-01  1.3321461560669E-01 -1.6759909045861E-01
    14  1.3000000000000E-01  1.5219432961272E-01 -1.8841718872857E-01
    15  1.4000000000000E-01  1.7146688609991E-01 -2.0846584023041E-01
    16  1.5000000000000E-01  1.9081770107019E-01 -2.2732427728067E-01
    17  1.6000000000000E-01  2.1003874811397E-01 -2.4458695758735E-01
    18  1.7000000000000E-01  2.2893205500500E-01 -2.5987076506486E-01
    19  1.8000000000000E-01  2.4731304399282E-01 -2.7282187941661E-01
    20  1.9000000000000E-01  2.6501366045875E-01 -2.8312219954753E-01
    21  2.0000000000000E-01  2.8188523776123E-01 -2.9049521254673E-01
    22  2.1000000000000E-01  2.9780105008914E-01 -2.9471120840254E-01
    23  2.2000000000000E-01  3.1265850991128E-01 -2.9559175065145E-01
    24  2.3000000000000E-01  3.2638097208193E-01 -2.9301332466822E-01
    25  2.4000000000000E-01  3.3891911275658E-01 -2.8691009810318E-01
    26  2.5000000000000E-01  3.5025185789413E-01 -2.7727574186894E-01
    27  2.6000000000000E-01  3.6038684317253E-01 -2.6416427486062E-01
    28  2.7000000000000E-01  3.6936039451622E-01 -2.4768991103434E-01
    29  2.8000000000000E-01  3.7723702601227E-01 -2.2802590333039E-01
    30  2.9000000000000E-01  3.8410845966158E-01 -2.0540239496435E-01
    31  3.0000000000000E-01  3.9009217905372E-01 -1.8010330457373E-01
    32  3.1000000000000E-01  3.9532953654978E-01 -1.5246228734854E-01
    33  3.2000000000000E-01  3.9998344079033E-01 -1.2285782934829E-01
    34  3.3000000000000E-01  4.0423565820258E-01 -9.1707546476278E-02
    35  3.4000000000000E-01  4.0828376855265E-01 -5.9461772818885E-02
    36  3.5000000000000E-01  4.1233782037624E-01 -2.6596535051212E-02
    37  3.6000000000000E-01  4.1661673722874E-01  6.3939798329886E-03
    38  3.7000000000000E-01  4.2134453004416E-01  3.9005347261953E-02
    39  3.8000000000000E-01  4.2674637440645E-01  7.0731094903343E-02
    40  3.9000000000000E-01  4.3304461416027E-01  1.0107103085671E-01
    41  4.0000000000000E-01  4.4045475447331E-01  1.2953957818706E-01
    42  4.1000000000000E-01  4.4918150817798E-01  1.5567398247325E-01
    43  4.2000000000000E-01  4.5941495894904E-01  1.7904225982707E-01
    44  4.3000000000000E-01  4.7132690361339E-01  1.9925075569666E-01
    45  4.4000000000000E-01  4.8506743365144E-01  2.1595118967332E-01
    46  4.5000000000000E-01  5.0076181276439E-01  2.2884706841076E-01
    47  4.6000000000000E-01  5.1850770329013E-01  2.3769935755094E-01
    48  4.7000000000000E-01  5.3837278930938E-01  2.4233131410687E-01
    49  4.8000000000000E-01  5.6039283856251E-01  2.4263239293344E-01
    50  4.9000000000000E-01  5.8457023887864E-01  2.3856115454461E-01
    51  5.0000000000000E-01  6.1087303779456E-01  2.3014711641328E-01
    52  5.1000000000000E-01  6.3923450651607E-01  2.1749150579795E-01
    53  5.2000000000000E-01  6.6955324145841E-01  2.0076688884266E-01
    54  5.3000000000000E-01  7.0169380841475E-01  1.8021566794315E-01
    55  5.4000000000000E-01  7.3548792606427E-01  1.5614745690350E-01
    56  5.5000000000000E-01  7.7073617717136E-01  1.2893536095511E-01
    57  5.6000000000000E-01  8.0721022757085E-01  9.9011206008051E-02
    58  5.7000000000000E-01  8.4465552500899E-01  6.6859778283719E-02
    59  5.8000000000000E-01  8.8279444223957E-01  3.3012151478433E-02
    60  5.9000000000000E-01  9.2132982157819E-01 -1.9618064227168E-03
    61  6.0000000000000E-01  9.5994887151027E-01 -3.7461640860313E-02
    62  6.1000000000000E-01  9.9832736003288E-01 -7.2865114908559E-02
    63  6.2000000000000E-01  1.0361340442847E+00 -1.0753748141591E-01
    64  6.3000000000000E-01  1.0730352717654E+00 -1.4084108585543E-01
    65  6.4000000000000E-01  1.1086996851371E+00 -1.7214515601136E-01
    66  6.5000000000000E-01  1.1428029602965E+00 -2.0083563010958E-01
    67  6.6000000000000E-01  1.1750325061479E+00 -2.2632487270064E-01
    68  6.7000000000000E-01  1.2050920543223E+00 -2.4806112758000E-01
    69  6.8000000000000E-01  1.2327060679926E+00 -2.6553755930305E-01
    70  6.9000000000000E-01  1.2576239009199E+00 -2.7830073940839E-01
    71  7.0000000000000E-01  1.2796236409115E+00 -2.8595844025589E-01
    72  7.1000000000000E-01  1.2985155759477E+00 -2.8818660833179E-01
    73  7.2000000000000E-01  1.3141452262750E+00 -2.8473539985994E-01
    74  7.3000000000000E-01  1.3263958917191E+00 -2.7543417443673E-01
    75  7.4000000000000E-01  1.3351906702423E+00 -2.6019535700187E-01
    76  7.5000000000000E-01  1.3404939112760E+00 -2.3901709456596E-01
    77  7.6000000000000E-01  1.3423120754841E+00 -2.1198465150660E-01
    78  7.7000000000000E-01  1.3406939812486E+00 -1.7927050567204E-01
    79  7.8000000000000E-01  1.3357304271811E+00 -1.4113312672517E-01
    80  7.9000000000000E-01  1.3275531892288E+00 -9.7914437840377E-02
    81  8.0000000000000E-01  1.3163334003204E+00 -5.0035981741047E-02
    82  8.1000000000000E-01  1.3022793298460E+00  2.0061681616453E-03
    83  8.2000000000000E-01  1.2856335894511E+00  5.7647691393755E-02
    84  8.3000000000000E-01  1.2666698004965E+00  1.1626341999207E-01
    85  8.4000000000000E-01  1.2456887669781E+00  1.7717575751128E-01
    86  8.5000000000000E-01  1.2230142055579E+00  2.3966400450470E-01
    87  8.6000000000000E-01  1.1989880915335E+00  3.0297446258729E-01
    88  8.7000000000000E-01  1.1739656859299E+00  3.6633117600922E-01
    89  8.8000000000000E-01  1.1483103143554E+00  4.2894715845374E-01
    90  8.9000000000000E-01  1.1223879727131E+00  4.9003594371087E-01
    91  9.0000000000000E-01  1.0965618382394E+00  5.4882329212396E-01
    92  9.1000000000000E-01  1.0711867665850E+00  6.0455888038491E-01
    93  9.2000000000000E-01  1.0466038567201E+00  6.5652780045129E-01
    94  9.3000000000000E-01  1.0231351653035E+00  7.0406169412892E-01
    95  9.4000000000000E-01  1.0010786508060E+00  7.4654935321891E-01
    96  9.5000000000000E-01  9.8070342511733E-01  7.8344662104438E-01
    97  9.6000000000000E-01  9.6224538663076E-01  8.1428543958835E-01
    98  9.7000000000000E-01  9.4590330393342E-01  8.3868189728563E-01
    99  9.8000000000000E-01  9.3183541328769E-01  8.5634314558657E-01