Xe    ONCVPSP-4.0.1  r_core=   2.00830   1.80329   2.21002
     54.0000      8.0000      250217    zatom,zion,pspd
     8       2   2     4   600     0    pspcod,pspxc,lmax,lloc,mmax,r2well
  5.99000000  8.00000000  0.00000000    rchrg fchrg qchrg
     2     3     2     0    nproj
     3     1           extension_switch
     4     4     0    nprojso
   0                         8.0986545804810E+00  1.2840991297123E+00
     1  0.0000000000000E+00 -1.1250625431281E-10  2.1036815345266E-10
     2  1.0000000000000E-02  3.1781069446944E-02 -1.6558908710579E-02
     3  2.0000000000000E-02  6.3486919071652E-02 -3.3002026443057E-02
     4  3.0000000000000E-02  9.5042865666942E-02 -4.9214489282657E-02
     5  4.0000000000000E-02  1.2637529521459E-01 -6.5083280158183E-02
     6  5.0000000000000E-02  1.5741218740550E-01 -8.0498134109675E-02
     7  6.0000000000000E-02  1.8808362815063E-01 -9.5352421920525E-02
     8  7.0000000000000E-02  2.1832230621211E-01 -1.0954400515018E-01
     9  8.0000000000000E-02  2.4806399019663E-01 -1.2297605581396E-01
    10  9.0000000000000E-02  2.7724798229213E-01 -1.3555783421656E-01
    11  1.0000000000000E-01  3.0581754529432E-01 -1.4720541875441E-01
    12  1.1000000000000E-01  3.3372029965852E-01 -1.5784238185603E-01
    13  1.2000000000000E-01  3.6090858752628E-01 -1.6740040662730E-01
    14  1.3000000000000E-01  3.8733980091056E-01 -1.7581983920744E-01
    15  1.4000000000000E-01  4.1297667147935E-01 -1.8305017231715E-01
    16  1.5000000000000E-01  4.3778751965155E-01 -1.8905045599172E-01
    17  1.6000000000000E-01  4.6174646101009E-01 -1.9378963203283E-01
    18  1.7000000000000E-01  4.8483356834336E-01 -1.9724678928211E-01
    19  1.8000000000000E-01  5.0703498794472E-01 -1.9941133741069E-01
    20  1.9000000000000E-01  5.2834300912951E-01 -2.0028309753045E-01
    21  2.0000000000000E-01  5.4875608626677E-01 -1.9987230855763E-01
    22  2.1000000000000E-01  5.6827881296716E-01 -1.9819954889588E-01
    23  2.2000000000000E-01  5.8692184841619E-01 -1.9529557364682E-01
    24  2.3000000000000E-01  6.0470179619148E-01 -1.9120106819982E-01
    25  2.4000000000000E-01  6.2164103625051E-01 -1.8596631969152E-01
    26  2.5000000000000E-01  6.3776751112070E-01 -1.7965080845779E-01
    27  2.6000000000000E-01  6.5311446766226E-01 -1.7232272221954E-01
    28  2.7000000000000E-01  6.6772015610513E-01 -1.6405839634610E-01
    29  2.8000000000000E-01  6.8162748838178E-01 -1.5494168412075E-01
    30  2.9000000000000E-01  6.9488365808484E-01 -1.4506326148746E-01
    31  3.0000000000000E-01  7.0753972467128E-01 -1.3451987128400E-01
    32  3.1000000000000E-01  7.1965016480999E-01 -1.2341351245728E-01
    33  3.2000000000000E-01  7.3127239402618E-01 -1.1185058021125E-01
    34  3.3000000000000E-01  7.4246626203103E-01 -9.9940963450763E-02
    35  3.4000000000000E-01  7.5329352533776E-01 -8.7797106253221E-02
    36  3.5000000000000E-01  7.6381730095352E-01 -7.5533040422103E-02
    37  3.6000000000000E-01  7.7410150509865E-01 -6.3263396447807E-02
    38  3.7000000000000E-01  7.8421028104063E-01 -5.1102400421468E-02
    39  3.8000000000000E-01  7.9420742023653E-01 -3.9162864612758E-02
    40  3.9000000000000E-01  8.0415578105640E-01 -2.7555179533151E-02
    41  4.0000000000000E-01  8.1411670940754E-01 -1.6386315359043E-02
    42  4.1000000000000E-01  8.2414946559783E-01 -5.7588405848665E-03
    43  4.2000000000000E-01  8.3431066176283E-01  4.2300342862654E-03
    44  4.3000000000000E-01  8.4465371413792E-01  1.3489380327494E-02
    45  4.4000000000000E-01  8.5522831438168E-01  2.1935433540152E-02
    46  4.5000000000000E-01  8.6607992405224E-01  2.9492430699365E-02
    47  4.6000000000000E-01  8.7724929620268E-01  3.6093390710830E-02
    48  4.7000000000000E-01  8.8877202789803E-01  4.1680834841255E-02
    49  4.8000000000000E-01  9.0067814726347E-01  4.6207439581699E-02
    50  4.9000000000000E-01  9.1299173845417E-01  4.9636616349653E-02
    51  5.0000000000000E-01  9.2573060769169E-01  5.1943012728753E-02
    52  5.1000000000000E-01  9.3890599324235E-01  5.3112930481851E-02
    53  5.2000000000000E-01  9.5252232192096E-01  5.3144656150172E-02
    54  5.3000000000000E-01  9.6657701439051E-01  5.2048700664210E-02
    55  5.4000000000000E-01  9.8106034119724E-01  4.9847945037389E-02
    56  5.5000000000000E-01  9.9595533113256E-01  4.6577689886638E-02
    57  5.6000000000000E-01  1.0112377331519E+00  4.2285607219825E-02
    58  5.7000000000000E-01  1.0268760327066E+00  3.7031593644681E-02
    59  5.8000000000000E-01  1.0428315229634E+00  3.0887524881114E-02
    60  5.9000000000000E-01  1.0590584309958E+00  2.3936912194507E-02
    61  6.0000000000000E-01  1.0755040986401E+00  1.6274462105855E-02
    62  6.1000000000000E-01  1.0921092173159E+00  8.0055414702807E-03
    63  6.2000000000000E-01  1.1088081157156E+00 -7.5444925697481E-04
    64  6.3000000000000E-01  1.1255290988856E+00 -9.8807910337952E-03
    65  6.4000000000000E-01  1.1421948368374E+00 -1.9240245294942E-02
    66  6.5000000000000E-01  1.1587228004590E+00 -2.8691932166379E-02
    67  6.6000000000000E-01  1.1750257421417E+00 -3.8088282288193E-02
    68  6.7000000000000E-01  1.1910122181928E+00 -4.7276056096242E-02
    69  6.8000000000000E-01  1.2065871497850E+00 -5.6097423843912E-02
    70  6.9000000000000E-01  1.2216524188888E+00 -6.4391099120348E-02
    71  7.0000000000000E-01  1.2361074953541E+00 -7.1993518143992E-02
    72  7.1000000000000E-01  1.2498500910547E+00 -7.8740056685275E-02
    73  7.2000000000000E-01  1.2627768367797E+00 -8.4466276102182E-02
    74  7.3000000000000E-01  1.2747839773572E+00 -8.9009189661614E-02
    75  7.4000000000000E-01  1.2857680803306E+00 -9.2208540070331E-02
    76  7.5000000000000E-01  1.2956267533667E+00 -9.3908078953927E-02
    77  7.6000000000000E-01  1.3042593654768E+00 -9.3956838903806E-02
    78  7.7000000000000E-01  1.3115677670615E+00 -9.2210388660691E-02
    79  7.8000000000000E-01  1.3174570037549E+00 -8.8532062021192E-02
    80  7.9000000000000E-01  1.3218360190494E+00 -8.2794151140907E-02
    81  8.0000000000000E-01  1.3246183407181E+00 -7.4879055064189E-02
    82  8.1000000000000E-01  1.3257227461240E+00 -6.4680374536133E-02
    83  8.2000000000000E-01  1.3250739016188E+00 -5.2103944446027E-02
    84  8.3000000000000E-01  1.3226029713738E+00 -3.7068795611553E-02
    85  8.4000000000000E-01  1.3182481911671E+00 -1.9508038037689E-02
    86  8.5000000000000E-01  1.3119554028607E+00  6.3034172914166E-04
    87  8.6000000000000E-01  1.3036785455474E+00  2.3382775985174E-02
    88  8.7000000000000E-01  1.2933800996191E+00  4.8769510224043E-02
    89  8.8000000000000E-01  1.2810314803119E+00  7.6794102041225E-02
    90  8.9000000000000E-01  1.2666133776126E+00  1.0744302946710E-01
    91  9.0000000000000E-01  1.2501160397657E+00  1.4068541286412E-01
    92  9.1000000000000E-01  1.2315394979940E+00  1.7647285374322E-01
    93  9.2000000000000E-01  1.2108937304441E+00  2.1473939304161E-01
    94  9.3000000000000E-01  1.1881987637765E+00  2.5540159056515E-01
    95  9.4000000000000E-01  1.1634847112496E+00  2.9835872643858E-01
    96  9.5000000000000E-01  1.1367917465808E+00  3.4349312453332E-01
    97  9.6000000000000E-01  1.1081700133139E+00  3.9067059696069E-01
    98  9.7000000000000E-01  1.0776794698698E+00  4.3974100783505E-01
    99  9.8000000000000E-01  1.0453896709088E+00  4.9053895363397E-01
   100  9.9000000000000E-01  1.0113794860796E+00  5.4288455661537E-01
   101  1.0000000000000E+00  9.7573675767501E-01  5.9658436690421E-01
   102  1.0100000000000E+00  9.3855789914549E-01  6.5143236803787E-01
   103  1.0200000000000E+00  8.9994743684755E-01  7.0721107996696E-01
   104  1.0300000000000E+00  8.6001749780879E-01  7.6369275275328E-01
   105  1.0400000000000E+00  8.1888724668205E-01  8.2064064349552E-01
   106  1.0500000000000E+00  7.7668227542933E-01  8.7781036834941E-01
   107  1.0600000000000E+00  7.3353394962029E-01  9.3495132090111E-01
   108  1.0700000000000E+00  6.8957871554842E-01  9.9180814760303E-01
   109  1.0800000000000E+00  6.4495737265723E-01  1.0481222704952E+00
   110  1.0900000000000E+00  5.9981431602589E-01  1.1036334470183E+00
   111  1.1000000000000E+00  5.5429675388907E-01  1.1580813563774E+00
   112  1.1100000000000E+00  5.0855390535454E-01  1.2112072016456E+00
   113  1.1200000000000E+00  4.6273618363489E-01  1.2627553166005E+00
   114  1.1300000000000E+00  4.1699437022480E-01  1.3124747661749E+00
   115  1.1400000000000E+00  3.7147878553039E-01  1.3601209293656E+00
   116  1.1500000000000E+00  3.2633846149409E-01  1.4054570534965E+00
   117  1.1600000000000E+00  2.8172032175369E-01  1.4482557688583E+00
   118  1.1700000000000E+00  2.3776837483038E-01  1.4883005529611E+00
   119  1.1800000000000E+00  1.9462292575620E-01  1.5253871339264E+00
   120  1.1900000000000E+00  1.5241981142743E-01  1.5593248229182E+00
   121  1.2000000000000E+00  1.1128966480758E-01  1.5899377659587E+00
   122  1.2100000000000E+00  7.1357212904102E-02  1.6170661059951E+00
   123  1.2200000000000E+00  3.2740613205094E-02  1.6405670466787E+00
   124  1.2300000000000E+00 -4.4491670074507E-03  1.6603158099719E+00
   125  1.2400000000000E+00 -4.0108924356244E-02  1.6762064804214E+00
   126  1.2500000000000E+00 -7.4143742301770E-02  1.6881527297125E+00
   127  1.2600000000000E+00 -1.0646745989371E-01  1.6960884159448E+00
   128  1.2700000000000E+00 -1.3700308331397E-01  1.6999680529465E+00
   129  1.2800000000000E+00 -1.6568313759381E-01  1.6997671458562E+00
   130  1.2900000000000E+00 -1.9244995631668E-01  1.6954823901417E+00
   131  1.3000000000000E+00 -2.1725590756559E-01  1.6871317322018E+00
   132  1.3100000000000E+00 -2.4006355483218E-01  1.6747542906826E+00
   133  1.3200000000000E+00 -2.6084575207124E-01  1.6584101386350E+00
   134  1.3300000000000E+00 -2.7958567256094E-01  1.6381799476496E+00
   135  1.3400000000000E+00 -2.9627677170380E-01  1.6141644960983E+00
   136  1.3500000000000E+00 -3.1092268437862E-01  1.5864840446011E+00
   137  1.3600000000000E+00 -3.2353705792328E-01  1.5552775827986E+00
   138  1.3700000000000E+00 -3.3414332229080E-01  1.5207019524581E+00
   139  1.3800000000000E+00 -3.4277439936926E-01  1.4829308528414E+00
   140  1.3900000000000E+00 -3.4947235389050E-01  1.4421537351287E+00
   141  1.4000000000000E+00 -3.5428798876676E-01  1.3985745935118E+00
   142  1.4100000000000E+00 -3.5728038808831E-01  1.3524106613291E+00
   143  1.4200000000000E+00 -3.5851641138195E-01  1.3038910213228E+00
   144  1.4300000000000E+00 -3.5807014307027E-01  1.2532551397287E+00
   145  1.4400000000000E+00 -3.5602230138106E-01  1.2007513344816E+00
   146  1.4500000000000E+00 -3.5245961123190E-01  1.1466351883033E+00
   147  1.4600000000000E+00 -3.4747414585726E-01  1.0911679178569E+00
   148  1.4700000000000E+00 -3.4116264214889E-01  1.0346147104744E+00
   149  1.4800000000000E+00 -3.3362579484683E-01  9.7724304021059E-01
   150  1.4900000000000E+00 -3.2496753484409E-01  9.1932097512909E-01
   151  1.5000000000000E+00 -3.1529429695405E-01  8.6111548779187E-01
   152  1.5100000000000E+00 -3.0471428253365E-01  8.0289078090160E-01
   153  1.5200000000000E+00 -2.9333672235830E-01  7.4490663993001E-01
   154  1.5300000000000E+00 -2.8127114510559E-01  6.8741682436355E-01
   155  1.5400000000000E+00 -2.6862665672494E-01  6.3066750890632E-01
   156  1.5500000000000E+00 -2.5551123584980E-01  5.7489578560387E-01
   157  1.5600000000000E+00 -2.4203105024933E-01  5.2032823739176E-01
   158  1.5700000000000E+00 -2.2828979911833E-01  4.6717959303370E-01
   159  1.5800000000000E+00 -2.1438808576975E-01  4.1565147279932E-01
   160  1.5900000000000E+00 -2.0042282502528E-01  3.6593123354629E-01
   161  1.6000000000000E+00 -1.8648668929781E-01  3.1819092111984E-01
   162  1.6100000000000E+00 -1.7266759702893E-01  2.7258633717228E-01
   163  1.6200000000000E+00 -1.5904824678530E-01  2.2925622663858E-01
   164  1.6300000000000E+00 -1.4570569993656E-01  1.8832159119503E-01
   165  1.6400000000000E+00 -1.3271101443213E-01  1.4988513307240E-01
   166  1.6500000000000E+00 -1.2012893177366E-01  1.1403083261268E-01
   167  1.6600000000000E+00 -1.0801761884359E-01  8.0823661947789E-02
   168  1.6700000000000E+00 -9.6428465803318E-02  5.0309436151809E-02
   169  1.6800000000000E+00 -8.5405940820388E-02  2.2514802181897E-02
   170  1.6900000000000E+00 -7.4987501926254E-02 -2.5526351144269E-03
   171  1.7000000000000E+00 -6.5203565848584E-02 -2.4904051678479E-02
   172  1.7100000000000E+00 -5.6077533208164E-02 -4.4569010374573E-02
   173  1.7200000000000E+00 -4.7625869023971E-02 -6.1594938340651E-02
   174  1.7300000000000E+00 -3.9858237034737E-02 -7.6046480278843E-02
   175  1.7400000000000E+00 -3.2777685924256E-02 -8.8004733334003E-02
   176  1.7500000000000E+00 -2.6380885134957E-02 -9.7566370086738E-02
   177  1.7600000000000E+00 -2.0658407572056E-02 -1.0484265701497E-01
   178  1.7700000000000E+00 -1.5595056143035E-02 -1.0995837654600E-01
   179  1.7800000000000E+00 -1.1170230713033E-02 -1.1305066166392E-01
   180  1.7900000000000E+00 -7.3583317621443E-03 -1.1426775261210E-01
   181  1.8000000000000E+00 -4.1291993194364E-03 -1.1376767546233E-01
   182  1.8100000000000E+00 -1.4485710900256E-03 -1.1171690157740E-01
   183  1.8200000000000E+00  7.2127680677151E-04 -1.0828830974774E-01
   184  1.8300000000000E+00  2.4207794148230E-03 -1.0365877909442E-01
   185  1.8400000000000E+00  3.6924494728815E-03 -9.8007335903050E-02
   186  1.8500000000000E+00  4.5803285042508E-03 -9.1513682090731E-02
   187  1.8600000000000E+00  5.1294216233561E-03 -8.4356670037635E-02
   188  1.8700000000000E+00  5.3851394141941E-03 -7.6712810513495E-02
   189  1.8800000000000E+00  5.3927399490015E-03 -6.8754796102079E-02
   190  1.8900000000000E+00  5.1967858291734E-03 -6.0650070497826E-02
   191  1.9000000000000E+00  4.8407008570812E-03 -5.2559607061653E-02
   192  1.9100000000000E+00  4.3653831848336E-03 -4.4634910781226E-02
   193  1.9200000000000E+00  3.8027847429123E-03 -3.7005447114477E-02
   194  1.9300000000000E+00  3.1871803637539E-03 -2.9799811204156E-02
   195  1.9400000000000E+00  2.5568383535907E-03 -2.3148633460296E-02
   196  1.9500000000000E+00  1.9452660820329E-03 -1.7167645420069E-02
   197  1.9600000000000E+00  1.3820359776046E-03 -1.1959032385446E-02
   198  1.9700000000000E+00  8.9228454436237E-04 -7.6102867391185E-03
   199  1.9800000000000E+00  4.9663388162782E-04 -4.1951972040641E-03
   200  1.9900000000000E+00  2.0877252112691E-04 -1.7546724946220E-03
   201  2.0000000000000E+00  4.6223643862564E-05 -3.8832868271556E-04
   202  2.0100000000000E+00 -2.8820436165762E-06  2.3963550639171E-05
   203  2.0200000000000E+00 -2.6708102206735E-07  2.2354571209391E-06
   204  2.03  0.  0.
   205  2.04  0.  0.
   206  2.05  0.  0.
   207  2.06  0.  0.
   208  2.07  0.  0.
   209  2.08  0.  0.
   210  2.09  0.  0.
   211  2.10  0.  0.
   212  2.11  0.  0.
   213  2.12  0.  0.
   214  2.13  0.  0.
   215  2.14  0.  0.
   216  2.15  0.  0.
   217  2.16  0.  0.
   218  2.17  0.  0.
   219  2.18  0.  0.
   220  2.19  0.  0.
   221  2.20  0.  0.
   222  2.21  0.  0.
   223  2.22  0.  0.
   224  2.23  0.  0.
   225  2.24  0.  0.
   226  2.25  0.  0.
   227  2.26  0.  0.
   228  2.27  0.  0.
   229  2.28  0.  0.
   230  2.29  0.  0.
   231  2.30  0.  0.
   232  2.31  0.  0.
   233  2.32  0.  0.
   234  2.33  0.  0.
   235  2.34  0.  0.
   236  2.35  0.  0.
   237  2.36  0.  0.
   238  2.37  0.  0.
   239  2.38  0.  0.
   240  2.39  0.  0.
   241  2.40  0.  0.
   242  2.41  0.  0.
   243  2.42  0.  0.
   244  2.43  0.  0.
   245  2.44  0.  0.
   246  2.45  0.  0.
   247  2.46  0.  0.
   248  2.47  0.  0.
   249  2.48  0.  0.
   250  2.49  0.  0.
   251  2.50  0.  0.
   252  2.51  0.  0.
   253  2.52  0.  0.
   254  2.53  0.  0.
   255  2.54  0.  0.
   256  2.55  0.  0.
   257  2.56  0.  0.
   258  2.57  0.  0.
   259  2.58  0.  0.
   260  2.59  0.  0.
   261  2.60  0.  0.
   262  2.61  0.  0.
   263  2.62  0.  0.
   264  2.63  0.  0.
   265  2.64  0.  0.
   266  2.65  0.  0.
   267  2.66  0.  0.
   268  2.67  0.  0.
   269  2.68  0.  0.
   270  2.69  0.  0.
   271  2.70  0.  0.
   272  2.71  0.  0.
   273  2.72  0.  0.
   274  2.73  0.  0.
   275  2.74  0.  0.
   276  2.75  0.  0.
   277  2.76  0.  0.
   278  2.77  0.  0.
   279  2.78  0.  0.
   280  2.79  0.  0.
   281  2.80  0.  0.
   282  2.81  0.  0.
   283  2.82  0.  0.
   284  2.83  0.  0.
   285  2.84  0.  0.
   286  2.85  0.  0.
   287  2.86  0.  0.
   288  2.87  0.  0.
   289  2.88  0.  0.
   290  2.89  0.  0.
   291  2.90  0.  0.
   292  2.91  0.  0.
   293  2.92  0.  0.
   294  2.93  0.  0.
   295  2.94  0.  0.
   296  2.95  0.  0.
   297  2.96  0.  0.
   298  2.97  0.  0.
   299  2.98  0.  0.
   300  2.99  0.  0.
   301  3.00  0.  0.
   302  3.01  0.  0.
   303  3.02  0.  0.
   304  3.03  0.  0.
   305  3.04  0.  0.
   306  3.05  0.  0.
   307  3.06  0.  0.
   308  3.07  0.  0.
   309  3.08  0.  0.
   310  3.09  0.  0.
   311  3.10  0.  0.
   312  3.11  0.  0.
   313  3.12  0.  0.
   314  3.13  0.  0.
   315  3.14  0.  0.
   316  3.15  0.  0.
   317  3.16  0.  0.
   318  3.17  0.  0.
   319  3.18  0.  0.
   320  3.19  0.  0.
   321  3.20  0.  0.
   322  3.21  0.  0.
   323  3.22  0.  0.
   324  3.23  0.  0.
   325  3.24  0.  0.
   326  3.25  0.  0.
   327  3.26  0.  0.
   328  3.27  0.  0.
   329  3.28  0.  0.
   330  3.29  0.  0.
   331  3.30  0.  0.
   332  3.31  0.  0.
   333  3.32  0.  0.
   334  3.33  0.  0.
   335  3.34  0.  0.
   336  3.35  0.  0.
   337  3.36  0.  0.
   338  3.37  0.  0.
   339  3.38  0.  0.
   340  3.39  0.  0.
   341  3.40  0.  0.
   342  3.41  0.  0.
   343  3.42  0.  0.
   344  3.43  0.  0.
   345  3.44  0.  0.
   346  3.45  0.  0.
   347  3.46  0.  0.
   348  3.47  0.  0.
   349  3.48  0.  0.
   350  3.49  0.  0.
   351  3.50  0.  0.
   352  3.51  0.  0.
   353  3.52  0.  0.
   354  3.53  0.  0.
   355  3.54  0.  0.
   356  3.55  0.  0.
   357  3.56  0.  0.
   358  3.57  0.  0.
   359  3.58  0.  0.
   360  3.59  0.  0.
   361  3.60  0.  0.
   362  3.61  0.  0.
   363  3.62  0.  0.
   364  3.63  0.  0.
   365  3.64  0.  0.
   366  3.65  0.  0.
   367  3.66  0.  0.
   368  3.67  0.  0.
   369  3.68  0.  0.
   370  3.69  0.  0.
   371  3.70  0.  0.
   372  3.71  0.  0.
   373  3.72  0.  0.
   374  3.73  0.  0.
   375  3.74  0.  0.
   376  3.75  0.  0.
   377  3.76  0.  0.
   378  3.77  0.  0.
   379  3.78  0.  0.
   380  3.79  0.  0.
   381  3.80  0.  0.
   382  3.81  0.  0.
   383  3.82  0.  0.
   384  3.83  0.  0.
   385  3.84  0.  0.
   386  3.85  0.  0.
   387  3.86  0.  0.
   388  3.87  0.  0.
   389  3.88  0.  0.
   390  3.89  0.  0.
   391  3.90  0.  0.
   392  3.91  0.  0.
   393  3.92  0.  0.
   394  3.93  0.  0.
   395  3.94  0.  0.
   396  3.95  0.  0.
   397  3.96  0.  0.
   398  3.97  0.  0.
   399  3.98  0.  0.
   400  3.99  0.  0.
   401  4.00  0.  0.
   402  4.01  0.  0.
   403  4.02  0.  0.
   404  4.03  0.  0.
   405  4.04  0.  0.
   406  4.05  0.  0.
   407  4.06  0.  0.
   408  4.07  0.  0.
   409  4.08  0.  0.
   410  4.09  0.  0.
   411  4.10  0.  0.
   412  4.11  0.  0.
   413  4.12  0.  0.
   414  4.13  0.  0.
   415  4.14  0.  0.
   416  4.15  0.  0.
   417  4.16  0.  0.
   418  4.17  0.  0.
   419  4.18  0.  0.
   420  4.19  0.  0.
   421  4.20  0.  0.
   422  4.21  0.  0.
   423  4.22  0.  0.
   424  4.23  0.  0.
   425  4.24  0.  0.
   426  4.25  0.  0.
   427  4.26  0.  0.
   428  4.27  0.  0.
   429  4.28  0.  0.
   430  4.29  0.  0.
   431  4.30  0.  0.
   432  4.31  0.  0.
   433  4.32  0.  0.
   434  4.33  0.  0.
   435  4.34  0.  0.
   436  4.35  0.  0.
   437  4.36  0.  0.
   438  4.37  0.  0.
   439  4.38  0.  0.
   440  4.39  0.  0.
   441  4.40  0.  0.
   442  4.41  0.  0.
   443  4.42  0.  0.
   444  4.43  0.  0.
   445  4.44  0.  0.
   446  4.45  0.  0.
   447  4.46  0.  0.
   448  4.47  0.  0.
   449  4.48  0.  0.
   450  4.49  0.  0.
   451  4.50  0.  0.
   452  4.51  0.  0.
   453  4.52  0.  0.
   454  4.53  0.  0.
   455  4.54  0.  0.
   456  4.55  0.  0.
   457  4.56  0.  0.
   458  4.57  0.  0.
   459  4.58  0.  0.
   460  4.59  0.  0.
   461  4.60  0.  0.
   462  4.61  0.  0.
   463  4.62  0.  0.
   464  4.63  0.  0.
   465  4.64  0.  0.
   466  4.65  0.  0.
   467  4.66  0.  0.
   468  4.67  0.  0.
   469  4.68  0.  0.
   470  4.69  0.  0.
   471  4.70  0.  0.
   472  4.71  0.  0.
   473  4.72  0.  0.
   474  4.73  0.  0.
   475  4.74  0.  0.
   476  4.75  0.  0.
   477  4.76  0.  0.
   478  4.77  0.  0.
   479  4.78  0.  0.
   480  4.79  0.  0.
   481  4.80  0.  0.
   482  4.81  0.  0.
   483  4.82  0.  0.
   484  4.83  0.  0.
   485  4.84  0.  0.
   486  4.85  0.  0.
   487  4.86  0.  0.
   488  4.87  0.  0.
   489  4.88  0.  0.
   490  4.89  0.  0.
   491  4.90  0.  0.
   492  4.91  0.  0.
   493  4.92  0.  0.
   494  4.93  0.  0.
   495  4.94  0.  0.
   496  4.95  0.  0.
   497  4.96  0.  0.
   498  4.97  0.  0.
   499  4.98  0.  0.
   500  4.99  0.  0.
   501  5.00  0.  0.
   502  5.01  0.  0.
   503  5.02  0.  0.
   504  5.03  0.  0.
   505  5.04  0.  0.
   506  5.05  0.  0.
   507  5.06  0.  0.
   508  5.07  0.  0.
   509  5.08  0.  0.
   510  5.09  0.  0.
   511  5.10  0.  0.
   512  5.11  0.  0.
   513  5.12  0.  0.
   514  5.13  0.  0.
   515  5.14  0.  0.
   516  5.15  0.  0.
   517  5.16  0.  0.
   518  5.17  0.  0.
   519  5.18  0.  0.
   520  5.19  0.  0.
   521  5.20  0.  0.
   522  5.21  0.  0.
   523  5.22  0.  0.
   524  5.23  0.  0.
   525  5.24  0.  0.
   526  5.25  0.  0.
   527  5.26  0.  0.
   528  5.27  0.  0.
   529  5.28  0.  0.
   530  5.29  0.  0.
   531  5.30  0.  0.
   532  5.31  0.  0.
   533  5.32  0.  0.
   534  5.33  0.  0.
   535  5.34  0.  0.
   536  5.35  0.  0.
   537  5.36  0.  0.
   538  5.37  0.  0.
   539  5.38  0.  0.
   540  5.39  0.  0.
   541  5.40  0.  0.
   542  5.41  0.  0.
   543  5.42  0.  0.
   544  5.43  0.  0.
   545  5.44  0.  0.
   546  5.45  0.  0.
   547  5.46  0.  0.
   548  5.47  0.  0.
   549  5.48  0.  0.
   550  5.49  0.  0.
   551  5.50  0.  0.
   552  5.51  0.  0.
   553  5.52  0.  0.
   554  5.53  0.  0.
   555  5.54  0.  0.
   556  5.55  0.  0.
   557  5.56  0.  0.
   558  5.57  0.  0.
   559  5.58  0.  0.
   560  5.59  0.  0.
   561  5.60  0.  0.
   562  5.61  0.  0.
   563  5.62  0.  0.
   564  5.63  0.  0.
   565  5.64  0.  0.
   566  5.65  0.  0.
   567  5.66  0.  0.
   568  5.67  0.  0.
   569  5.68  0.  0.
   570  5.69  0.  0.
   571  5.70  0.  0.
   572  5.71  0.  0.
   573  5.72  0.  0.
   574  5.73  0.  0.
   575  5.74  0.  0.
   576  5.75  0.  0.
   577  5.76  0.  0.
   578  5.77  0.  0.
   579  5.78  0.  0.
   580  5.79  0.  0.
   581  5.80  0.  0.
   582  5.81  0.  0.
   583  5.82  0.  0.
   584  5.83  0.  0.
   585  5.84  0.  0.
   586  5.85  0.  0.
   587  5.86  0.  0.
   588  5.87  0.  0.
   589  5.88  0.  0.
   590  5.89  0.  0.
   591  5.90  0.  0.
   592  5.91  0.  0.
   593  5.92  0.  0.
   594  5.93  0.  0.
   595  5.94  0.  0.
   596  5.95  0.  0.
   597  5.96  0.  0.
   598  5.97  0.  0.
   599  5.98  0.  0.
   600  5.99  0.  0.
   1                         5.4846387290522E+00  8.8638286184831E-01  3.6353014866144E-02
     1  0.0000000000000E+00  6.5780272062721E-09 -1.3652999009128E-08  1.1648953149312E-08
     2  1.0000000000000E-02  1.0852072878642E-03 -1.4727223814332E-03  6.8016896860907E-04
     3  2.0000000000000E-02  4.3267020752212E-03 -5.8626726994861E-03  2.6977395170333E-03
     4  3.0000000000000E-02  9.6823362132643E-03 -1.3085680955518E-02  5.9843124858888E-03
     5  4.0000000000000E-02  1.7082635973119E-02 -2.3003057635607E-02  1.0427249016348E-02
     6  5.0000000000000E-02  2.6431948767750E-02 -3.5423957317017E-02  1.5871687038049E-02
     7  6.0000000000000E-02  3.7610022658278E-02 -5.0108633915693E-02  2.2123318477993E-02
     8  7.0000000000000E-02  5.0473993225415E-02 -6.6772534786061E-02  2.8951882175499E-02
     9  8.0000000000000E-02  6.4860745808680E-02 -8.5091167231428E-02  3.6095315839307E-02
    10  9.0000000000000E-02  8.0589615037144E-02 -1.0470565837224E-01  4.3264499618015E-02
    11  1.0000000000000E-01  9.7465378090846E-02 -1.2522891794918E-01  5.0148514143109E-02
    12  1.1000000000000E-01  1.1528149332789E-01 -1.4625230368797E-01  5.6420327396835E-02
    13  1.2000000000000E-01  1.3382353186435E-01 -1.6735268048097E-01  6.1742817590053E-02
    14  1.3000000000000E-01  1.5287274646687E-01 -1.8809975798081E-01  6.5775033521779E-02
    15  1.4000000000000E-01  1.7220971976258E-01 -2.0806358636093E-01  6.8178589723577E-02
    16  1.5000000000000E-01  1.9161803232667E-01 -2.2682208705648E-01  6.8624091137229E-02
    17  1.6000000000000E-01  2.1088789069858E-01 -2.4396849430722E-01  6.6797481176044E-02
    18  1.7000000000000E-01  2.2981965581358E-01 -2.5911858430162E-01  6.2406207796973E-02
    19  1.8000000000000E-01  2.4822721371344E-01 -2.7191757165924E-01  5.5185104655239E-02
    20  1.9000000000000E-01  2.6594113269829E-01 -2.8204655784491E-01  4.4901888491295E-02
    21  2.0000000000000E-01  2.8281155426993E-01 -2.8922842281482E-01  3.1362179554318E-02
    22  2.1000000000000E-01  2.9871076924592E-01 -2.9323305965110E-01  1.4413959013081E-02
    23  2.2000000000000E-01  3.1353543523635E-01 -2.9388186202245E-01 -6.0486141605830E-03
    24  2.3000000000000E-01  3.2720839719653E-01 -2.9105138586228E-01 -3.0082094557537E-02
    25  2.4000000000000E-01  3.3968007891820E-01 -2.8467611950704E-01 -5.7691406762671E-02
    26  2.5000000000000E-01  3.5092942000406E-01 -2.7475031049176E-01 -8.8828311815472E-02
    27  2.6000000000000E-01  3.6096433998520E-01 -2.6132881204256E-01 -1.2339071604396E-01
    28  2.7000000000000E-01  3.6982171867920E-01 -2.4452692781075E-01 -1.6122284142171E-01
    29  2.8000000000000E-01  3.7756688953384E-01 -2.2451924932024E-01 -2.0211626303026E-01
    30  2.9000000000000E-01  3.8429265044108E-01 -2.0153749670379E-01 -2.4581180547836E-01
    31  3.0000000000000E-01  3.9011780421712E-01 -1.7586738933330E-01 -2.9200227644555E-01
    32  3.1000000000000E-01  3.9518524850862E-01 -1.4784458865560E-01 -3.4033600209425E-01
    33  3.2000000000000E-01  3.9965964218391E-01 -1.1784977068137E-01 -3.9042111613967E-01
    34  3.3000000000000E-01  4.0372468218711E-01 -8.6302899902232E-02 -4.4183054208439E-01
    35  3.4000000000000E-01  4.0758003126374E-01 -5.3656789702751E-02 -4.9410759670708E-01
    36  3.5000000000000E-01  4.1143794280567E-01 -2.0390046377233E-02 -5.4677213252447E-01
    37  3.6000000000000E-01  4.1551963421904E-01  1.3000495538692E-02 -5.9932712778877E-01
    38  3.7000000000000E-01  4.2005146460575E-01  4.6007729927657E-02 -6.5126562478649E-01
    39  3.8000000000000E-01  4.2526097609662E-01  7.8122503829086E-02 -7.0207791089991E-01
    40  3.9000000000000E-01  4.3137286082151E-01  1.0884198101500E-01 -7.5125883218346E-01
    41  4.0000000000000E-01  4.3860491720273E-01  1.3767801181573E-01 -7.9831512617805E-01
    42  4.1000000000000E-01  4.4716405998072E-01  1.6416537531138E-01 -8.4277265939477E-01
    43  4.2000000000000E-01  4.5724244810753E-01  1.8786976079048E-01 -8.8418345537555E-01
    44  4.3000000000000E-01  4.6901379337258E-01  2.0839535824827E-01 -9.2213240148841E-01
    45  4.4000000000000E-01  4.8262991036802E-01  2.2539193262327E-01 -9.5624352661564E-01
    46  4.5000000000000E-01  4.9821756518778E-01  2.3856126339079E-01 -9.8618574759579E-01
    47  4.6000000000000E-01  5.1587567612541E-01  2.4766283995455E-01 -1.0116779896098E+00
    48  4.7000000000000E-01  5.3567291465053E-01  2.5251871387908E-01 -1.0324935945561E+00
    49  4.8000000000000E-01  5.5764574917052E-01  2.5301742123814E-01 -1.0484639417171E+00
    50  4.9000000000000E-01  5.8179696760668E-01  2.4911690204005E-01 -1.0594812165304E+00
    51  5.0000000000000E-01  6.0809470772698E-01  2.4084635863205E-01 -1.0655002758783E+00
    52  5.1000000000000E-01  6.3647201658332E-01  2.2830701096146E-01 -1.0665395718146E+00
    53  5.2000000000000E-01  6.6682695241367E-01  2.1167172334529E-01 -1.0626811098531E+00
    54  5.3000000000000E-01  6.9902323410701E-01  1.9118349471986E-01 -1.0540694326506E+00
    55  5.4000000000000E-01  7.3289143491542E-01  1.6715282194784E-01 -1.0409096348851E+00
    56  5.5000000000000E-01  7.6823070866107E-01  1.3995396338344E-01 -1.0234644301581E+00
    57  5.6000000000000E-01  8.0481102835407E-01  1.1002014726759E-01 -1.0020503055866E+00
    58  5.7000000000000E-01  8.4237590903823E-01  7.7837786376504E-02 -9.7703281418292E-01
    59  5.8000000000000E-01  8.8064557894081E-01  4.3939776415367E-02 -9.4882106891749E-01
    60  5.9000000000000E-01  9.1932055574050E-01  8.8979706831979E-03 -9.1786151531257E-01
    61  6.0000000000000E-01  9.5808557809895E-01 -2.6685062704744E-02 -8.8463107131269E-01
    62  6.1000000000000E-01  9.9661383663156E-01 -6.2184882484704E-02 -8.4962973383617E-01
    63  6.2000000000000E-01  1.0345714433200E+00 -9.6964485679342E-02 -8.1337276065562E-01
    64  6.3000000000000E-01  1.0716220740759E+00 -1.3038395097740E-01 -7.7638254393286E-01
    65  6.4000000000000E-01  1.1074317158279E+00 -1.6181026955708E-01 -7.3918029771380E-01
    66  6.5000000000000E-01  1.1416734471741E+00 -1.9062721431419E-01 -7.0227768586668E-01
    67  6.6000000000000E-01  1.1740321803765E+00 -2.1624509614757E-01 -6.6616851924303E-01
    68  6.7000000000000E-01  1.2042092922840E+00 -2.3811025593102E-01 -6.3132065120192E-01
    69  6.8000000000000E-01  1.2319270726831E+00 -2.5571414308391E-01 -5.9816819904359E-01
    70  6.9000000000000E-01  1.2569329205785E+00 -2.6860183622963E-01 -5.6710421535134E-01
    71  7.0000000000000E-01  1.2790032219806E+00 -2.7637986825397E-01 -5.3847392777949E-01
    72  7.1000000000000E-01  1.2979468468865E+00 -2.7872322706120E-01 -5.1256865851107E-01
    73  7.2000000000000E-01  1.3136082082322E+00 -2.7538141436138E-01 -4.8962052553769E-01
    74  7.3000000000000E-01  1.3258698316002E+00 -2.6618345775791E-01 -4.6979801720268E-01
    75  7.4000000000000E-01  1.3346543913020E+00 -2.5104178606427E-01 -4.5320251924593E-01
    76  7.5000000000000E-01  1.3399261760298E+00 -2.2995489395874E-01 -4.3986586005883E-01