Xe    ONCVPSP-4.0.1  r_core=   2.00830   1.80329   2.21002
     54.0000      8.0000      250925    zatom,zion,pspd
     8   -1012   2     4   600     0    pspcod,pspxc,lmax,lloc,mmax,r2well
  5.99000000  8.00000000  0.00000000    rchrg fchrg qchrg
     2     3     2     0    nproj
     3     1           extension_switch
     4     4     0    nprojso
   0                         8.1000317286990E+00  1.2845168645947E+00
     1  0.0000000000000E+00 -1.1247971998252E-10  2.1031000552174E-10
     2  1.0000000000000E-02  3.1779273454601E-02 -1.6559732380573E-02
     3  2.0000000000000E-02  6.3483337708664E-02 -3.3003688163500E-02
     4  3.0000000000000E-02  9.5037520104367E-02 -4.9217017665503E-02
     5  4.0000000000000E-02  1.2636821702872E-01 -6.5086717750237E-02
     6  5.0000000000000E-02  1.5740341836304E-01 -8.0502536950755E-02
     7  6.0000000000000E-02  1.8807321992490E-01 -9.5357858960176E-02
     8  7.0000000000000E-02  2.1831032003230E-01 -1.0955055752788E-01
     9  8.0000000000000E-02  2.4805049643295E-01 -1.2298381600886E-01
    10  9.0000000000000E-02  2.7723305997995E-01 -1.3556690507404E-01
    11  1.0000000000000E-01  3.0580128160085E-01 -1.4721591239761E-01
    12  1.1000000000000E-01  3.3370278929632E-01 -1.5785441849154E-01
    13  1.2000000000000E-01  3.6088993211774E-01 -1.6741411325524E-01
    14  1.3000000000000E-01  3.8732010830846E-01 -1.7583534824670E-01
    15  1.4000000000000E-01  4.1295605504841E-01 -1.8306762015758E-01
    16  1.5000000000000E-01  4.3776609751649E-01 -1.8906998148533E-01
    17  1.6000000000000E-01  4.6172435527582E-01 -1.9381137493706E-01
    18  1.7000000000000E-01  4.8481090429305E-01 -1.9727088866805E-01
    19  1.8000000000000E-01  5.0701189322182E-01 -1.9943793005007E-01
    20  1.9000000000000E-01  5.2831961290967E-01 -2.0031231627484E-01
    21  2.0000000000000E-01  5.4873251842574E-01 -1.9990428072379E-01
    22  2.1000000000000E-01  5.6825520325078E-01 -1.9823439467089E-01
    23  2.2000000000000E-01  5.8689832561850E-01 -1.9533340452673E-01
    24  2.3000000000000E-01  6.0467848734671E-01 -1.9124198547496E-01
    25  2.4000000000000E-01  6.2161806584486E-01 -1.8601041299160E-01
    26  2.5000000000000E-01  6.3774500032935E-01 -1.7969815436920E-01
    27  2.6000000000000E-01  6.5309253361690E-01 -1.7237338298682E-01
    28  2.7000000000000E-01  6.6769891119710E-01 -1.6411241866878E-01
    29  2.8000000000000E-01  6.8160703960540E-01 -1.5499909805602E-01
    30  2.9000000000000E-01  6.9486410642534E-01 -1.4512407946840E-01
    31  3.0000000000000E-01  7.0752116454122E-01 -1.3458408726202E-01
    32  3.1000000000000E-01  7.1963268353774E-01 -1.2348110117646E-01
    33  3.2000000000000E-01  7.3125607139947E-01 -1.1192149662138E-01
    34  3.3000000000000E-01  7.4245116989822E-01 -1.0001514226447E-01
    35  3.4000000000000E-01  7.5327972726900E-01 -8.7874461651808E-02
    36  3.5000000000000E-01  7.6380485196337E-01 -7.5613465913237E-02
    37  3.6000000000000E-01  7.7409045143142E-01 -6.3346764877147E-02
    38  3.7000000000000E-01  7.8420066001893E-01 -5.1188564139060E-02
    39  3.8000000000000E-01  7.9419926017334E-01 -3.9251655793902E-02
    40  3.9000000000000E-01  8.0414910123020E-01 -2.7646410652126E-02
    41  4.0000000000000E-01  8.1411152009977E-01 -1.6479779812948E-02
    42  4.1000000000000E-01  8.2414576819123E-01 -5.8543134637004E-03
    43  4.2000000000000E-01  8.3430844889911E-01  4.1327952883208E-03
    44  4.3000000000000E-01  8.4465296993235E-01  1.3390633865696E-02
    45  4.4000000000000E-01  8.5522901469223E-01  2.1835453444830E-02
    46  4.5000000000000E-01  8.6608203680008E-01  2.9391504681632E-02
    47  4.6000000000000E-01  8.7725278174093E-01  3.5991818957374E-02
    48  4.7000000000000E-01  8.8877683942491E-01  4.1578928507959E-02
    49  4.8000000000000E-01  9.0068423127616E-01  4.6105519196631E-02
    50  4.9000000000000E-01  9.1299903523905E-01  4.9535010136544E-02
    51  5.0000000000000E-01  9.2573905184663E-01  5.1842054862732E-02
    52  5.1000000000000E-01  9.3891551422663E-01  5.3012959289573E-02
    53  5.2000000000000E-01  9.5253284462803E-01  5.3046012266896E-02
    54  5.3000000000000E-01  9.6658845973897E-01  5.1951725160573E-02
    55  5.4000000000000E-01  9.8107262673519E-01  4.9752977528922E-02
    56  5.5000000000000E-01  9.9596837165069E-01  4.6485066638924E-02
    57  5.6000000000000E-01  1.0112514413004E+00  4.2195659262401E-02
    58  5.7000000000000E-01  1.0268903196114E+00  3.6944644906412E-02
    59  5.8000000000000E-01  1.0428462988370E+00  3.0803890359691E-02
    60  5.9000000000000E-01  1.0590736057388E+00  2.3856896172336E-02
    61  6.0000000000000E-01  1.0755195824288E+00  1.6198356424202E-02
    62  6.1000000000000E-01  1.0921249211717E+00  7.9336238729815E-03
    63  6.2000000000000E-01  1.1088239520534E+00 -8.2191669946844E-04
    64  6.3000000000000E-01  1.1255449820370E+00 -9.9435634098693E-03
    65  6.4000000000000E-01  1.1422106835458E+00 -1.9298096237458E-02
    66  6.5000000000000E-01  1.1587385303437E+00 -2.8744655129905E-02
    67  6.6000000000000E-01  1.1750412781284E+00 -3.8135691710037E-02
    68  6.7000000000000E-01  1.1910274869087E+00 -4.7317988434418E-02
    69  6.8000000000000E-01  1.2066020819161E+00 -5.6133738486181E-02
    70  6.9000000000000E-01  1.2216669494982E+00 -6.4421679159240E-02
    71  7.0000000000000E-01  1.2361215641608E+00 -7.2018271013918E-02
    72  7.1000000000000E-01  1.2498636426709E+00 -7.8758914658650E-02
    73  7.2000000000000E-01  1.2627898209070E+00 -8.4479196642559E-02
    74  7.3000000000000E-01  1.2747963489423E+00 -8.9016155632888E-02
    75  7.4000000000000E-01  1.2857797996788E+00 -9.2209559801899E-02
    76  7.5000000000000E-01  1.2956377862164E+00 -9.3903186162895E-02
    77  7.6000000000000E-01  1.3042696830336E+00 -9.3946092475963E-02
    78  7.7000000000000E-01  1.3115773459946E+00 -9.2193872293280E-02
    79  7.8000000000000E-01  1.3174658261567E+00 -8.8509883731033E-02
    80  7.9000000000000E-01  1.3218440723603E+00 -8.2766442642488E-02
    81  8.0000000000000E-01  1.3246256176180E+00 -7.4845971023037E-02
    82  8.1000000000000E-01  1.3257292443934E+00 -6.4642091703512E-02
    83  8.2000000000000E-01  1.3250796239708E+00 -5.2060660681737E-02
    84  8.3000000000000E-01  1.3226079252607E+00 -3.7020728802142E-02
    85  8.4000000000000E-01  1.3182523885626E+00 -1.9455424917979E-02
    86  8.5000000000000E-01  1.3119588600226E+00  6.8724684280272E-04
    87  8.6000000000000E-01  1.3036812827609E+00  2.3443702541199E-02
    88  8.7000000000000E-01  1.2933821409255E+00  4.8834172852306E-02
    89  8.8000000000000E-01  1.2810328532242E+00  7.6862202030780E-02
    90  8.9000000000000E-01  1.2666141128219E+00  1.0751425629534E-01
    91  9.0000000000000E-01  1.2501161708396E+00  1.4075944576773E-01
    92  9.1000000000000E-01  1.2315390610708E+00  1.7654936332111E-01
    93  9.2000000000000E-01  1.2108927639248E+00  2.1481804288021E-01
    94  9.3000000000000E-01  1.1881973080170E+00  2.5548203887631E-01
    95  9.4000000000000E-01  1.1634828082555E+00  2.9844062770075E-01
    96  9.5000000000000E-01  1.1367894397069E+00  3.4357613112656E-01
    97  9.6000000000000E-01  1.1081673469700E+00  3.9075436078659E-01
    98  9.7000000000000E-01  1.0776764892349E+00  4.3982518191303E-01
    99  9.8000000000000E-01  1.0453864216552E+00  4.9062319366532E-01
   100  9.9000000000000E-01  1.0113760141088E+00  5.4296852250742E-01
   101  1.0000000000000E+00  9.7573310886510E-01  5.9666772424709E-01
   102  1.0100000000000E+00  9.3855411911278E-01  6.5151478952687E-01
   103  1.0200000000000E+00  8.9994357072224E-01  7.0729224676408E-01
   104  1.0300000000000E+00  8.6001359002545E-01  7.6377235578218E-01
   105  1.0400000000000E+00  8.1888334078555E-01  8.2071838466430E-01
   106  1.0500000000000E+00  7.7667841389617E-01  8.7788596169679E-01
   107  1.0600000000000E+00  7.3353017369559E-01  9.3502449366154E-01
   108  1.0700000000000E+00  6.8957506509845E-01  9.9187864118738E-01
   109  1.0800000000000E+00  6.4495388603707E-01  1.0481898413839E+00
   110  1.0900000000000E+00  5.9981102996209E-01  1.1036978675646E+00
   111  1.1000000000000E+00  5.5429370337660E-01  1.1581424155191E+00
   112  1.1100000000000E+00  5.0855112356747E-01  1.2112647055235E+00
   113  1.1200000000000E+00  4.6273370185020E-01  1.2628090890836E+00
   114  1.1300000000000E+00  4.1699221775832E-01  1.3125246492912E+00
   115  1.1400000000000E+00  3.7147698968435E-01  1.3601667836402E+00
   116  1.1500000000000E+00  3.2633704751508E-01  1.4054987581964E+00
   117  1.1600000000000E+00  2.8171931280039E-01  1.4482932221463E+00
   118  1.1700000000000E+00  2.3776779195000E-01  1.4883336719593E+00
   119  1.1800000000000E+00  1.9462278786885E-01  1.5254158546930E+00
   120  1.1900000000000E+00  1.5242013531746E-01  1.5593491003391E+00
   121  1.2000000000000E+00  1.1129046512115E-01  1.5899575735561E+00
   122  1.2100000000000E+00  7.1358502152082E-02  1.6170814356576E+00
   123  1.2200000000000E+00  3.2742401770712E-02  1.6405779083155E+00
   124  1.2300000000000E+00 -4.4468708569501E-03  1.6603222310948E+00
   125  1.2400000000000E+00 -4.0106114454452E-02  1.6762085056584E+00
   126  1.2500000000000E+00 -7.4140414565007E-02  1.6881504202574E+00
   127  1.2600000000000E+00 -1.0646361230030E-01  1.6960818489460E+00
   128  1.2700000000000E+00 -1.3699871588122E-01  1.6999573208409E+00
   129  1.2800000000000E+00 -1.6567825235289E-01  1.6997523556502E+00
   130  1.2900000000000E+00 -1.9244455728548E-01  1.6954636626466E+00
   131  1.3000000000000E+00 -2.1725000071963E-01  1.6871092012256E+00
   132  1.3100000000000E+00 -2.4005714807348E-01  1.6747281021840E+00
   133  1.3200000000000E+00 -2.6083885519491E-01  1.6583804498436E+00
   134  1.3300000000000E+00 -2.7957829721935E-01  1.6381469261569E+00
   135  1.3400000000000E+00 -2.9626893136799E-01  1.6141283189246E+00
   136  1.3500000000000E+00 -3.1091439429657E-01  1.5864448972412E+00
   137  1.3600000000000E+00 -3.2352833507467E-01  1.5552356582521E+00
   138  1.3700000000000E+00 -3.3413418533770E-01  1.5206574502476E+00
   139  1.3800000000000E+00 -3.4276486860241E-01  1.4828839780233E+00
   140  1.3900000000000E+00 -3.4946245117061E-01  1.4421046973010E+00
   141  1.4000000000000E+00 -3.5427773746032E-01  1.3985236058212E+00
   142  1.4100000000000E+00 -3.5726981299747E-01  1.3523579394840E+00
   143  1.4200000000000E+00 -3.5850553866799E-01  1.3038367826132E+00
   144  1.4300000000000E+00 -3.5805900017031E-01  1.2531996020587E+00
   145  1.4400000000000E+00 -3.5601091691750E-01  1.2006947154172E+00
   146  1.4500000000000E+00 -3.5244801491446E-01  1.1465777041387E+00
   147  1.4600000000000E+00 -3.4746236837723E-01  1.0911097827031E+00
   148  1.4700000000000E+00 -3.4115071506562E-01  1.0345561353735E+00
   149  1.4800000000000E+00 -3.3361375046622E-01  9.7718423227776E-01
   150  1.4900000000000E+00 -3.2495540608928E-01  9.1926213672636E-01
   151  1.5000000000000E+00 -3.1528211722837E-01  8.6105681573585E-01
   152  1.5100000000000E+00 -3.0470208557619E-01  8.0283246570801E-01
   153  1.5200000000000E+00 -2.9332454209235E-01  7.4484886509748E-01
   154  1.5300000000000E+00 -2.8125901548063E-01  6.8735976569909E-01
   155  1.5400000000000E+00 -2.6861461155261E-01  6.3061133389473E-01
   156  1.5500000000000E+00 -2.5549930863474E-01  5.7484065282315E-01
   157  1.5600000000000E+00 -2.4201927401564E-01  5.2027429597643E-01
   158  1.5700000000000E+00 -2.2827820623266E-01  4.6712698218782E-01
   159  1.5800000000000E+00 -2.1437670776204E-01  4.1560032136081E-01
   160  1.5900000000000E+00 -2.0041169240833E-01  3.6588165960391E-01
   161  1.6000000000000E+00 -1.8647583138694E-01  3.1814303168424E-01
   162  1.6100000000000E+00 -1.7265704176291E-01  2.7254022790189E-01
   163  1.6200000000000E+00 -1.5903802055012E-01  2.2921198162142E-01
   164  1.6300000000000E+00 -1.4569582739330E-01  1.8827928278708E-01
   165  1.6400000000000E+00 -1.3270151835049E-01  1.4984482179278E-01
   166  1.6500000000000E+00 -1.2011983287252E-01  1.1399256709604E-01
   167  1.6600000000000E+00 -1.0800893564019E-01  8.0787478953869E-02
   168  1.6700000000000E+00 -9.6420214472494E-02  5.0275360631913E-02
   169  1.6800000000000E+00 -8.5398135065257E-02  2.2482847401808E-02
   170  1.6900000000000E+00 -7.4980152861858E-02 -2.5824673956724E-03
   171  1.7000000000000E+00 -6.5196681899753E-02 -2.4931770975021E-02
   172  1.7100000000000E+00 -5.6071120022940E-02 -4.4594637186380E-02
   173  1.7200000000000E+00 -4.7619929403749E-02 -6.1618503813866E-02
   174  1.7300000000000E+00 -3.9852770882249E-02 -7.6068025815371E-02
   175  1.7400000000000E+00 -3.2772690210363E-02 -8.8024310152219E-02
   176  1.7500000000000E+00 -2.6376353885142E-02 -9.7584038735268E-02
   177  1.7600000000000E+00 -2.0654331873327E-02 -1.0485848684185E-01
   178  1.7700000000000E+00 -1.5591424171841E-02 -1.0997244512565E-01
   179  1.7800000000000E+00 -1.1167027784615E-02 -1.1306305418450E-01
   180  1.7900000000000E+00 -7.3555404016171E-03 -1.1427856122614E-01
   181  1.8000000000000E+00 -4.1267993559076E-03 -1.1377699860002E-01
   182  1.8100000000000E+00 -1.4465397690508E-03 -1.1172484323942E-01
   183  1.8200000000000E+00  7.2296461480378E-04 -1.0829497855168E-01
   184  1.8300000000000E+00  2.4221508719710E-03 -1.0366428698296E-01
   185  1.8400000000000E+00  3.6935333671742E-03 -9.8011796741584E-02
   186  1.8500000000000E+00  4.5811548281253E-03 -9.1517210301186E-02
   187  1.8600000000000E+00  5.1300211326847E-03 -8.4359379252659E-02
   188  1.8700000000000E+00  5.3855431719290E-03 -7.6714812260625E-02
   189  1.8800000000000E+00  5.3929788574214E-03 -6.8756198526723E-02
   190  1.8900000000000E+00  5.1968901531163E-03 -6.0650977128843E-02
   191  1.9000000000000E+00  4.8406997319435E-03 -5.2560115592685E-02
   192  1.9100000000000E+00  4.3653042328745E-03 -4.4635112266733E-02
   193  1.9200000000000E+00  3.8026546337882E-03 -3.7005428000876E-02
   194  1.9300000000000E+00  3.1870237185217E-03 -2.9799650294433E-02
   195  1.9400000000000E+00  2.5566762324954E-03 -2.3148397810132E-02
   196  1.9500000000000E+00  1.9451155952775E-03 -1.7167389840979E-02
   197  1.9600000000000E+00  1.3819097801260E-03 -1.1958798572880E-02
   198  1.9700000000000E+00  8.9219038592034E-04 -7.6101025834000E-03
   199  1.9800000000000E+00  4.9657415688499E-04 -4.1950761354222E-03
   200  1.9900000000000E+00  2.0874425481166E-04 -1.7546137929968E-03
   201  2.0000000000000E+00  4.6216632938823E-05 -3.8831385963652E-04
   202  2.0100000000000E+00 -2.8815224694934E-06  2.3962439776807E-05
   203  2.0200000000000E+00 -2.6703317659803E-07  2.2353543282889E-06
   204  2.03  0.  0.
   205  2.04  0.  0.
   206  2.05  0.  0.
   207  2.06  0.  0.
   208  2.07  0.  0.
   209  2.08  0.  0.
   210  2.09  0.  0.
   211  2.10  0.  0.
   212  2.11  0.  0.
   213  2.12  0.  0.
   214  2.13  0.  0.
   215  2.14  0.  0.
   216  2.15  0.  0.
   217  2.16  0.  0.
   218  2.17  0.  0.
   219  2.18  0.  0.
   220  2.19  0.  0.
   221  2.20  0.  0.
   222  2.21  0.  0.
   223  2.22  0.  0.
   224  2.23  0.  0.
   225  2.24  0.  0.
   226  2.25  0.  0.
   227  2.26  0.  0.
   228  2.27  0.  0.
   229  2.28  0.  0.
   230  2.29  0.  0.
   231  2.30  0.  0.
   232  2.31  0.  0.
   233  2.32  0.  0.
   234  2.33  0.  0.
   235  2.34  0.  0.
   236  2.35  0.  0.
   237  2.36  0.  0.
   238  2.37  0.  0.
   239  2.38  0.  0.
   240  2.39  0.  0.
   241  2.40  0.  0.
   242  2.41  0.  0.
   243  2.42  0.  0.
   244  2.43  0.  0.
   245  2.44  0.  0.
   246  2.45  0.  0.
   247  2.46  0.  0.
   248  2.47  0.  0.
   249  2.48  0.  0.
   250  2.49  0.  0.
   251  2.50  0.  0.
   252  2.51  0.  0.
   253  2.52  0.  0.
   254  2.53  0.  0.
   255  2.54  0.  0.
   256  2.55  0.  0.
   257  2.56  0.  0.
   258  2.57  0.  0.
   259  2.58  0.  0.
   260  2.59  0.  0.
   261  2.60  0.  0.
   262  2.61  0.  0.
   263  2.62  0.  0.
   264  2.63  0.  0.
   265  2.64  0.  0.
   266  2.65  0.  0.
   267  2.66  0.  0.
   268  2.67  0.  0.
   269  2.68  0.  0.
   270  2.69  0.  0.
   271  2.70  0.  0.
   272  2.71  0.  0.
   273  2.72  0.  0.
   274  2.73  0.  0.
   275  2.74  0.  0.
   276  2.75  0.  0.
   277  2.76  0.  0.
   278  2.77  0.  0.
   279  2.78  0.  0.
   280  2.79  0.  0.
   281  2.80  0.  0.
   282  2.81  0.  0.
   283  2.82  0.  0.
   284  2.83  0.  0.
   285  2.84  0.  0.
   286  2.85  0.  0.
   287  2.86  0.  0.
   288  2.87  0.  0.
   289  2.88  0.  0.
   290  2.89  0.  0.
   291  2.90  0.  0.
   292  2.91  0.  0.
   293  2.92  0.  0.
   294  2.93  0.  0.
   295  2.94  0.  0.
   296  2.95  0.  0.
   297  2.96  0.  0.
   298  2.97  0.  0.
   299  2.98  0.  0.
   300  2.99  0.  0.
   301  3.00  0.  0.
   302  3.01  0.  0.
   303  3.02  0.  0.
   304  3.03  0.  0.
   305  3.04  0.  0.
   306  3.05  0.  0.
   307  3.06  0.  0.
   308  3.07  0.  0.
   309  3.08  0.  0.
   310  3.09  0.  0.
   311  3.10  0.  0.
   312  3.11  0.  0.
   313  3.12  0.  0.
   314  3.13  0.  0.
   315  3.14  0.  0.
   316  3.15  0.  0.
   317  3.16  0.  0.
   318  3.17  0.  0.
   319  3.18  0.  0.
   320  3.19  0.  0.
   321  3.20  0.  0.
   322  3.21  0.  0.
   323  3.22  0.  0.
   324  3.23  0.  0.
   325  3.24  0.  0.
   326  3.25  0.  0.
   327  3.26  0.  0.
   328  3.27  0.  0.
   329  3.28  0.  0.
   330  3.29  0.  0.
   331  3.30  0.  0.
   332  3.31  0.  0.
   333  3.32  0.  0.
   334  3.33  0.  0.
   335  3.34  0.  0.
   336  3.35  0.  0.
   337  3.36  0.  0.
   338  3.37  0.  0.
   339  3.38  0.  0.
   340  3.39  0.  0.
   341  3.40  0.  0.
   342  3.41  0.  0.
   343  3.42  0.  0.
   344  3.43  0.  0.
   345  3.44  0.  0.
   346  3.45  0.  0.
   347  3.46  0.  0.
   348  3.47  0.  0.
   349  3.48  0.  0.
   350  3.49  0.  0.
   351  3.50  0.  0.
   352  3.51  0.  0.
   353  3.52  0.  0.
   354  3.53  0.  0.
   355  3.54  0.  0.
   356  3.55  0.  0.
   357  3.56  0.  0.
   358  3.57  0.  0.
   359  3.58  0.  0.
   360  3.59  0.  0.
   361  3.60  0.  0.
   362  3.61  0.  0.
   363  3.62  0.  0.
   364  3.63  0.  0.
   365  3.64  0.  0.
   366  3.65  0.  0.
   367  3.66  0.  0.
   368  3.67  0.  0.
   369  3.68  0.  0.
   370  3.69  0.  0.
   371  3.70  0.  0.
   372  3.71  0.  0.
   373  3.72  0.  0.
   374  3.73  0.  0.
   375  3.74  0.  0.
   376  3.75  0.  0.
   377  3.76  0.  0.
   378  3.77  0.  0.
   379  3.78  0.  0.
   380  3.79  0.  0.
   381  3.80  0.  0.
   382  3.81  0.  0.
   383  3.82  0.  0.
   384  3.83  0.  0.
   385  3.84  0.  0.
   386  3.85  0.  0.
   387  3.86  0.  0.
   388  3.87  0.  0.
   389  3.88  0.  0.
   390  3.89  0.  0.
   391  3.90  0.  0.
   392  3.91  0.  0.
   393  3.92  0.  0.
   394  3.93  0.  0.
   395  3.94  0.  0.
   396  3.95  0.  0.
   397  3.96  0.  0.
   398  3.97  0.  0.
   399  3.98  0.  0.
   400  3.99  0.  0.
   401  4.00  0.  0.
   402  4.01  0.  0.
   403  4.02  0.  0.
   404  4.03  0.  0.
   405  4.04  0.  0.
   406  4.05  0.  0.
   407  4.06  0.  0.
   408  4.07  0.  0.
   409  4.08  0.  0.
   410  4.09  0.  0.
   411  4.10  0.  0.
   412  4.11  0.  0.
   413  4.12  0.  0.
   414  4.13  0.  0.
   415  4.14  0.  0.
   416  4.15  0.  0.
   417  4.16  0.  0.
   418  4.17  0.  0.
   419  4.18  0.  0.
   420  4.19  0.  0.
   421  4.20  0.  0.
   422  4.21  0.  0.
   423  4.22  0.  0.
   424  4.23  0.  0.
   425  4.24  0.  0.
   426  4.25  0.  0.
   427  4.26  0.  0.
   428  4.27  0.  0.
   429  4.28  0.  0.
   430  4.29  0.  0.
   431  4.30  0.  0.
   432  4.31  0.  0.
   433  4.32  0.  0.
   434  4.33  0.  0.
   435  4.34  0.  0.
   436  4.35  0.  0.
   437  4.36  0.  0.
   438  4.37  0.  0.
   439  4.38  0.  0.
   440  4.39  0.  0.
   441  4.40  0.  0.
   442  4.41  0.  0.
   443  4.42  0.  0.
   444  4.43  0.  0.
   445  4.44  0.  0.
   446  4.45  0.  0.
   447  4.46  0.  0.
   448  4.47  0.  0.
   449  4.48  0.  0.
   450  4.49  0.  0.
   451  4.50  0.  0.
   452  4.51  0.  0.
   453  4.52  0.  0.
   454  4.53  0.  0.
   455  4.54  0.  0.
   456  4.55  0.  0.
   457  4.56  0.  0.
   458  4.57  0.  0.
   459  4.58  0.  0.
   460  4.59  0.  0.
   461  4.60  0.  0.
   462  4.61  0.  0.
   463  4.62  0.  0.
   464  4.63  0.  0.
   465  4.64  0.  0.
   466  4.65  0.  0.
   467  4.66  0.  0.
   468  4.67  0.  0.
   469  4.68  0.  0.
   470  4.69  0.  0.
   471  4.70  0.  0.
   472  4.71  0.  0.
   473  4.72  0.  0.
   474  4.73  0.  0.
   475  4.74  0.  0.
   476  4.75  0.  0.
   477  4.76  0.  0.
   478  4.77  0.  0.
   479  4.78  0.  0.
   480  4.79  0.  0.
   481  4.80  0.  0.
   482  4.81  0.  0.
   483  4.82  0.  0.
   484  4.83  0.  0.
   485  4.84  0.  0.
   486  4.85  0.  0.
   487  4.86  0.  0.
   488  4.87  0.  0.
   489  4.88  0.  0.
   490  4.89  0.  0.
   491  4.90  0.  0.
   492  4.91  0.  0.
   493  4.92  0.  0.
   494  4.93  0.  0.
   495  4.94  0.  0.
   496  4.95  0.  0.
   497  4.96  0.  0.
   498  4.97  0.  0.
   499  4.98  0.  0.
   500  4.99  0.  0.
   501  5.00  0.  0.
   502  5.01  0.  0.
   503  5.02  0.  0.
   504  5.03  0.  0.
   505  5.04  0.  0.
   506  5.05  0.  0.
   507  5.06  0.  0.
   508  5.07  0.  0.
   509  5.08  0.  0.
   510  5.09  0.  0.
   511  5.10  0.  0.
   512  5.11  0.  0.
   513  5.12  0.  0.
   514  5.13  0.  0.
   515  5.14  0.  0.
   516  5.15  0.  0.
   517  5.16  0.  0.
   518  5.17  0.  0.
   519  5.18  0.  0.
   520  5.19  0.  0.
   521  5.20  0.  0.
   522  5.21  0.  0.
   523  5.22  0.  0.
   524  5.23  0.  0.
   525  5.24  0.  0.
   526  5.25  0.  0.
   527  5.26  0.  0.
   528  5.27  0.  0.
   529  5.28  0.  0.
   530  5.29  0.  0.
   531  5.30  0.  0.
   532  5.31  0.  0.
   533  5.32  0.  0.
   534  5.33  0.  0.
   535  5.34  0.  0.
   536  5.35  0.  0.
   537  5.36  0.  0.
   538  5.37  0.  0.
   539  5.38  0.  0.
   540  5.39  0.  0.
   541  5.40  0.  0.
   542  5.41  0.  0.
   543  5.42  0.  0.
   544  5.43  0.  0.
   545  5.44  0.  0.
   546  5.45  0.  0.
   547  5.46  0.  0.
   548  5.47  0.  0.
   549  5.48  0.  0.
   550  5.49  0.  0.
   551  5.50  0.  0.
   552  5.51  0.  0.
   553  5.52  0.  0.
   554  5.53  0.  0.
   555  5.54  0.  0.
   556  5.55  0.  0.
   557  5.56  0.  0.
   558  5.57  0.  0.
   559  5.58  0.  0.
   560  5.59  0.  0.
   561  5.60  0.  0.
   562  5.61  0.  0.
   563  5.62  0.  0.
   564  5.63  0.  0.
   565  5.64  0.  0.
   566  5.65  0.  0.
   567  5.66  0.  0.
   568  5.67  0.  0.
   569  5.68  0.  0.
   570  5.69  0.  0.
   571  5.70  0.  0.
   572  5.71  0.  0.
   573  5.72  0.  0.
   574  5.73  0.  0.
   575  5.74  0.  0.
   576  5.75  0.  0.
   577  5.76  0.  0.
   578  5.77  0.  0.
   579  5.78  0.  0.
   580  5.79  0.  0.
   581  5.80  0.  0.
   582  5.81  0.  0.
   583  5.82  0.  0.
   584  5.83  0.  0.
   585  5.84  0.  0.
   586  5.85  0.  0.
   587  5.86  0.  0.
   588  5.87  0.  0.
   589  5.88  0.  0.
   590  5.89  0.  0.
   591  5.90  0.  0.
   592  5.91  0.  0.
   593  5.92  0.  0.
   594  5.93  0.  0.
   595  5.94  0.  0.
   596  5.95  0.  0.
   597  5.96  0.  0.
   598  5.97  0.  0.
   599  5.98  0.  0.
   600  5.99  0.  0.
   1                         5.4857441612366E+00  8.8648109423958E-01  3.6347176146780E-02
     1  0.0000000000000E+00  6.5759259149090E-09 -1.3652037361700E-08  1.1651354540898E-08
     2  1.0000000000000E-02  1.0850331827622E-03 -1.4727931590194E-03  6.8055597914043E-04
     3  2.0000000000000E-02  4.3260098835484E-03 -5.8629570721059E-03  2.6992822532024E-03
     4  3.0000000000000E-02  9.6807945660841E-03 -1.3086325497071E-02  5.9877638292203E-03
     5  4.0000000000000E-02  1.7079934278014E-02 -2.3004215080070E-02  1.0433335738773E-02
     6  5.0000000000000E-02  2.6427805010424E-02 -3.5425788812974E-02  1.5881099940677E-02
     7  6.0000000000000E-02  3.7604190705113E-02 -5.0111311075988E-02  2.2136703101351E-02
     8  7.0000000000000E-02  5.0466269498426E-02 -6.6776241480511E-02  2.8969830228766E-02
     9  8.0000000000000E-02  6.4850975214559E-02 -8.5096101075267E-02  3.6118357484508E-02
    10  9.0000000000000E-02  8.0577696044226E-02 -1.0471203186856E-01  4.3293096731634E-02
    11  1.0000000000000E-01  9.7451266861750E-02 -1.2523695925001E-01  5.0183054661733E-02
    12  1.1000000000000E-01  1.1526520683101E-01 -1.4626225694563E-01  5.6461120836259E-02
    13  1.2000000000000E-01  1.3380514990411E-01 -1.6736480576905E-01  6.1790091808288E-02
    14  1.3000000000000E-01  1.5285241259032E-01 -1.8811433077203E-01  6.5828932776583E-02
    15  1.4000000000000E-01  1.7218764101848E-01 -2.0808089655739E-01  6.8239174054000E-02
    16  1.5000000000000E-01  1.9159447787202E-01 -2.2684243757646E-01  6.8691337077633E-02
    17  1.6000000000000E-01  2.1086318926661E-01 -2.4399219924080E-01  6.6871283789176E-02
    18  1.7000000000000E-01  2.2979419207614E-01 -2.5914596665587E-01  6.2486383991396E-02
    19  1.8000000000000E-01  2.4820142358909E-01 -2.7194896072159E-01  5.5271397731446E-02
    20  1.9000000000000E-01  2.6591549767515E-01 -2.8208228620078E-01  4.4993973840702E-02
    21  2.0000000000000E-01  2.8278659482874E-01 -2.8926882306257E-01  3.1459671416263E-02
    22  2.1000000000000E-01  2.9868703748433E-01 -2.9327846086359E-01  1.4516418177595E-02
    23  2.2000000000000E-01  3.1351350680899E-01 -2.9393258600992E-01 -5.9416718325277E-03
    24  2.3000000000000E-01  3.2718886269748E-01 -2.9110774329559E-01 -2.9971188938280E-02
    25  2.4000000000000E-01  3.3966353484243E-01 -2.8473840596420E-01 -5.7577083740253E-02
    26  2.5000000000000E-01  3.5091645943216E-01 -2.7481880249269E-01 -8.8711133217055E-02
    27  2.6000000000000E-01  3.6095554314149E-01 -2.6140376313871E-01 -1.2327124936979E-01
    28  2.7000000000000E-01  3.6981764351617E-01 -2.4460856479624E-01 -1.6110164956305E-01
    29  2.8000000000000E-01  3.7756806249691E-01 -2.2460776863032E-01 -2.0199389414600E-01
    30  2.9000000000000E-01  3.8429955756581E-01 -2.0163306106436E-01 -2.4568878320327E-01
    31  3.0000000000000E-01  3.9013088270681E-01 -1.7597012472192E-01 -2.9187909059885E-01
    32  3.1000000000000E-01  3.9520487893385E-01 -1.4795458163040E-01 -3.4021310004975E-01
    33  3.2000000000000E-01  3.9968614143650E-01 -1.1796706612878E-01 -3.9029889500930E-01
    34  3.3000000000000E-01  4.0375829731029E-01 -8.6427499248540E-02 -4.4170934185398E-01
    35  3.4000000000000E-01  4.0762093426692E-01 -5.3788649627285E-02 -4.9398769444905E-01
    36  3.5000000000000E-01  4.1148622655781E-01 -2.0529078057503E-02 -5.4665373779508E-01
    37  3.6000000000000E-01  4.1557530949783E-01  1.2854426627985E-02 -5.9921037929842E-01
    38  3.7000000000000E-01  4.2011445836237E-01  4.5854803648449E-02 -6.5115058841192E-01
    39  3.8000000000000E-01  4.2533113097685E-01  7.7962944442355E-02 -7.0196457908474E-01
    40  3.9000000000000E-01  4.3144993596450E-01  1.0867605567667E-01 -7.5114712475124E-01
    41  4.0000000000000E-01  4.3868859031864E-01  1.3750602852015E-01 -7.9820489255870E-01
    42  4.1000000000000E-01  4.4725393068825E-01  1.6398768030550E-01 -8.4266368224144E-01
    43  4.2000000000000E-01  4.5733804249232E-01  1.8768673549049E-01 -8.8407545552586E-01
    44  4.3000000000000E-01  4.6911456970777E-01  2.0820741569899E-01 -9.2202504420076E-01
    45  4.4000000000000E-01  4.8273526591966E-01  2.2519951354789E-01 -9.5613642898910E-01
    46  4.5000000000000E-01  4.9832684400979E-01  2.3836483188594E-01 -9.8607848706151E-01
    47  4.6000000000000E-01  5.1598817773266E-01  2.4746287889159E-01 -1.0115701133618E+00
    48  4.7000000000000E-01  5.3578790344365E-01  2.5231572007785E-01 -1.0323846297725E+00
    49  4.8000000000000E-01  5.5776246447328E-01  2.5281190048348E-01 -1.0483534064071E+00
    50  4.9000000000000E-01  5.8191463416598E-01  2.4890936401463E-01 -1.0593686308293E+00
    51  5.0000000000000E-01  6.0821254651674E-01  2.4063731184079E-01 -1.0653851736029E+00
    52  5.1000000000000E-01  6.3658925574771E-01  2.2809695772385E-01 -1.0664215120831E+00
    53  5.2000000000000E-01  6.6694283818118E-01  2.1146115493095E-01 -1.0625596885715E+00
    54  5.3000000000000E-01  6.9913704150591E-01  1.9097288670153E-01 -1.0539442936622E+00
    55  5.4000000000000E-01  7.3300247812282E-01  1.6694262984266E-01 -1.0407804805871E+00
    56  5.5000000000000E-01  7.6833835082181E-01  1.3974461864941E-01 -1.0233310313889E+00
    57  5.6000000000000E-01  8.0491469071249E-01  1.0981205371720E-01 -1.0019125106008E+00
    58  5.7000000000000E-01  8.4247507923510E-01  7.7631317062838E-02 -9.7689055653755E-01
    59  5.8000000000000E-01  8.8073981833931E-01  4.3735271039403E-02 -9.4867437411217E-01
    60  5.9000000000000E-01  9.1940950565885E-01  8.6957335626390E-03 -9.1771050603958E-01
    61  6.0000000000000E-01  9.5816896484311E-01 -2.6884764073102E-02 -8.8447597119475E-01
    62  6.1000000000000E-01  9.9669147523905E-01 -6.2381818246467E-02 -8.4947086955111E-01
    63  6.2000000000000E-01  1.0346432399448E+00 -9.7158463814789E-02 -8.1321056237098E-01
    64  6.3000000000000E-01  1.0716880269654E+00 -1.3057481686144E-01 -7.7621754399901E-01
    65  6.4000000000000E-01  1.1074919148620E+00 -1.6199790489380E-01 -7.3901312759133E-01
    66  6.5000000000000E-01  1.1417280719619E+00 -1.9081153546279E-01 -7.0210907129126E-01
    67  6.6000000000000E-01  1.1740814969252E+00 -2.1642605186663E-01 -6.6599927365877E-01
    68  6.7000000000000E-01  1.2042536482779E+00 -2.3828782457690E-01 -6.3115166752316E-01
    69  6.8000000000000E-01  1.2319668914321E+00 -2.5588832930870E-01 -5.9800043983200E-01
    70  6.9000000000000E-01  1.2569686937170E+00 -2.6877266723193E-01 -5.6693870152285E-01
    71  7.0000000000000E-01  1.2790355010173E+00 -2.7654738964341E-01 -5.3831172598027E-01
    72  7.1000000000000E-01  1.2979762337238E+00 -2.7888749840437E-01 -5.1241086732679E-01
    73  7.2000000000000E-01  1.3136353447920E+00 -2.7554250448249E-01 -4.8946826072094E-01
    74  7.3000000000000E-01  1.3258953887067E+00 -2.6634143987183E-01 -4.6965239612387E-01
    75  7.4000000000000E-01  1.3346790569864E+00 -2.5119673282316E-01 -4.5306464478873E-01
    76  7.5000000000000E-01  1.3399506434302E+00 -2.3010687249576E-01 -4.3973680419530E-01