Ni    ONCVPSP-4.0.1  r_core=   1.25039   1.35151   1.65635
     28.0000     18.0000      240502    zatom,zion,pspd
     8       2   2     4   600     0    pspcod,pspxc,lmax,lloc,mmax,r2well
  5.99000000  3.00000000  0.00000000    rchrg fchrg qchrg
     2     2     2     0     0    nproj
     1     1           extension_switch
   0                         6.2630446539114E+00 -2.5102896615530E-01
     1  0.0000000000000E+00  5.3932232013665E-09  3.5354127014831E-08
     2  1.0000000000000E-02  1.0111698257797E-01  2.0729827936432E-02
     3  2.0000000000000E-02  2.0193328495846E-01  4.1666773106926E-02
     4  3.0000000000000E-02  3.0214792876913E-01  6.3007991110669E-02
     5  4.0000000000000E-02  4.0145938483405E-01  8.4931036425752E-02
     6  5.0000000000000E-02  4.9956541018821E-01  1.0758485771894E-01
     7  6.0000000000000E-02  5.9616301597559E-01  1.3108172186568E-01
     8  7.0000000000000E-02  6.9094860328666E-01  1.5549033316143E-01
     9  8.0000000000000E-02  7.8361829859828E-01  1.8083037885128E-01
    10  9.0000000000000E-02  8.7386851402890E-01  2.0706868983482E-01
    11  1.0000000000000E-01  9.6139675029933E-01  2.3411715741976E-01
    12  1.1000000000000E-01  1.0459026523005E+00  2.6183249466934E-01
    13  1.2000000000000E-01  1.1270893187428E+00  2.9001787570854E-01
    14  1.3000000000000E-01  1.2046648587374E+00  3.1842642990241E-01
    15  1.4000000000000E-01  1.2783441795858E+00  3.4676651171657E-01
    16  1.5000000000000E-01  1.3478509817747E+00  3.7470861293232E-01
    17  1.6000000000000E-01  1.4129199294347E+00  4.0189373328261E-01
    18  1.7000000000000E-01  1.4732989575394E+00  4.2794297997496E-01
    19  1.8000000000000E-01  1.5287516711143E+00  4.5246812731174E-01
    20  1.9000000000000E-01  1.5790597868637E+00  4.7508283587148E-01
    21  2.0000000000000E-01  1.6240255640626E+00  4.9541420743742E-01
    22  2.1000000000000E-01  1.6634741694104E+00  5.1311433777569E-01
    23  2.2000000000000E-01  1.6972559198849E+00  5.2787152494284E-01
    24  2.3000000000000E-01  1.7252483484994E+00  5.3942079624292E-01
    25  2.4000000000000E-01  1.7473580402452E+00  5.4755343217544E-01
    26  2.5000000000000E-01  1.7635221893540E+00  5.5212519036540E-01
    27  2.6000000000000E-01  1.7737098342413E+00  5.5306296591924E-01
    28  2.7000000000000E-01  1.7779227329736E+00  5.5036966602963E-01
    29  2.8000000000000E-01  1.7761958496652E+00  5.4412712485202E-01
    30  2.9000000000000E-01  1.7685974306749E+00  5.3449693838622E-01
    31  3.0000000000000E-01  1.7552286585993E+00  5.2171915684702E-01
    32  3.1000000000000E-01  1.7362228816253E+00  5.0610883219638E-01
    33  3.2000000000000E-01  1.7117444255468E+00  4.8805047945667E-01
    34  3.3000000000000E-01  1.6819870054068E+00  4.6799057041032E-01
    35  3.4000000000000E-01  1.6471717630440E+00  4.4642823561070E-01
    36  3.5000000000000E-01  1.6075449655433E+00  4.2390440363437E-01
    37  3.6000000000000E-01  1.5633754074763E+00  4.0098965365422E-01
    38  3.7000000000000E-01  1.5149515666555E+00  3.7827109731329E-01
    39  3.8000000000000E-01  1.4625785687238E+00  3.5633863732931E-01
    40  3.9000000000000E-01  1.4065750200979E+00  3.3577097227741E-01
    41  4.0000000000000E-01  1.3472697714719E+00  3.1712172886298E-01
    42  4.1000000000000E-01  1.2849986751691E+00  3.0090610425678E-01
    43  4.2000000000000E-01  1.2201013990877E+00  2.8758839156444E-01
    44  4.3000000000000E-01  1.1529183578134E+00  2.7757074138523E-01
    45  4.4000000000000E-01  1.0837878177310E+00  2.7118348212037E-01
    46  4.5000000000000E-01  1.0130432277472E+00  2.6867728194677E-01
    47  4.6000000000000E-01  9.4101082068173E-01  2.7021738718279E-01
    48  4.7000000000000E-01  8.6800752266029E-01  2.7588011637972E-01
    49  4.8000000000000E-01  7.9433919916523E-01  2.8565172834584E-01
    50  4.9000000000000E-01  7.2029925699913E-01  2.9942971708265E-01
    51  5.0000000000000E-01  6.4616761155049E-01  3.1702651906147E-01
    52  5.1000000000000E-01  5.7221001869000E-01  3.3817555025153E-01
    53  5.2000000000000E-01  4.9867776064811E-01  3.6253942371955E-01
    54  5.3000000000000E-01  4.2580766560770E-01  3.8972013533827E-01
    55  5.4000000000000E-01  3.5382243175766E-01  4.1927094697266E-01
    56  5.5000000000000E-01  2.8293121844846E-01  4.5070964514971E-01
    57  5.6000000000000E-01  2.1333046009973E-01  4.8353281018524E-01
    58  5.7000000000000E-01  1.4520485283314E-01  5.1723069734792E-01
    59  5.8000000000000E-01  7.8728459608726E-02  5.5130230895196E-01
    60  5.9000000000000E-01  1.4065877053703E-02  5.8527022506388E-01
    61  6.0000000000000E-01 -4.8626593726175E-02  6.1869476125821E-01
    62  6.1000000000000E-01 -1.0919982923820E-01  6.5118703471155E-01
    63  6.2000000000000E-01 -1.6751087294529E-01  6.8242054470123E-01
    64  6.3000000000000E-01 -2.2342208201924E-01  7.1214090975814E-01
    65  6.4000000000000E-01 -2.7680047593150E-01  7.4017345047888E-01
    66  6.5000000000000E-01 -3.2751732418362E-01  7.6642836319206E-01
    67  6.6000000000000E-01 -3.7544800215455E-01  7.9090329388441E-01
    68  6.7000000000000E-01 -4.2047213474613E-01  8.1368319236817E-01
    69  6.8000000000000E-01 -4.6247403749742E-01  8.3493740176889E-01
    70  6.9000000000000E-01 -5.0134345439598E-01  8.5491401601953E-01
    71  7.0000000000000E-01 -5.3697658103439E-01  8.7393161607814E-01
    72  7.1000000000000E-01 -5.6927735134713E-01  8.9236857189077E-01
    73  7.2000000000000E-01 -5.9815895621992E-01  9.1065016958734E-01
    74  7.3000000000000E-01 -6.2354555308271E-01  9.2923388996668E-01
    75  7.4000000000000E-01 -6.4537411745556E-01  9.4859322309435E-01
    76  7.5000000000000E-01 -6.6359638056326E-01  9.6920045305842E-01
    77  7.6000000000000E-01 -6.7818079178815E-01  9.9150888511745E-01
    78  7.7000000000000E-01 -6.8911444106948E-01  1.0159350134079E+00
    79  7.8000000000000E-01 -6.9640487451621E-01  1.0428411401525E+00
    80  7.9000000000000E-01 -7.0008173656500E-01  1.0725189563657E+00
    81  8.0000000000000E-01 -7.0019817401887E-01  1.1051745791916E+00
    82  8.1000000000000E-01 -6.9683194122713E-01  1.1409155124078E+00
    83  8.2000000000000E-01 -6.9008615144052E-01  1.1797399548340E+00
    84  8.3000000000000E-01 -6.8008962687225E-01  1.2215288273093E+00
    85  8.4000000000000E-01 -6.6699680904309E-01  1.2660408238036E+00
    86  8.5000000000000E-01 -6.5098720136667E-01  1.3129107176706E+00
    87  8.6000000000000E-01 -6.3226432738165E-01  1.3616510718789E+00
    88  8.7000000000000E-01 -6.1105420026790E-01  1.4116574143525E+00
    89  8.8000000000000E-01 -5.8760331197653E-01  1.4622168485477E+00
    90  8.9000000000000E-01 -5.6217616312300E-01  1.5125199774783E+00
    91  9.0000000000000E-01 -5.3505236739449E-01  1.5616759289855E+00
    92  9.1000000000000E-01 -5.0652337626371E-01  1.6087301835562E+00
    93  9.2000000000000E-01 -4.7688888094780E-01  1.6526848257714E+00
    94  9.3000000000000E-01 -4.4645295848708E-01  1.6925207687274E+00
    95  9.4000000000000E-01 -4.1552003725903E-01  1.7272214395205E+00
    96  9.5000000000000E-01 -3.8439076393372E-01  1.7557973649048E+00
    97  9.6000000000000E-01 -3.5335785861137E-01  1.7773110609633E+00
    98  9.7000000000000E-01 -3.2270204749964E-01  1.7909016102196E+00
    99  9.8000000000000E-01 -2.9268816288211E-01  1.7958083047762E+00
   100  9.9000000000000E-01 -2.6356149825211E-01  1.7913927451679E+00
   101  1.0000000000000E+00 -2.3554450234491E-01  1.7771588115759E+00
   102  1.0100000000000E+00 -2.0883388946818E-01  1.7527699664027E+00
   103  1.0200000000000E+00 -1.8359823513936E-01  1.7180634039949E+00
   104  1.0300000000000E+00 -1.5997611575574E-01  1.6730606333809E+00
   105  1.0400000000000E+00 -1.3807483910206E-01  1.6179741614958E+00
   106  1.0500000000000E+00 -1.1796979922285E-01  1.5532100355302E+00
   107  1.0600000000000E+00 -9.9704474837254E-02  1.4793661017923E+00
   108  1.0700000000000E+00 -8.3291075461043E-02  1.3972259419629E+00
   109  1.0800000000000E+00 -6.8711824042832E-02  1.3077485536404E+00
   110  1.0900000000000E+00 -5.5920849617548E-02  1.2120539478370E+00
   111  1.1000000000000E+00 -4.4846648658249E-02  1.1114049386281E+00
   112  1.1100000000000E+00 -3.5395059746513E-02  1.0071854975235E+00
   113  1.1200000000000E+00 -2.7452683382455E-02  9.0087613384843E-01
   114  1.1300000000000E+00 -2.0890667393713E-02  7.9402684126199E-01
   115  1.1400000000000E+00 -1.5568768928696E-02  6.8822821637256E-01
   116  1.1500000000000E+00 -1.1339596551734E-02  5.8508140740945E-01
   117  1.1600000000000E+00 -8.0529308064450E-03  4.8616758690945E-01
   118  1.1700000000000E+00 -5.5600169839598E-03  3.9301767076903E-01
   119  1.1800000000000E+00 -3.7177428649799E-03  3.0708290056782E-01
   120  1.1900000000000E+00 -2.3933344722896E-03  2.2970366618639E-01
   121  1.2000000000000E+00 -1.4795392663215E-03  1.6202638115056E-01
   122  1.2100000000000E+00 -8.6967054913900E-04  1.0511353603617E-01
   123  1.2200000000000E+00 -4.6940614578962E-04  5.9887186318732E-02
   124  1.2300000000000E+00 -2.1149381589551E-04  2.7046787403939E-02
   125  1.2400000000000E+00 -5.7210902382574E-05  6.9704554700451E-03
   126  1.2500000000000E+00 -5.3379267298915E-07  5.9060416494456E-05
   127  1.2600000000000E+00 -4.0211961370270E-07  4.6200171143769E-05
   128  1.2700000000000E+00  7.4104723732178E-08 -8.8032040236025E-06
   129  1.28 -0.  0.
   130  1.29  0.  0.
   131  1.30  0.  0.
   132  1.31  0.  0.
   133  1.32  0.  0.
   134  1.33  0.  0.
   135  1.34  0.  0.
   136  1.35  0.  0.
   137  1.36  0.  0.
   138  1.37  0.  0.
   139  1.38  0.  0.
   140  1.39  0.  0.
   141  1.40  0.  0.
   142  1.41  0.  0.
   143  1.42  0.  0.
   144  1.43  0.  0.
   145  1.44  0.  0.
   146  1.45  0.  0.
   147  1.46  0.  0.
   148  1.47  0.  0.
   149  1.48  0.  0.
   150  1.49  0.  0.
   151  1.50  0.  0.
   152  1.51  0.  0.
   153  1.52  0.  0.
   154  1.53  0.  0.
   155  1.54  0.  0.
   156  1.55  0.  0.
   157  1.56  0.  0.
   158  1.57  0.  0.
   159  1.58  0.  0.
   160  1.59  0.  0.
   161  1.60  0.  0.
   162  1.61  0.  0.
   163  1.62  0.  0.
   164  1.63  0.  0.
   165  1.64  0.  0.
   166  1.65  0.  0.
   167  1.66  0.  0.
   168  1.67  0.  0.
   169  1.68  0.  0.
   170  1.69  0.  0.
   171  1.70  0.  0.
   172  1.71  0.  0.
   173  1.72  0.  0.
   174  1.73  0.  0.
   175  1.74  0.  0.
   176  1.75  0.  0.
   177  1.76  0.  0.
   178  1.77  0.  0.
   179  1.78  0.  0.
   180  1.79  0.  0.
   181  1.80  0.  0.
   182  1.81  0.  0.
   183  1.82  0.  0.
   184  1.83  0.  0.
   185  1.84  0.  0.
   186  1.85  0.  0.
   187  1.86  0.  0.
   188  1.87  0.  0.
   189  1.88  0.  0.
   190  1.89  0.  0.
   191  1.90  0.  0.
   192  1.91  0.  0.
   193  1.92  0.  0.
   194  1.93  0.  0.
   195  1.94  0.  0.
   196  1.95  0.  0.
   197  1.96  0.  0.
   198  1.97  0.  0.
   199  1.98  0.  0.
   200  1.99  0.  0.
   201  2.00  0.  0.
   202  2.01  0.  0.
   203  2.02  0.  0.
   204  2.03  0.  0.
   205  2.04  0.  0.
   206  2.05  0.  0.
   207  2.06  0.  0.
   208  2.07  0.  0.
   209  2.08  0.  0.
   210  2.09  0.  0.
   211  2.10  0.  0.
   212  2.11  0.  0.
   213  2.12  0.  0.
   214  2.13  0.  0.
   215  2.14  0.  0.
   216  2.15  0.  0.
   217  2.16  0.  0.
   218  2.17  0.  0.
   219  2.18  0.  0.
   220  2.19  0.  0.
   221  2.20  0.  0.
   222  2.21  0.  0.
   223  2.22  0.  0.
   224  2.23  0.  0.
   225  2.24  0.  0.
   226  2.25  0.  0.
   227  2.26  0.  0.
   228  2.27  0.  0.
   229  2.28  0.  0.
   230  2.29  0.  0.
   231  2.30  0.  0.
   232  2.31  0.  0.
   233  2.32  0.  0.
   234  2.33  0.  0.
   235  2.34  0.  0.
   236  2.35  0.  0.
   237  2.36  0.  0.
   238  2.37  0.  0.
   239  2.38  0.  0.
   240  2.39  0.  0.
   241  2.40  0.  0.
   242  2.41  0.  0.
   243  2.42  0.  0.
   244  2.43  0.  0.
   245  2.44  0.  0.
   246  2.45  0.  0.
   247  2.46  0.  0.
   248  2.47  0.  0.
   249  2.48  0.  0.
   250  2.49  0.  0.
   251  2.50  0.  0.
   252  2.51  0.  0.
   253  2.52  0.  0.
   254  2.53  0.  0.
   255  2.54  0.  0.
   256  2.55  0.  0.
   257  2.56  0.  0.
   258  2.57  0.  0.
   259  2.58  0.  0.
   260  2.59  0.  0.
   261  2.60  0.  0.
   262  2.61  0.  0.
   263  2.62  0.  0.
   264  2.63  0.  0.
   265  2.64  0.  0.
   266  2.65  0.  0.
   267  2.66  0.  0.
   268  2.67  0.  0.
   269  2.68  0.  0.
   270  2.69  0.  0.
   271  2.70  0.  0.
   272  2.71  0.  0.
   273  2.72  0.  0.
   274  2.73  0.  0.
   275  2.74  0.  0.
   276  2.75  0.  0.
   277  2.76  0.  0.
   278  2.77  0.  0.
   279  2.78  0.  0.
   280  2.79  0.  0.
   281  2.80  0.  0.
   282  2.81  0.  0.
   283  2.82  0.  0.
   284  2.83  0.  0.
   285  2.84  0.  0.
   286  2.85  0.  0.
   287  2.86  0.  0.
   288  2.87  0.  0.
   289  2.88  0.  0.
   290  2.89  0.  0.
   291  2.90  0.  0.
   292  2.91  0.  0.
   293  2.92  0.  0.
   294  2.93  0.  0.
   295  2.94  0.  0.
   296  2.95  0.  0.
   297  2.96  0.  0.
   298  2.97  0.  0.
   299  2.98  0.  0.
   300  2.99  0.  0.
   301  3.00  0.  0.
   302  3.01  0.  0.
   303  3.02  0.  0.
   304  3.03  0.  0.
   305  3.04  0.  0.
   306  3.05  0.  0.
   307  3.06  0.  0.
   308  3.07  0.  0.
   309  3.08  0.  0.
   310  3.09  0.  0.
   311  3.10  0.  0.
   312  3.11  0.  0.
   313  3.12  0.  0.
   314  3.13  0.  0.
   315  3.14  0.  0.
   316  3.15  0.  0.
   317  3.16  0.  0.
   318  3.17  0.  0.
   319  3.18  0.  0.
   320  3.19  0.  0.
   321  3.20  0.  0.
   322  3.21  0.  0.
   323  3.22  0.  0.
   324  3.23  0.  0.
   325  3.24  0.  0.
   326  3.25  0.  0.
   327  3.26  0.  0.
   328  3.27  0.  0.
   329  3.28  0.  0.
   330  3.29  0.  0.
   331  3.30  0.  0.
   332  3.31  0.  0.
   333  3.32  0.  0.
   334  3.33  0.  0.
   335  3.34  0.  0.
   336  3.35  0.  0.
   337  3.36  0.  0.
   338  3.37  0.  0.
   339  3.38  0.  0.
   340  3.39  0.  0.
   341  3.40  0.  0.
   342  3.41  0.  0.
   343  3.42  0.  0.
   344  3.43  0.  0.
   345  3.44  0.  0.
   346  3.45  0.  0.
   347  3.46  0.  0.
   348  3.47  0.  0.
   349  3.48  0.  0.
   350  3.49  0.  0.
   351  3.50  0.  0.
   352  3.51  0.  0.
   353  3.52  0.  0.
   354  3.53  0.  0.
   355  3.54  0.  0.
   356  3.55  0.  0.
   357  3.56  0.  0.
   358  3.57  0.  0.
   359  3.58  0.  0.
   360  3.59  0.  0.
   361  3.60  0.  0.
   362  3.61  0.  0.
   363  3.62  0.  0.
   364  3.63  0.  0.
   365  3.64  0.  0.
   366  3.65  0.  0.
   367  3.66  0.  0.
   368  3.67  0.  0.
   369  3.68  0.  0.
   370  3.69  0.  0.
   371  3.70  0.  0.
   372  3.71  0.  0.
   373  3.72  0.  0.
   374  3.73  0.  0.
   375  3.74  0.  0.
   376  3.75  0.  0.
   377  3.76  0.  0.
   378  3.77  0.  0.
   379  3.78  0.  0.
   380  3.79  0.  0.
   381  3.80  0.  0.
   382  3.81  0.  0.
   383  3.82  0.  0.
   384  3.83  0.  0.
   385  3.84  0.  0.
   386  3.85  0.  0.
   387  3.86  0.  0.
   388  3.87  0.  0.
   389  3.88  0.  0.
   390  3.89  0.  0.
   391  3.90  0.  0.
   392  3.91  0.  0.
   393  3.92  0.  0.
   394  3.93  0.  0.
   395  3.94  0.  0.
   396  3.95  0.  0.
   397  3.96  0.  0.
   398  3.97  0.  0.
   399  3.98  0.  0.
   400  3.99  0.  0.
   401  4.00  0.  0.
   402  4.01  0.  0.
   403  4.02  0.  0.
   404  4.03  0.  0.
   405  4.04  0.  0.
   406  4.05  0.  0.
   407  4.06  0.  0.
   408  4.07  0.  0.
   409  4.08  0.  0.
   410  4.09  0.  0.
   411  4.10  0.  0.
   412  4.11  0.  0.
   413  4.12  0.  0.
   414  4.13  0.  0.
   415  4.14  0.  0.
   416  4.15  0.  0.
   417  4.16  0.  0.
   418  4.17  0.  0.
   419  4.18  0.  0.
   420  4.19  0.  0.
   421  4.20  0.  0.
   422  4.21  0.  0.
   423  4.22  0.  0.
   424  4.23  0.  0.
   425  4.24  0.  0.
   426  4.25  0.  0.
   427  4.26  0.  0.
   428  4.27  0.  0.
   429  4.28  0.  0.
   430  4.29  0.  0.
   431  4.30  0.  0.
   432  4.31  0.  0.
   433  4.32  0.  0.
   434  4.33  0.  0.
   435  4.34  0.  0.
   436  4.35  0.  0.
   437  4.36  0.  0.
   438  4.37  0.  0.
   439  4.38  0.  0.
   440  4.39  0.  0.
   441  4.40  0.  0.
   442  4.41  0.  0.
   443  4.42  0.  0.
   444  4.43  0.  0.
   445  4.44  0.  0.
   446  4.45  0.  0.
   447  4.46  0.  0.
   448  4.47  0.  0.
   449  4.48  0.  0.
   450  4.49  0.  0.
   451  4.50  0.  0.
   452  4.51  0.  0.
   453  4.52  0.  0.
   454  4.53  0.  0.
   455  4.54  0.  0.
   456  4.55  0.  0.
   457  4.56  0.  0.
   458  4.57  0.  0.
   459  4.58  0.  0.
   460  4.59  0.  0.
   461  4.60  0.  0.
   462  4.61  0.  0.
   463  4.62  0.  0.
   464  4.63  0.  0.
   465  4.64  0.  0.
   466  4.65  0.  0.
   467  4.66  0.  0.
   468  4.67  0.  0.
   469  4.68  0.  0.
   470  4.69  0.  0.
   471  4.70  0.  0.
   472  4.71  0.  0.
   473  4.72  0.  0.
   474  4.73  0.  0.
   475  4.74  0.  0.
   476  4.75  0.  0.
   477  4.76  0.  0.
   478  4.77  0.  0.
   479  4.78  0.  0.
   480  4.79  0.  0.
   481  4.80  0.  0.
   482  4.81  0.  0.
   483  4.82  0.  0.
   484  4.83  0.  0.
   485  4.84  0.  0.
   486  4.85  0.  0.
   487  4.86  0.  0.
   488  4.87  0.  0.
   489  4.88  0.  0.
   490  4.89  0.  0.
   491  4.90  0.  0.
   492  4.91  0.  0.
   493  4.92  0.  0.
   494  4.93  0.  0.
   495  4.94  0.  0.
   496  4.95  0.  0.
   497  4.96  0.  0.
   498  4.97  0.  0.
   499  4.98  0.  0.
   500  4.99  0.  0.
   501  5.00  0.  0.
   502  5.01  0.  0.
   503  5.02  0.  0.
   504  5.03  0.  0.
   505  5.04  0.  0.
   506  5.05  0.  0.
   507  5.06  0.  0.
   508  5.07  0.  0.
   509  5.08  0.  0.
   510  5.09  0.  0.
   511  5.10  0.  0.
   512  5.11  0.  0.
   513  5.12  0.  0.
   514  5.13  0.  0.
   515  5.14  0.  0.
   516  5.15  0.  0.
   517  5.16  0.  0.
   518  5.17  0.  0.
   519  5.18  0.  0.
   520  5.19  0.  0.
   521  5.20  0.  0.
   522  5.21  0.  0.
   523  5.22  0.  0.
   524  5.23  0.  0.
   525  5.24  0.  0.
   526  5.25  0.  0.
   527  5.26  0.  0.
   528  5.27  0.  0.
   529  5.28  0.  0.
   530  5.29  0.  0.
   531  5.30  0.  0.
   532  5.31  0.  0.
   533  5.32  0.  0.
   534  5.33  0.  0.
   535  5.34  0.  0.
   536  5.35  0.  0.
   537  5.36  0.  0.
   538  5.37  0.  0.
   539  5.38  0.  0.
   540  5.39  0.  0.
   541  5.40  0.  0.
   542  5.41  0.  0.
   543  5.42  0.  0.
   544  5.43  0.  0.
   545  5.44  0.  0.
   546  5.45  0.  0.
   547  5.46  0.  0.
   548  5.47  0.  0.
   549  5.48  0.  0.
   550  5.49  0.  0.
   551  5.50  0.  0.
   552  5.51  0.  0.
   553  5.52  0.  0.
   554  5.53  0.  0.
   555  5.54  0.  0.
   556  5.55  0.  0.
   557  5.56  0.  0.
   558  5.57  0.  0.
   559  5.58  0.  0.
   560  5.59  0.  0.
   561  5.60  0.  0.
   562  5.61  0.  0.
   563  5.62  0.  0.
   564  5.63  0.  0.
   565  5.64  0.  0.
   566  5.65  0.  0.
   567  5.66  0.  0.
   568  5.67  0.  0.
   569  5.68  0.  0.
   570  5.69  0.  0.
   571  5.70  0.  0.
   572  5.71  0.  0.
   573  5.72  0.  0.
   574  5.73  0.  0.
   575  5.74  0.  0.
   576  5.75  0.  0.
   577  5.76  0.  0.
   578  5.77  0.  0.
   579  5.78  0.  0.
   580  5.79  0.  0.
   581  5.80  0.  0.
   582  5.81  0.  0.
   583  5.82  0.  0.
   584  5.83  0.  0.
   585  5.84  0.  0.
   586  5.85  0.  0.
   587  5.86  0.  0.
   588  5.87  0.  0.
   589  5.88  0.  0.
   590  5.89  0.  0.
   591  5.90  0.  0.
   592  5.91  0.  0.
   593  5.92  0.  0.
   594  5.93  0.  0.
   595  5.94  0.  0.
   596  5.95  0.  0.
   597  5.96  0.  0.
   598  5.97  0.  0.
   599  5.98  0.  0.
   600  5.99  0.  0.
   1                        -2.9551918710283E+00 -4.0500901720751E-01
     1  0.0000000000000E+00 -2.3648142194466E-09  1.8771045579014E-08
     2  1.0000000000000E-02  1.5109067437982E-03 -8.3751637545028E-04
     3  2.0000000000000E-02  6.0397613422071E-03 -3.3552517111957E-03
     4  3.0000000000000E-02  1.3574929957933E-02 -7.5683960261608E-03
     5  4.0000000000000E-02  2.4096901244577E-02 -1.3501049520525E-02
     6  5.0000000000000E-02  3.7578109163357E-02 -2.1184440160107E-02
     7  6.0000000000000E-02  5.3982695261347E-02 -3.0654511655352E-02
     8  7.0000000000000E-02  7.3266220396627E-02 -4.1948962193731E-02
     9  8.0000000000000E-02  9.5375338260556E-02 -5.5103833055385E-02
    10  9.0000000000000E-02  1.2024744506371E-01 -7.0149762032744E-02
    11  1.0000000000000E-01  1.4781032136304E-01 -8.7108028913062E-02
    12  1.1000000000000E-01  1.7798178316590E-01 -1.0598652877636E-01
    13  1.2000000000000E-01  2.1066936011809E-01 -1.2677581324788E-01
    14  1.3000000000000E-01  2.4577001874601E-01 -1.4944533996707E-01
    15  1.4000000000000E-01  2.8316994837001E-01 -1.7394006636691E-01
    16  1.5000000000000E-01  3.2274442644424E-01 -2.0017751550039E-01
    17  1.6000000000000E-01  3.6435777872641E-01 -2.2804542931828E-01
    18  1.7000000000000E-01  4.0786344787445E-01 -2.5740010883946E-01
    19  1.8000000000000E-01  4.5310418185074E-01 -2.8806552150237E-01
    20  1.9000000000000E-01  4.9991235094591E-01 -3.1983323418994E-01
    21  2.0000000000000E-01  5.4811039938104E-01 -3.5246320660004E-01
    22  2.1000000000000E-01  5.9751143438258E-01 -3.8568545447913E-01
    23  2.2000000000000E-01  6.4791995243146E-01 -4.1920256647697E-01
    24  2.3000000000000E-01  6.9913269914860E-01 -4.5269303277064E-01
    25  2.4000000000000E-01  7.5093965608226E-01 -4.8581531890324E-01
    26  2.5000000000000E-01  8.0312514459037E-01 -5.1821259522413E-01
    27  2.6000000000000E-01  8.5546903414814E-01 -5.4951801159866E-01
    28  2.7000000000000E-01  9.0774803983211E-01 -5.7936038931320E-01
    29  2.8000000000000E-01  9.5973709150664E-01 -6.0737018788838E-01
    30  2.9000000000000E-01  1.0112107554277E+00 -6.3318559429103E-01
    31  3.0000000000000E-01  1.0619446876286E+00 -6.5645857614887E-01
    32  3.1000000000000E-01  1.1117170976033E+00 -6.7686073924854E-01
    33  3.2000000000000E-01  1.1603102004713E+00 -6.9408883293268E-01
    34  3.3000000000000E-01  1.2075116360131E+00 -7.0786975496875E-01
    35  3.4000000000000E-01  1.2531158336892E+00 -7.1796491986593E-01
    36  3.5000000000000E-01  1.2969253039908E+00 -7.2417387116963E-01
    37  3.6000000000000E-01  1.3387518381738E+00 -7.2633703853064E-01
    38  3.7000000000000E-01  1.3784176005605E+00 -7.2433756379715E-01
    39  3.8000000000000E-01  1.4157561000930E+00 -7.1810214636283E-01
    40  3.9000000000000E-01  1.4506130306224E+00 -7.0760088581125E-01
    41  4.0000000000000E-01  1.4828469724440E+00 -6.9284612873164E-01
    42  4.1000000000000E-01  1.5123299507541E+00 -6.7389035562622E-01
    43  4.2000000000000E-01  1.5389478499282E+00 -6.5082317223149E-01
    44  4.3000000000000E-01  1.5626006857081E+00 -6.2376749650360E-01
    45  4.4000000000000E-01  1.5832027404582E+00 -5.9287505715550E-01
    46  4.5000000000000E-01  1.6006825695156E+00 -5.5832134122589E-01
    47  4.6000000000000E-01  1.6149828892462E+00 -5.2030014602616E-01
    48  4.7000000000000E-01  1.6260603596477E+00 -4.7901790436080E-01
    49  4.8000000000000E-01  1.6338852761628E+00 -4.3468796068215E-01
    50  4.9000000000000E-01  1.6384411867187E+00 -3.8752497947236E-01
    51  5.0000000000000E-01  1.6397244508693E+00 -3.3773966544545E-01
    52  5.1000000000000E-01  1.6377437582492E+00 -2.8553396807607E-01
    53  5.2000000000000E-01  1.6325196233577E+00 -2.3109693058568E-01
    54  5.3000000000000E-01  1.6240838729759E+00 -1.7460132610838E-01
    55  5.4000000000000E-01  1.6124791413077E+00 -1.1620120171603E-01
    56  5.5000000000000E-01  1.5977583862603E+00 -5.6030424847579E-02
    57  5.6000000000000E-01  1.5799844381954E+00  5.7977028696668E-03
    58  5.7000000000000E-01  1.5592295900501E+00  6.9189731619958E-02
    59  5.8000000000000E-01  1.5355752350161E+00  1.3407025040624E-01
    60  5.9000000000000E-01  1.5091115550673E+00  2.0037901105457E-01
    61  6.0000000000000E-01  1.4799372606217E+00  2.6806705986105E-01
    62  6.1000000000000E-01  1.4481593786065E+00  3.3709198102806E-01
    63  6.2000000000000E-01  1.4138930832606E+00  4.0741238739939E-01
    64  6.3000000000000E-01  1.3772615612497E+00  4.7898182227192E-01
    65  6.4000000000000E-01  1.3383959001724E+00  5.5174226035213E-01
    66  6.5000000000000E-01  1.2974349873834E+00  6.2561741544462E-01
    67  6.6000000000000E-01  1.2545254043284E+00  7.0050607652272E-01
    68  6.7000000000000E-01  1.2098213003297E+00  7.7627570190360E-01
    69  6.8000000000000E-01  1.1634842290449E+00  8.5275650293453E-01
    70  6.9000000000000E-01  1.1156829306571E+00  9.2973624368102E-01
    71  7.0000000000000E-01  1.0665930432890E+00  1.0069559715394E+00
    72  7.1000000000000E-01  1.0163967281416E+00  1.0841068756270E+00
    73  7.2000000000000E-01  9.6528219444589E-01  1.1608284455410E+00
    74  7.3000000000000E-01  9.1344311244634E-01  1.2367080731370E+00
    75  7.4000000000000E-01  8.6107790525183E-01  1.3112822050153E+00
    76  7.5000000000000E-01  8.0838891344962E-01  1.3840391142422E+00
    77  7.6000000000000E-01  7.5558142978560E-01  1.4544233174365E+00
    78  7.7000000000000E-01  7.0286260489638E-01  1.5218416187704E+00
    79  7.8000000000000E-01  6.5044022893099E-01  1.5856707168297E+00
    80  7.9000000000000E-01  5.9852139782132E-01  1.6452662648528E+00
    81  8.0000000000000E-01  5.4731107684123E-01  1.6999732308551E+00
    82  8.1000000000000E-01  4.9701057782576E-01  1.7491373627539E+00
    83  8.2000000000000E-01  4.4781596989550E-01  1.7921175260383E+00
    84  8.3000000000000E-01  3.9991644664275E-01  1.8282986488692E+00
    85  8.4000000000000E-01  3.5349267539123E-01  1.8571049827555E+00
    86  8.5000000000000E-01  3.0871515625133E-01  1.8780133670012E+00
    87  8.6000000000000E-01  2.6574262018729E-01  1.8905661726668E+00
    88  8.7000000000000E-01  2.2472049613136E-01  1.8943835973582E+00
    89  8.8000000000000E-01  1.8577947728113E-01  1.8891749860868E+00
    90  8.9000000000000E-01  1.4903421607746E-01  1.8747488658483E+00
    91  9.0000000000000E-01  1.1458217597542E-01  1.8510214023466E+00
    92  9.1000000000000E-01  8.2502666005237E-02  1.8180230161251E+00
    93  9.2000000000000E-01  5.2856081308559E-02  1.7759029317272E+00
    94  9.3000000000000E-01  2.5683369380092E-02  1.7249314766418E+00
    95  9.4000000000000E-01  1.0057377166121E-03  1.6654999957807E+00
    96  9.5000000000000E-01 -2.1175385938508E-02  1.5981183009701E+00
    97  9.6000000000000E-01 -4.0878134465875E-02  1.5234096321774E+00
    98  9.7000000000000E-01 -5.8139722238092E-02  1.4421031665869E+00
    99  9.8000000000000E-01 -7.3015710188680E-02  1.3550241717167E+00
   100  9.9000000000000E-01 -8.5579024632317E-02  1.2630819580899E+00
   101  1.0000000000000E+00 -9.5918744625999E-02  1.1672558440070E+00
   102  1.0100000000000E+00 -1.0413867766524E-01  1.0685793982668E+00
   103  1.0200000000000E+00 -1.1035574815137E-01  9.6812327482788E-01
   104  1.0300000000000E+00 -1.1469822723419E-01  8.6697699517786E-01
   105  1.0400000000000E+00 -1.1730383621174E-01  7.6623006831263E-01
   106  1.0500000000000E+00 -1.1831775856937E-01  6.6695286384605E-01
   107  1.0600000000000E+00 -1.1789059788515E-01  5.7017767005123E-01
   108  1.0700000000000E+00 -1.1617632015181E-01  4.7688037498925E-01
   109  1.0800000000000E+00 -1.1333021953660E-01  3.8796320505286E-01
   110  1.0900000000000E+00 -1.0950694618966E-01  3.0423894106513E-01
   111  1.1000000000000E+00 -1.0485863343523E-01  2.2641700787810E-01
   112  1.1100000000000E+00 -9.9533159542928E-02  1.5509179935861E-01
   113  1.1200000000000E+00 -9.3672576353527E-02  9.0733557839729E-02
   114  1.1300000000000E+00 -8.7411733352003E-02  3.3682075889507E-02
   115  1.1400000000000E+00 -8.0877121474943E-02 -1.5856569579042E-02
   116  1.1500000000000E+00 -7.4185956052152E-02 -5.7810104761389E-02
   117  1.1600000000000E+00 -6.7445513000335E-02 -9.2236889532159E-02
   118  1.1700000000000E+00 -6.0752726753040E-02 -1.1931948355960E-01
   119  1.1800000000000E+00 -5.4194052663282E-02 -1.3935501155244E-01
   120  1.1900000000000E+00 -4.7845590861394E-02 -1.5274246117742E-01
   121  1.2000000000000E+00 -4.1773461217088E-02 -1.5996714012185E-01
   122  1.2100000000000E+00 -3.6034423728072E-02 -1.6158243161423E-01
   123  1.2200000000000E+00 -3.0676113298663E-02 -1.5819820336843E-01
   124  1.2300000000000E+00 -2.5735590587360E-02 -1.5049397746313E-01
   125  1.2400000000000E+00 -2.1238966983928E-02 -1.3921504808030E-01
   126  1.2500000000000E+00 -1.7202161494939E-02 -1.2515235783127E-01
   127  1.2600000000000E+00 -1.3631779299825E-02 -1.0912171124203E-01
   128  1.2700000000000E+00 -1.0526032595815E-02 -9.1943187702505E-02
   129  1.2800000000000E+00 -7.8758856487582E-03 -7.4419417096139E-02
   130  1.2900000000000E+00 -5.6616298419665E-03 -5.7354174414875E-02
   131  1.3000000000000E+00 -3.8502170569261E-03 -4.1567431438349E-02
   132  1.3100000000000E+00 -2.4247595410848E-03 -2.7630884620616E-02
   133  1.3200000000000E+00 -1.3643791550976E-03 -1.6030695951591E-02
   134  1.3300000000000E+00 -6.2987577841544E-04 -7.3522719643432E-03
   135  1.3400000000000E+00 -1.6718555839292E-04 -2.1810453122077E-03
   136  1.3500000000000E+00 -6.6059991595011E-06 -6.7915071203893E-05
   137  1.3600000000000E+00 -2.3455922004137E-07 -3.0042552676982E-06
   138  1.3700000000000E+00  1.7548304457097E-07  2.2679804905508E-06
   139  1.38  0. -0.
   140  1.39  0.  0.
   141  1.40  0.  0.
   142  1.41  0.  0.
   143  1.42  0.  0.
   144  1.43  0.  0.
   145  1.44  0.  0.
   146  1.45  0.  0.
   147  1.46  0.  0.
   148  1.47  0.  0.
   149  1.48  0.  0.
   150  1.49  0.  0.
   151  1.50  0.  0.
   152  1.51  0.  0.
   153  1.52  0.  0.
   154  1.53  0.  0.
   155  1.54  0.  0.
   156  1.55  0.  0.
   157  1.56  0.  0.
   158  1.57  0.  0.
   159  1.58  0.  0.
   160  1.59  0.  0.
   161  1.60  0.  0.
   162  1.61  0.  0.
   163  1.62  0.  0.
   164  1.63  0.  0.
   165  1.64  0.  0.
   166  1.65  0.  0.
   167  1.66  0.  0.
   168  1.67  0.  0.
   169  1.68  0.  0.
   170  1.69  0.  0.
   171  1.70  0.  0.
   172  1.71  0.  0.
   173  1.72  0.  0.
   174  1.73  0.  0.
   175  1.74  0.  0.
   176  1.75  0.  0.
   177  1.76  0.  0.
   178  1.77  0.  0.
   179  1.78  0.  0.
   180  1.79  0.  0.
   181  1.80  0.  0.
   182  1.81  0.  0.
   183  1.82  0.  0.
   184  1.83  0.  0.
   185  1.84  0.  0.