Ni    ONCVPSP-4.0.1  r_core=   1.25039   1.35151   1.65635
     28.0000     18.0000      250217    zatom,zion,pspd
     8       2   2     4   600     0    pspcod,pspxc,lmax,lloc,mmax,r2well
  5.99000000  3.00000000  0.00000000    rchrg fchrg qchrg
     2     2     2     0    nproj
     3     1           extension_switch
     4     3     0    nprojso
   0                         6.2655368459616E+00 -2.5060060702352E-01
     1  0.0000000000000E+00  5.3847888370484E-09  3.5435731404743E-08
     2  1.0000000000000E-02  1.0110662177720E-01  2.0782166023913E-02
     3  2.0000000000000E-02  2.0191261217683E-01  4.1771494697637E-02
     4  3.0000000000000E-02  3.0211704349213E-01  6.3165166434042E-02
     5  4.0000000000000E-02  4.0141844082920E-01  8.5140720054059E-02
     6  5.0000000000000E-02  4.9951462074502E-01  1.0784702967236E-01
     7  6.0000000000000E-02  5.9610266055338E-01  1.3139621240601E-01
     8  7.0000000000000E-02  6.9087903529335E-01  1.5585673399211E-01
     9  8.0000000000000E-02  7.8353995396993E-01  1.8124794396440E-01
    10  9.0000000000000E-02  8.7378192023703E-01  2.0753622967159E-01
    11  1.0000000000000E-01  9.6130253538130E-01  2.3463293032574E-01
    12  1.1000000000000E-01  1.0458015534893E+00  2.6239409981987E-01
    13  1.2000000000000E-01  1.1269821902670E+00  2.9062215174676E-01
    14  1.3000000000000E-01  1.2045526783688E+00  3.1906936346886E-01
    15  1.4000000000000E-01  1.2782280535347E+00  3.4744315985670E-01
    16  1.5000000000000E-01  1.3477321475654E+00  3.7541304305092E-01
    17  1.6000000000000E-01  1.4127997564407E+00  4.0261898387994E-01
    18  1.7000000000000E-01  1.4731789449134E+00  4.2868104486090E-01
    19  1.8000000000000E-01  1.5286334429166E+00  4.5320996536469E-01
    20  1.9000000000000E-01  1.5789450842642E+00  4.7581840770720E-01
    21  2.0000000000000E-01  1.6239162345709E+00  4.9613253959799E-01
    22  2.1000000000000E-01  1.6633721531733E+00  5.1380361426157E-01
    23  2.2000000000000E-01  1.6971632331711E+00  5.2851920511523E-01
    24  2.3000000000000E-01  1.7251670645758E+00  5.4001375734026E-01
    25  2.4000000000000E-01  1.7472902679259E+00  5.4807813394147E-01
    26  2.5000000000000E-01  1.7634700495760E+00  5.5256785859723E-01
    27  2.6000000000000E-01  1.7736754350857E+00  5.5340979113336E-01
    28  2.7000000000000E-01  1.7779081436039E+00  5.5060701293046E-01
    29  2.8000000000000E-01  1.7762030736976E+00  5.4424174788585E-01
    30  2.9000000000000E-01  1.7686283795249E+00  5.3447619838827E-01
    31  3.0000000000000E-01  1.7552851253628E+00  5.2155123364748E-01
    32  3.1000000000000E-01  1.7363065160557E+00  5.0578292805152E-01
    33  3.2000000000000E-01  1.7118567106716E+00  4.8755700831134E-01
    34  3.3000000000000E-01  1.6821292363020E+00  4.6732132828060E-01
    35  3.4000000000000E-01  1.6473450282390E+00  4.4557654778946E-01
    36  3.5000000000000E-01  1.6077501314740E+00  4.2286524496207E-01
    37  3.6000000000000E-01  1.5636131063367E+00  3.9975973874507E-01
    38  3.7000000000000E-01  1.5152221879199E+00  3.7684893837032E-01
    39  3.8000000000000E-01  1.4628822545261E+00  3.5472456799602E-01
    40  3.9000000000000E-01  1.4069116645642E+00  3.3396713684274E-01
    41  4.0000000000000E-01  1.3476390240065E+00  3.1513203703066E-01
    42  4.1000000000000E-01  1.2853999476011E+00  2.9873615259019E-01
    43  4.2000000000000E-01  1.2205338764891E+00  2.8524535359517E-01
    44  4.3000000000000E-01  1.1533810127133E+00  2.7506322920519E-01
    45  4.4000000000000E-01  1.0842794273671E+00  2.6852138303875E-01
    46  4.5000000000000E-01  1.0135623939224E+00  2.6587157446284E-01
    47  4.6000000000000E-01  9.4155599173369E-01  2.6727994108316E-01
    48  4.7000000000000E-01  8.6857701700046E-01  2.7282348219874E-01
    49  4.8000000000000E-01  7.9493122981179E-01  2.8248892171509E-01
    50  4.9000000000000E-01  7.2091195650799E-01  2.9617400363208E-01
    51  5.0000000000000E-01  6.4679905674595E-01  3.1369120551406E-01
    52  5.1000000000000E-01  5.7285825460989E-01  3.3477378717406E-01
    53  5.2000000000000E-01  4.9934082314768E-01  3.5908402505884E-01
    54  5.3000000000000E-01  4.2648360211090E-01  3.8622341939087E-01
    55  5.4000000000000E-01  3.5450931970312E-01  4.1574460281919E-01
    56  5.5000000000000E-01  2.8362718104898E-01  4.4716462784859E-01
    57  5.6000000000000E-01  2.1403367911572E-01  4.7997926718311E-01
    58  5.7000000000000E-01  1.4591357815115E-01  5.1367792764869E-01
    59  5.8000000000000E-01  7.9441015512465E-02  5.4775875561764E-01
    60  5.9000000000000E-01  1.4780665174909E-02  5.8174350062394E-01
    61  6.0000000000000E-01 -4.7911094689519E-02  6.1519170460976E-01
    62  6.1000000000000E-01 -1.0848506685055E-01  6.4771379712637E-01
    63  6.2000000000000E-01 -1.6679822713044E-01  6.7898270164651E-01
    64  6.3000000000000E-01 -2.2271287356141E-01  7.0874359441161E-01
    65  6.4000000000000E-01 -2.7609597694155E-01  7.3682150410056E-01
    66  6.5000000000000E-01 -3.2681877002868E-01  7.6312649692662E-01
    67  6.6000000000000E-01 -3.7475660430117E-01  7.8765625612744E-01
    68  6.7000000000000E-01 -4.1978909393461E-01  8.1049593555323E-01
    69  6.8000000000000E-01 -4.6180055664973E-01  8.3181524232845E-01
    70  6.9000000000000E-01 -5.0068075066208E-01  8.5186278134997E-01
    71  7.0000000000000E-01 -5.3632589640161E-01  8.7095777259616E-01
    72  7.1000000000000E-01 -5.6863996127537E-01  8.8947932870175E-01
    73  7.2000000000000E-01 -5.9753617581922E-01  9.0785355288927E-01
    74  7.3000000000000E-01 -6.2293874041976E-01  9.2653878406803E-01
    75  7.4000000000000E-01 -6.4478467365888E-01  9.4600937481678E-01
    76  7.5000000000000E-01 -6.6302574649145E-01  9.6673843730111E-01
    77  7.6000000000000E-01 -6.7763044112950E-01  9.8918003045315E-01
    78  7.7000000000000E-01 -6.8858586985103E-01  1.0137512877351E+00
    79  7.8000000000000E-01 -6.9589958711357E-01  1.0408149976100E+00
    80  7.9000000000000E-01 -6.9960122841746E-01  1.0706631478954E+00
    81  8.0000000000000E-01 -6.9974391136440E-01  1.1035019302804E+00
    82  8.1000000000000E-01 -6.9640533827596E-01  1.1394386726142E+00
    83  8.2000000000000E-01 -6.8968854550041E-01  1.1784711246855E+00
    84  8.3000000000000E-01 -6.7972225202146E-01  1.2204794690064E+00
    85  8.4000000000000E-01 -6.6666076901499E-01  1.2652213628667E+00
    86  8.5000000000000E-01 -6.5068344236119E-01  1.3123302431887E+00
    87  8.6000000000000E-01 -6.3199361155181E-01  1.3613170433526E+00
    88  8.7000000000000E-01 -6.1081708064262E-01  1.4115753832488E+00
    89  8.8000000000000E-01 -5.8740010957364E-01  1.4623902025976E+00
    90  8.9000000000000E-01 -5.6200694697816E-01  1.5129497154486E+00
    91  9.0000000000000E-01 -5.3491693818337E-01  1.5623604731395E+00
    92  9.1000000000000E-01 -5.0642125412673E-01  1.6096652363053E+00
    93  9.2000000000000E-01 -4.7681929804082E-01  1.6538632761140E+00
    94  9.3000000000000E-01 -4.4641485667926E-01  1.6939326530025E+00
    95  9.4000000000000E-01 -4.1551207128324E-01  1.7288539597876E+00
    96  9.5000000000000E-01 -3.8441131016816E-01  1.7576349669329E+00
    97  9.6000000000000E-01 -3.5340502953654E-01  1.7793355724031E+00
    98  9.7000000000000E-01 -3.2277371173565E-01  1.7930924380719E+00
    99  9.8000000000000E-01 -2.9278197057167E-01  1.7981426898047E+00
   100  9.9000000000000E-01 -2.6367491141731E-01  1.7938460694585E+00
   101  1.0000000000000E+00 -2.3567482971512E-01  1.7797049540713E+00
   102  1.0100000000000E+00 -2.0897832515555E-01  1.7553816999610E+00
   103  1.0200000000000E+00 -1.8375390043053E-01  1.7207128263796E+00
   104  1.0300000000000E+00 -1.6014010319655E-01  1.6757196236133E+00
   105  1.0400000000000E+00 -1.3824425797913E-01  1.6206148522156E+00
   106  1.0500000000000E+00 -1.1814182149363E-01  1.5558052914438E+00
   107  1.0600000000000E+00 -9.9876380530327E-02  1.4818899939526E+00
   108  1.0700000000000E+00 -8.3460296562529E-02  1.3996542075368E+00
   109  1.0800000000000E+00 -6.8875985902392E-02  1.3100590309802E+00
   110  1.0900000000000E+00 -5.6077808949517E-02  1.2142269770861E+00
   111  1.1000000000000E+00 -4.4994527278423E-02  1.1134237187467E+00
   112  1.1100000000000E+00 -3.5532273272090E-02  1.0090363915068E+00
   113  1.1200000000000E+00 -2.7577964229529E-02  9.0254891500993E-01
   114  1.1300000000000E+00 -2.1003081531299E-02  7.9551487473740E-01
   115  1.1400000000000E+00 -1.5667725987398E-02  6.8952857144687E-01
   116  1.1500000000000E+00 -1.1424853035793E-02  5.8619489783548E-01
   117  1.1600000000000E+00 -8.1245863162931E-03  4.8709873804232E-01
   118  1.1700000000000E+00 -5.6185035205300E-03  3.9377461406559E-01
   119  1.1800000000000E+00 -3.7638074323975E-03  3.0767719747807E-01
   120  1.1900000000000E+00 -2.4280146752620E-03  2.3015005723965E-01
   121  1.2000000000000E+00 -1.5041221929583E-03  1.6234233747348E-01
   122  1.2100000000000E+00 -8.8567280537008E-04  1.0531907102217E-01
   123  1.2200000000000E+00 -4.7854094459519E-04  6.0004531251240E-02
   124  1.2300000000000E+00 -2.1562153380705E-04  2.7099868670071E-02
   125  1.2400000000000E+00 -5.8273796692513E-05  6.9841665693119E-03
   126  1.2500000000000E+00 -5.4282814946915E-07  5.9208740555577E-05
   127  1.2600000000000E+00 -4.0914992684350E-07  4.6287922027265E-05
   128  1.2700000000000E+00  7.5445186166336E-08 -8.8198275103152E-06
   129  1.28  0.  0.
   130  1.29  0.  0.
   131  1.30  0.  0.
   132  1.31  0.  0.
   133  1.32  0.  0.
   134  1.33  0.  0.
   135  1.34  0.  0.
   136  1.35  0.  0.
   137  1.36  0.  0.
   138  1.37  0.  0.
   139  1.38  0.  0.
   140  1.39  0.  0.
   141  1.40  0.  0.
   142  1.41  0.  0.
   143  1.42  0.  0.
   144  1.43  0.  0.
   145  1.44  0.  0.
   146  1.45  0.  0.
   147  1.46  0.  0.
   148  1.47  0.  0.
   149  1.48  0.  0.
   150  1.49  0.  0.
   151  1.50  0.  0.
   152  1.51  0.  0.
   153  1.52  0.  0.
   154  1.53  0.  0.
   155  1.54  0.  0.
   156  1.55  0.  0.
   157  1.56  0.  0.
   158  1.57  0.  0.
   159  1.58  0.  0.
   160  1.59  0.  0.
   161  1.60  0.  0.
   162  1.61  0.  0.
   163  1.62  0.  0.
   164  1.63  0.  0.
   165  1.64  0.  0.
   166  1.65  0.  0.
   167  1.66  0.  0.
   168  1.67  0.  0.
   169  1.68  0.  0.
   170  1.69  0.  0.
   171  1.70  0.  0.
   172  1.71  0.  0.
   173  1.72  0.  0.
   174  1.73  0.  0.
   175  1.74  0.  0.
   176  1.75  0.  0.
   177  1.76  0.  0.
   178  1.77  0.  0.
   179  1.78  0.  0.
   180  1.79  0.  0.
   181  1.80  0.  0.
   182  1.81  0.  0.
   183  1.82  0.  0.
   184  1.83  0.  0.
   185  1.84  0.  0.
   186  1.85  0.  0.
   187  1.86  0.  0.
   188  1.87  0.  0.
   189  1.88  0.  0.
   190  1.89  0.  0.
   191  1.90  0.  0.
   192  1.91  0.  0.
   193  1.92  0.  0.
   194  1.93  0.  0.
   195  1.94  0.  0.
   196  1.95  0.  0.
   197  1.96  0.  0.
   198  1.97  0.  0.
   199  1.98  0.  0.
   200  1.99  0.  0.
   201  2.00  0.  0.
   202  2.01  0.  0.
   203  2.02  0.  0.
   204  2.03  0.  0.
   205  2.04  0.  0.
   206  2.05  0.  0.
   207  2.06  0.  0.
   208  2.07  0.  0.
   209  2.08  0.  0.
   210  2.09  0.  0.
   211  2.10  0.  0.
   212  2.11  0.  0.
   213  2.12  0.  0.
   214  2.13  0.  0.
   215  2.14  0.  0.
   216  2.15  0.  0.
   217  2.16  0.  0.
   218  2.17  0.  0.
   219  2.18  0.  0.
   220  2.19  0.  0.
   221  2.20  0.  0.
   222  2.21  0.  0.
   223  2.22  0.  0.
   224  2.23  0.  0.
   225  2.24  0.  0.
   226  2.25  0.  0.
   227  2.26  0.  0.
   228  2.27  0.  0.
   229  2.28  0.  0.
   230  2.29  0.  0.
   231  2.30  0.  0.
   232  2.31  0.  0.
   233  2.32  0.  0.
   234  2.33  0.  0.
   235  2.34  0.  0.
   236  2.35  0.  0.
   237  2.36  0.  0.
   238  2.37  0.  0.
   239  2.38  0.  0.
   240  2.39  0.  0.
   241  2.40  0.  0.
   242  2.41  0.  0.
   243  2.42  0.  0.
   244  2.43  0.  0.
   245  2.44  0.  0.
   246  2.45  0.  0.
   247  2.46  0.  0.
   248  2.47  0.  0.
   249  2.48  0.  0.
   250  2.49  0.  0.
   251  2.50  0.  0.
   252  2.51  0.  0.
   253  2.52  0.  0.
   254  2.53  0.  0.
   255  2.54  0.  0.
   256  2.55  0.  0.
   257  2.56  0.  0.
   258  2.57  0.  0.
   259  2.58  0.  0.
   260  2.59  0.  0.
   261  2.60  0.  0.
   262  2.61  0.  0.
   263  2.62  0.  0.
   264  2.63  0.  0.
   265  2.64  0.  0.
   266  2.65  0.  0.
   267  2.66  0.  0.
   268  2.67  0.  0.
   269  2.68  0.  0.
   270  2.69  0.  0.
   271  2.70  0.  0.
   272  2.71  0.  0.
   273  2.72  0.  0.
   274  2.73  0.  0.
   275  2.74  0.  0.
   276  2.75  0.  0.
   277  2.76  0.  0.
   278  2.77  0.  0.
   279  2.78  0.  0.
   280  2.79  0.  0.
   281  2.80  0.  0.
   282  2.81  0.  0.
   283  2.82  0.  0.
   284  2.83  0.  0.
   285  2.84  0.  0.
   286  2.85  0.  0.
   287  2.86  0.  0.
   288  2.87  0.  0.
   289  2.88  0.  0.
   290  2.89  0.  0.
   291  2.90  0.  0.
   292  2.91  0.  0.
   293  2.92  0.  0.
   294  2.93  0.  0.
   295  2.94  0.  0.
   296  2.95  0.  0.
   297  2.96  0.  0.
   298  2.97  0.  0.
   299  2.98  0.  0.
   300  2.99  0.  0.
   301  3.00  0.  0.
   302  3.01  0.  0.
   303  3.02  0.  0.
   304  3.03  0.  0.
   305  3.04  0.  0.
   306  3.05  0.  0.
   307  3.06  0.  0.
   308  3.07  0.  0.
   309  3.08  0.  0.
   310  3.09  0.  0.
   311  3.10  0.  0.
   312  3.11  0.  0.
   313  3.12  0.  0.
   314  3.13  0.  0.
   315  3.14  0.  0.
   316  3.15  0.  0.
   317  3.16  0.  0.
   318  3.17  0.  0.
   319  3.18  0.  0.
   320  3.19  0.  0.
   321  3.20  0.  0.
   322  3.21  0.  0.
   323  3.22  0.  0.
   324  3.23  0.  0.
   325  3.24  0.  0.
   326  3.25  0.  0.
   327  3.26  0.  0.
   328  3.27  0.  0.
   329  3.28  0.  0.
   330  3.29  0.  0.
   331  3.30  0.  0.
   332  3.31  0.  0.
   333  3.32  0.  0.
   334  3.33  0.  0.
   335  3.34  0.  0.
   336  3.35  0.  0.
   337  3.36  0.  0.
   338  3.37  0.  0.
   339  3.38  0.  0.
   340  3.39  0.  0.
   341  3.40  0.  0.
   342  3.41  0.  0.
   343  3.42  0.  0.
   344  3.43  0.  0.
   345  3.44  0.  0.
   346  3.45  0.  0.
   347  3.46  0.  0.
   348  3.47  0.  0.
   349  3.48  0.  0.
   350  3.49  0.  0.
   351  3.50  0.  0.
   352  3.51  0.  0.
   353  3.52  0.  0.
   354  3.53  0.  0.
   355  3.54  0.  0.
   356  3.55  0.  0.
   357  3.56  0.  0.
   358  3.57  0.  0.
   359  3.58  0.  0.
   360  3.59  0.  0.
   361  3.60  0.  0.
   362  3.61  0.  0.
   363  3.62  0.  0.
   364  3.63  0.  0.
   365  3.64  0.  0.
   366  3.65  0.  0.
   367  3.66  0.  0.
   368  3.67  0.  0.
   369  3.68  0.  0.
   370  3.69  0.  0.
   371  3.70  0.  0.
   372  3.71  0.  0.
   373  3.72  0.  0.
   374  3.73  0.  0.
   375  3.74  0.  0.
   376  3.75  0.  0.
   377  3.76  0.  0.
   378  3.77  0.  0.
   379  3.78  0.  0.
   380  3.79  0.  0.
   381  3.80  0.  0.
   382  3.81  0.  0.
   383  3.82  0.  0.
   384  3.83  0.  0.
   385  3.84  0.  0.
   386  3.85  0.  0.
   387  3.86  0.  0.
   388  3.87  0.  0.
   389  3.88  0.  0.
   390  3.89  0.  0.
   391  3.90  0.  0.
   392  3.91  0.  0.
   393  3.92  0.  0.
   394  3.93  0.  0.
   395  3.94  0.  0.
   396  3.95  0.  0.
   397  3.96  0.  0.
   398  3.97  0.  0.
   399  3.98  0.  0.
   400  3.99  0.  0.
   401  4.00  0.  0.
   402  4.01  0.  0.
   403  4.02  0.  0.
   404  4.03  0.  0.
   405  4.04  0.  0.
   406  4.05  0.  0.
   407  4.06  0.  0.
   408  4.07  0.  0.
   409  4.08  0.  0.
   410  4.09  0.  0.
   411  4.10  0.  0.
   412  4.11  0.  0.
   413  4.12  0.  0.
   414  4.13  0.  0.
   415  4.14  0.  0.
   416  4.15  0.  0.
   417  4.16  0.  0.
   418  4.17  0.  0.
   419  4.18  0.  0.
   420  4.19  0.  0.
   421  4.20  0.  0.
   422  4.21  0.  0.
   423  4.22  0.  0.
   424  4.23  0.  0.
   425  4.24  0.  0.
   426  4.25  0.  0.
   427  4.26  0.  0.
   428  4.27  0.  0.
   429  4.28  0.  0.
   430  4.29  0.  0.
   431  4.30  0.  0.
   432  4.31  0.  0.
   433  4.32  0.  0.
   434  4.33  0.  0.
   435  4.34  0.  0.
   436  4.35  0.  0.
   437  4.36  0.  0.
   438  4.37  0.  0.
   439  4.38  0.  0.
   440  4.39  0.  0.
   441  4.40  0.  0.
   442  4.41  0.  0.
   443  4.42  0.  0.
   444  4.43  0.  0.
   445  4.44  0.  0.
   446  4.45  0.  0.
   447  4.46  0.  0.
   448  4.47  0.  0.
   449  4.48  0.  0.
   450  4.49  0.  0.
   451  4.50  0.  0.
   452  4.51  0.  0.
   453  4.52  0.  0.
   454  4.53  0.  0.
   455  4.54  0.  0.
   456  4.55  0.  0.
   457  4.56  0.  0.
   458  4.57  0.  0.
   459  4.58  0.  0.
   460  4.59  0.  0.
   461  4.60  0.  0.
   462  4.61  0.  0.
   463  4.62  0.  0.
   464  4.63  0.  0.
   465  4.64  0.  0.
   466  4.65  0.  0.
   467  4.66  0.  0.
   468  4.67  0.  0.
   469  4.68  0.  0.
   470  4.69  0.  0.
   471  4.70  0.  0.
   472  4.71  0.  0.
   473  4.72  0.  0.
   474  4.73  0.  0.
   475  4.74  0.  0.
   476  4.75  0.  0.
   477  4.76  0.  0.
   478  4.77  0.  0.
   479  4.78  0.  0.
   480  4.79  0.  0.
   481  4.80  0.  0.
   482  4.81  0.  0.
   483  4.82  0.  0.
   484  4.83  0.  0.
   485  4.84  0.  0.
   486  4.85  0.  0.
   487  4.86  0.  0.
   488  4.87  0.  0.
   489  4.88  0.  0.
   490  4.89  0.  0.
   491  4.90  0.  0.
   492  4.91  0.  0.
   493  4.92  0.  0.
   494  4.93  0.  0.
   495  4.94  0.  0.
   496  4.95  0.  0.
   497  4.96  0.  0.
   498  4.97  0.  0.
   499  4.98  0.  0.
   500  4.99  0.  0.
   501  5.00  0.  0.
   502  5.01  0.  0.
   503  5.02  0.  0.
   504  5.03  0.  0.
   505  5.04  0.  0.
   506  5.05  0.  0.
   507  5.06  0.  0.
   508  5.07  0.  0.
   509  5.08  0.  0.
   510  5.09  0.  0.
   511  5.10  0.  0.
   512  5.11  0.  0.
   513  5.12  0.  0.
   514  5.13  0.  0.
   515  5.14  0.  0.
   516  5.15  0.  0.
   517  5.16  0.  0.
   518  5.17  0.  0.
   519  5.18  0.  0.
   520  5.19  0.  0.
   521  5.20  0.  0.
   522  5.21  0.  0.
   523  5.22  0.  0.
   524  5.23  0.  0.
   525  5.24  0.  0.
   526  5.25  0.  0.
   527  5.26  0.  0.
   528  5.27  0.  0.
   529  5.28  0.  0.
   530  5.29  0.  0.
   531  5.30  0.  0.
   532  5.31  0.  0.
   533  5.32  0.  0.
   534  5.33  0.  0.
   535  5.34  0.  0.
   536  5.35  0.  0.
   537  5.36  0.  0.
   538  5.37  0.  0.
   539  5.38  0.  0.
   540  5.39  0.  0.
   541  5.40  0.  0.
   542  5.41  0.  0.
   543  5.42  0.  0.
   544  5.43  0.  0.
   545  5.44  0.  0.
   546  5.45  0.  0.
   547  5.46  0.  0.
   548  5.47  0.  0.
   549  5.48  0.  0.
   550  5.49  0.  0.
   551  5.50  0.  0.
   552  5.51  0.  0.
   553  5.52  0.  0.
   554  5.53  0.  0.
   555  5.54  0.  0.
   556  5.55  0.  0.
   557  5.56  0.  0.
   558  5.57  0.  0.
   559  5.58  0.  0.
   560  5.59  0.  0.
   561  5.60  0.  0.
   562  5.61  0.  0.
   563  5.62  0.  0.
   564  5.63  0.  0.
   565  5.64  0.  0.
   566  5.65  0.  0.
   567  5.66  0.  0.
   568  5.67  0.  0.
   569  5.68  0.  0.
   570  5.69  0.  0.
   571  5.70  0.  0.
   572  5.71  0.  0.
   573  5.72  0.  0.
   574  5.73  0.  0.
   575  5.74  0.  0.
   576  5.75  0.  0.
   577  5.76  0.  0.
   578  5.77  0.  0.
   579  5.78  0.  0.
   580  5.79  0.  0.
   581  5.80  0.  0.
   582  5.81  0.  0.
   583  5.82  0.  0.
   584  5.83  0.  0.
   585  5.84  0.  0.
   586  5.85  0.  0.
   587  5.86  0.  0.
   588  5.87  0.  0.
   589  5.88  0.  0.
   590  5.89  0.  0.
   591  5.90  0.  0.
   592  5.91  0.  0.
   593  5.92  0.  0.
   594  5.93  0.  0.
   595  5.94  0.  0.
   596  5.95  0.  0.
   597  5.96  0.  0.
   598  5.97  0.  0.
   599  5.98  0.  0.
   600  5.99  0.  0.
   1                        -2.9525759352279E+00 -4.0411664260572E-01
     1  0.0000000000000E+00 -2.3809177129852E-09  1.8991241412802E-08
     2  1.0000000000000E-02  1.5094050129656E-03 -8.2656609954885E-04
     3  2.0000000000000E-02  6.0337778100572E-03 -3.3116906537545E-03
     4  3.0000000000000E-02  1.3561554281176E-02 -7.4712782426020E-03
     5  4.0000000000000E-02  2.4073337813940E-02 -1.3330601546618E-02
     6  5.0000000000000E-02  3.7541719928181E-02 -2.0922491727807E-02
     7  6.0000000000000E-02  5.3931039567533E-02 -3.0284889268327E-02
     8  7.0000000000000E-02  7.3197091100176E-02 -4.1457836541948E-02
     9  8.0000000000000E-02  9.5286793461654E-02 -5.4480012384585E-02
    10  9.0000000000000E-02  1.2013783490356E-01 -6.9384924915727E-02
    11  1.0000000000000E-01  1.4767830943469E-01 -8.6196891358029E-02
    12  1.1000000000000E-01  1.7782636220886E-01 -1.0492694221822E-01
    13  1.2000000000000E-01  2.1048986179169E-01 -1.2556879166012E-01
    14  1.3000000000000E-01  2.4556611740514E-01 -1.4809501606009E-01
    15  1.4000000000000E-01  2.8294165889642E-01 -1.7245357856399E-01
    16  1.5000000000000E-01  3.2249209631319E-01 -1.9856482905582E-01
    17  1.6000000000000E-01  3.6408207461036E-01 -2.2631909652680E-01
    18  1.7000000000000E-01  4.0756533719839E-01 -2.5557497473843E-01
    19  1.8000000000000E-01  4.5278490981637E-01 -2.8615838275384E-01
    20  1.9000000000000E-01  4.9957341363092E-01 -3.1786245991539E-01
    21  2.0000000000000E-01  5.4775351359370E-01 -3.5044833080064E-01
    22  2.1000000000000E-01  5.9713850500879E-01 -3.8364675028604E-01
    23  2.2000000000000E-01  6.4753303805033E-01 -4.1716061282609E-01
    24  2.3000000000000E-01  6.9873397671261E-01 -4.5066828417520E-01
    25  2.4000000000000E-01  7.5053138545856E-01 -4.8382768880534E-01
    26  2.5000000000000E-01  8.0270963374178E-01 -5.1628106294783E-01
    27  2.6000000000000E-01  8.5504860569515E-01 -5.4766026221584E-01
    28  2.7000000000000E-01  9.0732499968312E-01 -5.7759249478752E-01
    29  2.8000000000000E-01  9.5931370017359E-01 -6.0570633670821E-01
    30  2.9000000000000E-01  1.0107892025596E+00 -6.3163787546832E-01
    31  3.0000000000000E-01  1.0615270701999E+00 -6.5503682198451E-01
    32  3.1000000000000E-01  1.1113054020880E+00 -6.7557242968215E-01
    33  3.2000000000000E-01  1.1599062892221E+00 -6.9293906264978E-01
    34  3.3000000000000E-01  1.2071172379482E+00 -7.0686126277092E-01
    35  3.4000000000000E-01  1.2527325392738E+00 -7.1709817816731E-01
    36  3.5000000000000E-01  1.2965545643846E+00 -7.2344723190324E-01
    37  3.6000000000000E-01  1.3383949683057E+00 -7.2574693027835E-01
    38  3.7000000000000E-01  1.3780757857920E+00 -7.2387873362851E-01
    39  3.8000000000000E-01  1.4154304060366E+00 -7.1776793872234E-01
    40  3.9000000000000E-01  1.4503044156060E+00 -7.0738354985404E-01
    41  4.0000000000000E-01  1.4825563020443E+00 -6.9273714480417E-01
    42  4.1000000000000E-01  1.5120580137752E+00 -6.7388077113447E-01
    43  4.2000000000000E-01  1.5386953751705E+00 -6.5090393695072E-01
    44  4.3000000000000E-01  1.5623683588578E+00 -6.2392978746218E-01
    45  4.4000000000000E-01  1.5829912204344E+00 -5.9311058357017E-01
    46  4.5000000000000E-01  1.6004925036340E+00 -5.5862262056831E-01
    47  4.6000000000000E-01  1.6148149265989E+00 -5.2066074314290E-01
    48  4.7000000000000E-01  1.6259151621560E+00 -4.7943262663154E-01
    49  4.8000000000000E-01  1.6337635268313E+00 -4.3515300345263E-01
    50  4.9000000000000E-01  1.6383435947044E+00 -3.8803801741049E-01
    51  5.0000000000000E-01  1.6396517530731E+00 -3.3829988699927E-01
    52  5.1000000000000E-01  1.6376967172442E+00 -2.8614205182420E-01
    53  5.2000000000000E-01  1.6324990215750E+00 -2.3175496392050E-01
    54  5.3000000000000E-01  1.6240905031835E+00 -1.7531266833503E-01
    55  5.4000000000000E-01  1.6125137935290E+00 -1.1697029524474E-01
    56  5.5000000000000E-01  1.5978218313887E+00 -5.6862559658053E-02
    57  5.6000000000000E-01  1.5800774086652E+00  4.8966649426990E-03
    58  5.7000000000000E-01  1.5593527580188E+00  6.8213665030471E-02
    59  5.8000000000000E-01  1.5357291885966E+00  1.3301309771979E-01
    60  5.9000000000000E-01  1.5092967732219E+00  1.9923512892942E-01
    61  6.0000000000000E-01  1.4801540873834E+00  2.6683156914488E-01
    62  6.1000000000000E-01  1.4484079973330E+00  3.3576111067101E-01
    63  6.2000000000000E-01  1.4141734916492E+00  4.0598380189980E-01
    64  6.3000000000000E-01  1.3775735478448E+00  4.7745492266158E-01
    65  6.4000000000000E-01  1.3387390230807E+00  5.5011844928564E-01
    66  6.5000000000000E-01  1.2978085558803E+00  6.2390031776876E-01
    67  6.6000000000000E-01  1.2549284639866E+00  6.9870170775009E-01
    68  6.7000000000000E-01  1.2102526222359E+00  7.7439257827055E-01
    69  6.8000000000000E-01  1.1639423035843E+00  8.5080568815784E-01
    70  6.9000000000000E-01  1.1161659662548E+00  9.2773132910275E-01
    71  7.0000000000000E-01  1.0670989703868E+00  1.0049129880285E+00
    72  7.1000000000000E-01  1.0169232085754E+00  1.0820441373418E+00
    73  7.2000000000000E-01  9.6582663627056E-01  1.1587663274115E+00
    74  7.3000000000000E-01  9.1400269012719E-01  1.2346687256478E+00
    75  7.4000000000000E-01  8.6164958502325E-01  1.3092892115199E+00
    76  7.5000000000000E-01  8.0896948351731E-01  1.3821170975770E+00
    77  7.6000000000000E-01  7.5616753493590E-01  1.4525975039802E+00
    78  7.7000000000000E-01  7.0345078496938E-01  1.5201373692868E+00
    79  7.8000000000000E-01  6.5102696051840E-01  1.5841130344003E+00
    80  7.9000000000000E-01  5.9910313846785E-01  1.6438792909314E+00
    81  8.0000000000000E-01  5.4788431096055E-01  1.6987797409338E+00
    82  8.1000000000000E-01  4.9757186349147E-01  1.7481582733147E+00
    83  8.2000000000000E-01  4.4836198563406E-01  1.7913714243641E+00
    84  8.3000000000000E-01  4.0044403734099E-01  1.8278013569094E+00
    85  8.4000000000000E-01  3.5399889643490E-01  1.8568691655908E+00
    86  8.5000000000000E-01  3.0919731503441E-01  1.8780481955475E+00
    87  8.6000000000000E-01  2.6619831417276E-01  1.8908770491169E+00
    88  8.7000000000000E-01  2.2514764670256E-01  1.8949719505183E+00
    89  8.8000000000000E-01  1.8617635869776E-01  1.8900381422444E+00
    90  8.9000000000000E-01  1.4939947893876E-01  1.8758799991562E+00
    91  9.0000000000000E-01  1.1491486469484E-01  1.8524095669569E+00
    92  9.1000000000000E-01  8.2802229912530E-02  1.8196532605045E+00
    93  9.2000000000000E-01  5.3122379114824E-02  1.7777564937701E+00
    94  9.3000000000000E-01  2.5916666866471E-02  1.7269860564159E+00
    95  9.4000000000000E-01  1.2066986351642E-03  1.6677301010316E+00
    96  9.5000000000000E-01 -2.1005715635037E-02  1.6004956589174E+00
    97  9.6000000000000E-01 -4.0738348822841E-02  1.5259036596902E+00
    98  9.7000000000000E-01 -5.8028083562587E-02  1.4446814895633E+00
    99  9.8000000000000E-01 -7.2930182900226E-02  1.3576531834367E+00
   100  9.9000000000000E-01 -8.5517314117722E-02  1.2657274054888E+00
   101  1.0000000000000E+00 -9.5878340421267E-02  1.1698834302347E+00
   102  1.0100000000000E+00 -1.0411690020561E-01  1.0711553895728E+00
   103  1.0200000000000E+00 -1.1034979826232E-01  9.7061509974241E-01
   104  1.0300000000000E+00 -1.1470523748231E-01  8.6935382413940E-01
   105  1.0400000000000E+00 -1.1732092319570E-01  7.6846336231323E-01
   106  1.0500000000000E+00 -1.1834207520731E-01  6.6901688130928E-01
   107  1.0600000000000E+00 -1.1791938474611E-01  5.7204992200200E-01
   108  1.0700000000000E+00 -1.1620695488461E-01  4.7854201959201E-01
   109  1.0800000000000E+00 -1.1336026346894E-01  3.8939937375378E-01
   110  1.0900000000000E+00 -1.0953418720236E-01  3.0543898984079E-01
   111  1.1000000000000E+00 -1.0488112426003E-01  2.2737468842990E-01
   112  1.1100000000000E+00 -9.9549250685717E-02  1.5580534646363E-01
   113  1.1200000000000E+00 -9.3680942906615E-02  9.1205690433880E-02
   114  1.1300000000000E+00 -8.7411395027555E-02  3.3919910783772E-02
   115  1.1400000000000E+00 -8.0867455264893E-02 -1.5841691199465E-02
   116  1.1500000000000E+00 -7.4166700996422E-02 -5.8002876765532E-02
   117  1.1600000000000E+00 -6.7416766623023E-02 -9.2618383904650E-02
   118  1.1700000000000E+00 -6.0714932803854E-02 -1.1986757395639E-01
   119  1.1800000000000E+00 -5.4147979877484E-02 -1.4004487354596E-01
   120  1.1900000000000E+00 -4.7792302523936E-02 -1.5354714491470E-01
   121  1.2000000000000E+00 -4.1714275391295E-02 -1.6085821080495E-01
   122  1.2100000000000E+00 -3.5970864040105E-02 -1.6253067334459E-01
   123  1.2200000000000E+00 -3.0609852574555E-02 -1.5917436664489E-01
   124  1.2300000000000E+00 -2.5668394900162E-02 -1.5146951344078E-01
   125  1.2400000000000E+00 -2.1172637506999E-02 -1.4016283581155E-01
   126  1.2500000000000E+00 -1.7138471002722E-02 -1.2604743940455E-01
   127  1.2600000000000E+00 -1.3572403854048E-02 -1.0994202814059E-01
   128  1.2700000000000E+00 -1.0472478567661E-02 -9.2670317073803E-02
   129  1.2800000000000E+00 -7.8294143342123E-03 -7.5039284613476E-02
   130  1.2900000000000E+00 -5.6231368162198E-03 -5.7858218170247E-02
   131  1.3000000000000E+00 -3.8200693993291E-03 -4.1954184692604E-02
   132  1.3100000000000E+00 -2.4029048787674E-03 -2.7904527356336E-02
   133  1.3200000000000E+00 -1.3502590236529E-03 -1.6201728584501E-02
   134  1.3300000000000E+00 -6.2242606199949E-04 -7.4372972306818E-03
   135  1.3400000000000E+00 -1.6479630035967E-04 -2.2032214574137E-03
   136  1.3500000000000E+00 -6.2842095729404E-06 -6.4096955500350E-05
   137  1.3600000000000E+00 -2.3613206038697E-07 -3.1481788410434E-06
   138  1.3700000000000E+00  1.7719625140307E-07  2.3834056093552E-06
   139  1.38  0.  0.
   140  1.39  0.  0.
   141  1.40  0.  0.
   142  1.41  0.  0.
   143  1.42  0.  0.
   144  1.43  0.  0.
   145  1.44  0.  0.
   146  1.45  0.  0.
   147  1.46  0.  0.
   148  1.47  0.  0.
   149  1.48  0.  0.
   150  1.49  0.  0.
   151  1.50  0.  0.
   152  1.51  0.  0.
   153  1.52  0.  0.
   154  1.53  0.  0.
   155  1.54  0.  0.
   156  1.55  0.  0.
   157  1.56  0.  0.
   158  1.57  0.  0.
   159  1.58  0.  0.
   160  1.59  0.  0.
   161  1.60  0.  0.
   162  1.61  0.  0.
   163  1.62  0.  0.
   164  1.63  0.  0.
   165  1.64  0.  0.
   166  1.65  0.  0.
   167  1.66  0.  0.
   168  1.67  0.  0.
   169  1.68  0.  0.
   170  1.69  0.  0.
   171  1.70  0.  0.
   172  1.71  0.  0.
   173  1.72  0.  0.
   174  1.73  0.  0.
   175  1.74  0.  0.
   176  1.75  0.  0.
   177  1.76  0.  0.
   178  1.77  0.  0.
   179  1.78  0.  0.
   180  1.79  0.  0.
   181  1.80  0.  0.
   182  1.81  0.  0.
   183  1.82  0.  0.
   184  1.83  0.  0.