Ni    ONCVPSP-4.0.1  r_core=   1.20631   1.25039   1.55086
     28.0000     18.0000      250217    zatom,zion,pspd
     8       2   2     4   600     0    pspcod,pspxc,lmax,lloc,mmax,r2well
  5.99000000  3.00000000  0.00000000    rchrg fchrg qchrg
     2     2     2     0    nproj
     3     1           extension_switch
     4     3     0    nprojso
   0                         7.4251947481798E+00 -3.1447092948753E-01
     1  0.0000000000000E+00  6.7571737094596E-09  3.8159648718672E-08
     2  1.0000000000000E-02  1.0889875657106E-01  1.8039874399859E-02
     3  2.0000000000000E-02  2.1743414013435E-01  3.6261827175441E-02
     4  3.0000000000000E-02  3.2524279024585E-01  5.4838740748334E-02
     5  4.0000000000000E-02  4.3196142300390E-01  7.3925428897786E-02
     6  5.0000000000000E-02  5.3722699603045E-01  9.3650400288907E-02
     7  6.0000000000000E-02  6.4067702044468E-01  1.1410855085268E-01
     8  7.0000000000000E-02  7.4195006056052E-01  1.3535504796077E-01
     9  8.0000000000000E-02  8.4068645528204E-01  1.5740063117837E-01
    10  9.0000000000000E-02  9.3652928712312E-01  1.8020850892217E-01
    11  1.0000000000000E-01  1.0291256156871E+00  2.0369297899415E-01
    12  1.1000000000000E-01  1.1181279825903E+00  2.2771984528596E-01
    13  1.2000000000000E-01  1.2031961845056E+00  2.5210864466934E-01
    14  1.3000000000000E-01  1.2839993005601E+00  2.7663663900836E-01
    15  1.4000000000000E-01  1.3602179500679E+00  3.0104446918073E-01
    16  1.5000000000000E-01  1.4315467468474E+00  3.2504331278739E-01
    17  1.6000000000000E-01  1.4976969074542E+00  3.4832333659065E-01
    18  1.7000000000000E-01  1.5583989628647E+00  3.7056319024990E-01
    19  1.8000000000000E-01  1.6134055167043E+00  3.9144025103700E-01
    20  1.9000000000000E-01  1.6624939882603E+00  4.1064130110450E-01
    21  2.0000000000000E-01  1.7054692754111E+00  4.2787330048280E-01
    22  2.1000000000000E-01  1.7421662713672E+00  4.4287391093705E-01
    23  2.2000000000000E-01  1.7724521698103E+00  4.5542142845463E-01
    24  2.3000000000000E-01  1.7962284956511E+00  4.6534379546514E-01
    25  2.4000000000000E-01  1.8134328031386E+00  4.7252638760083E-01
    26  2.5000000000000E-01  1.8240399893522E+00  4.7691830325079E-01
    27  2.6000000000000E-01  1.8280631790155E+00  4.7853692641129E-01
    28  2.7000000000000E-01  1.8255541458850E+00  4.7747058317691E-01
    29  2.8000000000000E-01  1.8166032464329E+00  4.7387916820134E-01
    30  2.9000000000000E-01  1.8013388528646E+00  4.6799267793593E-01
    31  3.0000000000000E-01  1.7799262843788E+00  4.6010765062546E-01
    32  3.1000000000000E-01  1.7525662476442E+00  4.5058157701066E-01
    33  3.2000000000000E-01  1.7194928094001E+00  4.3982540851498E-01
    34  3.3000000000000E-01  1.6809709355233E+00  4.2829434945740E-01
    35  3.4000000000000E-01  1.6372936415379E+00  4.1647717468655E-01
    36  3.5000000000000E-01  1.5887788090334E+00  4.0488436225349E-01
    37  3.6000000000000E-01  1.5357657305485E+00  3.9403537079922E-01
    38  3.7000000000000E-01  1.4786114519149E+00  3.8444542191828E-01
    39  3.8000000000000E-01  1.4176869856454E+00  3.7661216784272E-01
    40  3.9000000000000E-01  1.3533734715622E+00  3.7100263363768E-01
    41  4.0000000000000E-01  1.2860583613915E+00  3.6804082031348E-01
    42  4.1000000000000E-01  1.2161317024937E+00  3.6809634078499E-01
    43  4.2000000000000E-01  1.1439825922779E+00  3.7147443473964E-01
    44  4.3000000000000E-01  1.0699958692683E+00  3.7840767185443E-01
    45  4.4000000000000E-01  9.9454909940304E-01  3.8904960639431E-01
    46  4.5000000000000E-01  9.1800990715964E-01  4.0347059130651E-01
    47  4.6000000000000E-01  8.4073369077849E-01  4.2165589803685E-01
    48  4.7000000000000E-01  7.6306174948788E-01  4.4350622120542E-01
    49  4.8000000000000E-01  6.8531983855925E-01  4.6884057693434E-01
    50  4.9000000000000E-01  6.0781715558772E-01  4.9740153208628E-01
    51  5.0000000000000E-01  5.3084574897016E-01  5.2886263107334E-01
    52  5.1000000000000E-01  4.5468032750850E-01  5.6283781935996E-01
    53  5.2000000000000E-01  3.7957843875879E-01  5.9889260036639E-01
    54  5.3000000000000E-01  3.0578097351684E-01  6.3655660711803E-01
    55  5.4000000000000E-01  2.3351294498870E-01  6.7533722342730E-01
    56  5.5000000000000E-01  1.6298448400861E-01  7.1473385314834E-01
    57  5.6000000000000E-01  9.4391986362418E-02  7.5425241133262E-01
    58  5.7000000000000E-01  2.7919345016882E-02  7.9341959883456E-01
    59  5.8000000000000E-01 -3.6260801045445E-02  8.3179652260662E-01
    60  5.9000000000000E-01 -9.7985868587853E-02  8.6899123774919E-01
    61  6.0000000000000E-01 -1.5710224640320E-01  9.0466981411718E-01
    62  6.1000000000000E-01 -2.1346438467919E-01  9.3856556932315E-01
    63  6.2000000000000E-01 -2.6693410869976E-01  9.7048616033792E-01
    64  6.3000000000000E-01 -3.1738019910585E-01  1.0003182862453E+00
    65  6.4000000000000E-01 -3.6467827044559E-01  1.0280298234160E+00
    66  6.5000000000000E-01 -4.0871096810330E-01  1.0536692895190E+00
    67  6.6000000000000E-01 -4.4936849125702E-01  1.0773626122610E+00
    68  6.7000000000000E-01 -4.8654943665695E-01  1.0993072602480E+00
    69  6.8000000000000E-01 -5.2016194513574E-01  1.1197638745299E+00
    70  6.9000000000000E-01 -5.5012512025960E-01  1.1390456178139E+00
    71  7.0000000000000E-01 -5.7637067679982E-01  1.1575055316661E+00
    72  7.1000000000000E-01 -5.9884476612679E-01  1.1755222580189E+00
    73  7.2000000000000E-01 -6.1750991654792E-01  1.1934845379193E+00
    74  7.3000000000000E-01 -6.3234701933654E-01  1.2117749458652E+00
    75  7.4000000000000E-01 -6.4335728598685E-01  1.2307533507798E+00
    76  7.5000000000000E-01 -6.5056409928001E-01  1.2507406135020E+00
    77  7.6000000000000E-01 -6.5401468019365E-01  1.2720030348445E+00
    78  7.7000000000000E-01 -6.5378149459561E-01  1.2947380574298E+00
    79  7.8000000000000E-01 -6.4996332802606E-01  1.3190616987184E+00
    80  7.9000000000000E-01 -6.4268596360967E-01  1.3449981524036E+00
    81  8.0000000000000E-01 -6.3210240709845E-01  1.3724719415750E+00
    82  8.1000000000000E-01 -6.1839261400666E-01  1.4013029410883E+00
    83  8.2000000000000E-01 -6.0176268647812E-01  1.4312045101097E+00
    84  8.3000000000000E-01 -5.8244352158436E-01  1.4617848908674E+00
    85  8.4000000000000E-01 -5.6068890780526E-01  1.4925519385272E+00
    86  8.5000000000000E-01 -5.3677308207152E-01  1.5229211523240E+00
    87  8.6000000000000E-01 -5.1098777550541E-01  1.5522268822808E+00
    88  8.7000000000000E-01 -4.8363879142796E-01  1.5797364917358E+00
    89  8.8000000000000E-01 -4.5504217385253E-01  1.6046671661890E+00
    90  8.9000000000000E-01 -4.2552003811695E-01  1.6262049762850E+00
    91  9.0000000000000E-01 -3.9539614710843E-01  1.6435257295230E+00
    92  9.1000000000000E-01 -3.6499132633427E-01  1.6558170837473E+00
    93  9.2000000000000E-01 -3.3461881856766E-01  1.6623013475380E+00
    94  9.3000000000000E-01 -3.0457968369068E-01  1.6622583598528E+00
    95  9.4000000000000E-01 -2.7515835147667E-01  1.6550478248186E+00
    96  9.5000000000000E-01 -2.4661843428517E-01  1.6401304781379E+00
    97  9.6000000000000E-01 -2.1919890295029E-01  1.6170874794126E+00
    98  9.7000000000000E-01 -1.9311072257229E-01  1.5856374595426E+00
    99  9.8000000000000E-01 -1.6853403560453E-01  1.5456507035004E+00
   100  9.9000000000000E-01 -1.4561596776391E-01  1.4971600150577E+00
   101  1.0000000000000E+00 -1.2446911816682E-01  1.4403678898096E+00
   102  1.0100000000000E+00 -1.0517077904979E-01  1.3756497140990E+00
   103  1.0200000000000E+00 -8.7762912889814E-02  1.3035528077811E+00
   104  1.0300000000000E+00 -7.2252896116538E-02  1.2247912357176E+00
   105  1.0400000000000E+00 -5.8615019430363E-02  1.1402364234060E+00
   106  1.0500000000000E+00 -4.6792715503060E-02  1.0509037233367E+00
   107  1.0600000000000E+00 -3.6701466021742E-02  9.5793518771524E-01
   108  1.0700000000000E+00 -2.8232322224070E-02  8.6257890669747E-01
   109  1.0800000000000E+00 -2.1255956679438E-02  7.6616536681711E-01
   110  1.0900000000000E+00 -1.5627149585905E-02  6.7008136897494E-01
   111  1.1000000000000E+00 -1.1189600698818E-02  5.7574211673134E-01
   112  1.1100000000000E+00 -7.7809484721375E-03  4.8456214200178E-01
   113  1.1200000000000E+00 -5.2378714342758E-03  3.9792577449574E-01
   114  1.1300000000000E+00 -3.4011470545928E-03  3.1715786955299E-01
   115  1.1400000000000E+00 -2.1205067155420E-03  2.4349562365932E-01
   116  1.1500000000000E+00 -1.2618009748304E-03  1.7805246669707E-01
   117  1.1600000000000E+00 -7.2348521502309E-04  1.2174433712511E-01
   118  1.1700000000000E+00 -3.9904541045812E-04  7.5423809922285E-02
   119  1.1800000000000E+00 -2.0372804754415E-04  3.9781883603447E-02
   120  1.1900000000000E+00 -8.3144700069696E-05  1.5314923889683E-02
   121  1.2000000000000E+00 -1.4437646599147E-05  2.3241052003979E-03
   122  1.2100000000000E+00  9.4661052529894E-07 -1.3664118320437E-04
   123  1.2200000000000E+00 -8.8440704527763E-08  1.3468098481352E-05
   124  1.23  0.  0.
   125  1.24  0.  0.
   126  1.25  0.  0.
   127  1.26  0.  0.
   128  1.27  0.  0.
   129  1.28  0.  0.
   130  1.29  0.  0.
   131  1.30  0.  0.
   132  1.31  0.  0.
   133  1.32  0.  0.
   134  1.33  0.  0.
   135  1.34  0.  0.
   136  1.35  0.  0.
   137  1.36  0.  0.
   138  1.37  0.  0.
   139  1.38  0.  0.
   140  1.39  0.  0.
   141  1.40  0.  0.
   142  1.41  0.  0.
   143  1.42  0.  0.
   144  1.43  0.  0.
   145  1.44  0.  0.
   146  1.45  0.  0.
   147  1.46  0.  0.
   148  1.47  0.  0.
   149  1.48  0.  0.
   150  1.49  0.  0.
   151  1.50  0.  0.
   152  1.51  0.  0.
   153  1.52  0.  0.
   154  1.53  0.  0.
   155  1.54  0.  0.
   156  1.55  0.  0.
   157  1.56  0.  0.
   158  1.57  0.  0.
   159  1.58  0.  0.
   160  1.59  0.  0.
   161  1.60  0.  0.
   162  1.61  0.  0.
   163  1.62  0.  0.
   164  1.63  0.  0.
   165  1.64  0.  0.
   166  1.65  0.  0.
   167  1.66  0.  0.
   168  1.67  0.  0.
   169  1.68  0.  0.
   170  1.69  0.  0.
   171  1.70  0.  0.
   172  1.71  0.  0.
   173  1.72  0.  0.
   174  1.73  0.  0.
   175  1.74  0.  0.
   176  1.75  0.  0.
   177  1.76  0.  0.
   178  1.77  0.  0.
   179  1.78  0.  0.
   180  1.79  0.  0.
   181  1.80  0.  0.
   182  1.81  0.  0.
   183  1.82  0.  0.
   184  1.83  0.  0.
   185  1.84  0.  0.
   186  1.85  0.  0.
   187  1.86  0.  0.
   188  1.87  0.  0.
   189  1.88  0.  0.
   190  1.89  0.  0.
   191  1.90  0.  0.
   192  1.91  0.  0.
   193  1.92  0.  0.
   194  1.93  0.  0.
   195  1.94  0.  0.
   196  1.95  0.  0.
   197  1.96  0.  0.
   198  1.97  0.  0.
   199  1.98  0.  0.
   200  1.99  0.  0.
   201  2.00  0.  0.
   202  2.01  0.  0.
   203  2.02  0.  0.
   204  2.03  0.  0.
   205  2.04  0.  0.
   206  2.05  0.  0.
   207  2.06  0.  0.
   208  2.07  0.  0.
   209  2.08  0.  0.
   210  2.09  0.  0.
   211  2.10  0.  0.
   212  2.11  0.  0.
   213  2.12  0.  0.
   214  2.13  0.  0.
   215  2.14  0.  0.
   216  2.15  0.  0.
   217  2.16  0.  0.
   218  2.17  0.  0.
   219  2.18  0.  0.
   220  2.19  0.  0.
   221  2.20  0.  0.
   222  2.21  0.  0.
   223  2.22  0.  0.
   224  2.23  0.  0.
   225  2.24  0.  0.
   226  2.25  0.  0.
   227  2.26  0.  0.
   228  2.27  0.  0.
   229  2.28  0.  0.
   230  2.29  0.  0.
   231  2.30  0.  0.
   232  2.31  0.  0.
   233  2.32  0.  0.
   234  2.33  0.  0.
   235  2.34  0.  0.
   236  2.35  0.  0.
   237  2.36  0.  0.
   238  2.37  0.  0.
   239  2.38  0.  0.
   240  2.39  0.  0.
   241  2.40  0.  0.
   242  2.41  0.  0.
   243  2.42  0.  0.
   244  2.43  0.  0.
   245  2.44  0.  0.
   246  2.45  0.  0.
   247  2.46  0.  0.
   248  2.47  0.  0.
   249  2.48  0.  0.
   250  2.49  0.  0.
   251  2.50  0.  0.
   252  2.51  0.  0.
   253  2.52  0.  0.
   254  2.53  0.  0.
   255  2.54  0.  0.
   256  2.55  0.  0.
   257  2.56  0.  0.
   258  2.57  0.  0.
   259  2.58  0.  0.
   260  2.59  0.  0.
   261  2.60  0.  0.
   262  2.61  0.  0.
   263  2.62  0.  0.
   264  2.63  0.  0.
   265  2.64  0.  0.
   266  2.65  0.  0.
   267  2.66  0.  0.
   268  2.67  0.  0.
   269  2.68  0.  0.
   270  2.69  0.  0.
   271  2.70  0.  0.
   272  2.71  0.  0.
   273  2.72  0.  0.
   274  2.73  0.  0.
   275  2.74  0.  0.
   276  2.75  0.  0.
   277  2.76  0.  0.
   278  2.77  0.  0.
   279  2.78  0.  0.
   280  2.79  0.  0.
   281  2.80  0.  0.
   282  2.81  0.  0.
   283  2.82  0.  0.
   284  2.83  0.  0.
   285  2.84  0.  0.
   286  2.85  0.  0.
   287  2.86  0.  0.
   288  2.87  0.  0.
   289  2.88  0.  0.
   290  2.89  0.  0.
   291  2.90  0.  0.
   292  2.91  0.  0.
   293  2.92  0.  0.
   294  2.93  0.  0.
   295  2.94  0.  0.
   296  2.95  0.  0.
   297  2.96  0.  0.
   298  2.97  0.  0.
   299  2.98  0.  0.
   300  2.99  0.  0.
   301  3.00  0.  0.
   302  3.01  0.  0.
   303  3.02  0.  0.
   304  3.03  0.  0.
   305  3.04  0.  0.
   306  3.05  0.  0.
   307  3.06  0.  0.
   308  3.07  0.  0.
   309  3.08  0.  0.
   310  3.09  0.  0.
   311  3.10  0.  0.
   312  3.11  0.  0.
   313  3.12  0.  0.
   314  3.13  0.  0.
   315  3.14  0.  0.
   316  3.15  0.  0.
   317  3.16  0.  0.
   318  3.17  0.  0.
   319  3.18  0.  0.
   320  3.19  0.  0.
   321  3.20  0.  0.
   322  3.21  0.  0.
   323  3.22  0.  0.
   324  3.23  0.  0.
   325  3.24  0.  0.
   326  3.25  0.  0.
   327  3.26  0.  0.
   328  3.27  0.  0.
   329  3.28  0.  0.
   330  3.29  0.  0.
   331  3.30  0.  0.
   332  3.31  0.  0.
   333  3.32  0.  0.
   334  3.33  0.  0.
   335  3.34  0.  0.
   336  3.35  0.  0.
   337  3.36  0.  0.
   338  3.37  0.  0.
   339  3.38  0.  0.
   340  3.39  0.  0.
   341  3.40  0.  0.
   342  3.41  0.  0.
   343  3.42  0.  0.
   344  3.43  0.  0.
   345  3.44  0.  0.
   346  3.45  0.  0.
   347  3.46  0.  0.
   348  3.47  0.  0.
   349  3.48  0.  0.
   350  3.49  0.  0.
   351  3.50  0.  0.
   352  3.51  0.  0.
   353  3.52  0.  0.
   354  3.53  0.  0.
   355  3.54  0.  0.
   356  3.55  0.  0.
   357  3.56  0.  0.
   358  3.57  0.  0.
   359  3.58  0.  0.
   360  3.59  0.  0.
   361  3.60  0.  0.
   362  3.61  0.  0.
   363  3.62  0.  0.
   364  3.63  0.  0.
   365  3.64  0.  0.
   366  3.65  0.  0.
   367  3.66  0.  0.
   368  3.67  0.  0.
   369  3.68  0.  0.
   370  3.69  0.  0.
   371  3.70  0.  0.
   372  3.71  0.  0.
   373  3.72  0.  0.
   374  3.73  0.  0.
   375  3.74  0.  0.
   376  3.75  0.  0.
   377  3.76  0.  0.
   378  3.77  0.  0.
   379  3.78  0.  0.
   380  3.79  0.  0.
   381  3.80  0.  0.
   382  3.81  0.  0.
   383  3.82  0.  0.
   384  3.83  0.  0.
   385  3.84  0.  0.
   386  3.85  0.  0.
   387  3.86  0.  0.
   388  3.87  0.  0.
   389  3.88  0.  0.
   390  3.89  0.  0.
   391  3.90  0.  0.
   392  3.91  0.  0.
   393  3.92  0.  0.
   394  3.93  0.  0.
   395  3.94  0.  0.
   396  3.95  0.  0.
   397  3.96  0.  0.
   398  3.97  0.  0.
   399  3.98  0.  0.
   400  3.99  0.  0.
   401  4.00  0.  0.
   402  4.01  0.  0.
   403  4.02  0.  0.
   404  4.03  0.  0.
   405  4.04  0.  0.
   406  4.05  0.  0.
   407  4.06  0.  0.
   408  4.07  0.  0.
   409  4.08  0.  0.
   410  4.09  0.  0.
   411  4.10  0.  0.
   412  4.11  0.  0.
   413  4.12  0.  0.
   414  4.13  0.  0.
   415  4.14  0.  0.
   416  4.15  0.  0.
   417  4.16  0.  0.
   418  4.17  0.  0.
   419  4.18  0.  0.
   420  4.19  0.  0.
   421  4.20  0.  0.
   422  4.21  0.  0.
   423  4.22  0.  0.
   424  4.23  0.  0.
   425  4.24  0.  0.
   426  4.25  0.  0.
   427  4.26  0.  0.
   428  4.27  0.  0.
   429  4.28  0.  0.
   430  4.29  0.  0.
   431  4.30  0.  0.
   432  4.31  0.  0.
   433  4.32  0.  0.
   434  4.33  0.  0.
   435  4.34  0.  0.
   436  4.35  0.  0.
   437  4.36  0.  0.
   438  4.37  0.  0.
   439  4.38  0.  0.
   440  4.39  0.  0.
   441  4.40  0.  0.
   442  4.41  0.  0.
   443  4.42  0.  0.
   444  4.43  0.  0.
   445  4.44  0.  0.
   446  4.45  0.  0.
   447  4.46  0.  0.
   448  4.47  0.  0.
   449  4.48  0.  0.
   450  4.49  0.  0.
   451  4.50  0.  0.
   452  4.51  0.  0.
   453  4.52  0.  0.
   454  4.53  0.  0.
   455  4.54  0.  0.
   456  4.55  0.  0.
   457  4.56  0.  0.
   458  4.57  0.  0.
   459  4.58  0.  0.
   460  4.59  0.  0.
   461  4.60  0.  0.
   462  4.61  0.  0.
   463  4.62  0.  0.
   464  4.63  0.  0.
   465  4.64  0.  0.
   466  4.65  0.  0.
   467  4.66  0.  0.
   468  4.67  0.  0.
   469  4.68  0.  0.
   470  4.69  0.  0.
   471  4.70  0.  0.
   472  4.71  0.  0.
   473  4.72  0.  0.
   474  4.73  0.  0.
   475  4.74  0.  0.
   476  4.75  0.  0.
   477  4.76  0.  0.
   478  4.77  0.  0.
   479  4.78  0.  0.
   480  4.79  0.  0.
   481  4.80  0.  0.
   482  4.81  0.  0.
   483  4.82  0.  0.
   484  4.83  0.  0.
   485  4.84  0.  0.
   486  4.85  0.  0.
   487  4.86  0.  0.
   488  4.87  0.  0.
   489  4.88  0.  0.
   490  4.89  0.  0.
   491  4.90  0.  0.
   492  4.91  0.  0.
   493  4.92  0.  0.
   494  4.93  0.  0.
   495  4.94  0.  0.
   496  4.95  0.  0.
   497  4.96  0.  0.
   498  4.97  0.  0.
   499  4.98  0.  0.
   500  4.99  0.  0.
   501  5.00  0.  0.
   502  5.01  0.  0.
   503  5.02  0.  0.
   504  5.03  0.  0.
   505  5.04  0.  0.
   506  5.05  0.  0.
   507  5.06  0.  0.
   508  5.07  0.  0.
   509  5.08  0.  0.
   510  5.09  0.  0.
   511  5.10  0.  0.
   512  5.11  0.  0.
   513  5.12  0.  0.
   514  5.13  0.  0.
   515  5.14  0.  0.
   516  5.15  0.  0.
   517  5.16  0.  0.
   518  5.17  0.  0.
   519  5.18  0.  0.
   520  5.19  0.  0.
   521  5.20  0.  0.
   522  5.21  0.  0.
   523  5.22  0.  0.
   524  5.23  0.  0.
   525  5.24  0.  0.
   526  5.25  0.  0.
   527  5.26  0.  0.
   528  5.27  0.  0.
   529  5.28  0.  0.
   530  5.29  0.  0.
   531  5.30  0.  0.
   532  5.31  0.  0.
   533  5.32  0.  0.
   534  5.33  0.  0.
   535  5.34  0.  0.
   536  5.35  0.  0.
   537  5.36  0.  0.
   538  5.37  0.  0.
   539  5.38  0.  0.
   540  5.39  0.  0.
   541  5.40  0.  0.
   542  5.41  0.  0.
   543  5.42  0.  0.
   544  5.43  0.  0.
   545  5.44  0.  0.
   546  5.45  0.  0.
   547  5.46  0.  0.
   548  5.47  0.  0.
   549  5.48  0.  0.
   550  5.49  0.  0.
   551  5.50  0.  0.
   552  5.51  0.  0.
   553  5.52  0.  0.
   554  5.53  0.  0.
   555  5.54  0.  0.
   556  5.55  0.  0.
   557  5.56  0.  0.
   558  5.57  0.  0.
   559  5.58  0.  0.
   560  5.59  0.  0.
   561  5.60  0.  0.
   562  5.61  0.  0.
   563  5.62  0.  0.
   564  5.63  0.  0.
   565  5.64  0.  0.
   566  5.65  0.  0.
   567  5.66  0.  0.
   568  5.67  0.  0.
   569  5.68  0.  0.
   570  5.69  0.  0.
   571  5.70  0.  0.
   572  5.71  0.  0.
   573  5.72  0.  0.
   574  5.73  0.  0.
   575  5.74  0.  0.
   576  5.75  0.  0.
   577  5.76  0.  0.
   578  5.77  0.  0.
   579  5.78  0.  0.
   580  5.79  0.  0.
   581  5.80  0.  0.
   582  5.81  0.  0.
   583  5.82  0.  0.
   584  5.83  0.  0.
   585  5.84  0.  0.
   586  5.85  0.  0.
   587  5.86  0.  0.
   588  5.87  0.  0.
   589  5.88  0.  0.
   590  5.89  0.  0.
   591  5.90  0.  0.
   592  5.91  0.  0.
   593  5.92  0.  0.
   594  5.93  0.  0.
   595  5.94  0.  0.
   596  5.95  0.  0.
   597  5.96  0.  0.
   598  5.97  0.  0.
   599  5.98  0.  0.
   600  5.99  0.  0.
   1                        -3.0826706231702E+00 -3.3045271297279E-01
     1  0.0000000000000E+00 -3.6558590876812E-10 -1.1740264385662E-08
     2  1.0000000000000E-02  1.7636049754301E-03 -1.8642279519616E-03
     3  2.0000000000000E-02  7.0472939203313E-03 -7.4348533278362E-03
     4  3.0000000000000E-02  1.5829707301110E-02 -1.6646053961690E-02
     5  4.0000000000000E-02  2.8075307536412E-02 -2.9389296982223E-02
     6  5.0000000000000E-02  4.3734472401975E-02 -4.5515071098243E-02
     7  6.0000000000000E-02  6.2743627641540E-02 -6.4835264597321E-02
     8  7.0000000000000E-02  8.5025420531771E-02 -8.7126142882855E-02
     9  8.0000000000000E-02  1.1048893651476E-01 -1.1213186763452E-01
    10  9.0000000000000E-02  1.3902996128293E-01 -1.3956848900053E-01
    11  1.0000000000000E-01  1.7053129086321E-01 -1.6912833282225E-01
    12  1.1000000000000E-01  2.0486309228932E-01 -2.0048469694504E-01
    13  1.2000000000000E-01  2.4188331736569E-01 -2.3329676435029E-01
    14  1.3000000000000E-01  2.8143817181052E-01 -2.6721463629869E-01
    15  1.4000000000000E-01  3.2336264172014E-01 -3.0188438601906E-01
    16  1.5000000000000E-01  3.6748107882759E-01 -3.3695303280163E-01
    17  1.6000000000000E-01  4.1360784544399E-01 -3.7207333770772E-01
    18  1.7000000000000E-01  4.6154801928595E-01 -4.0690832551596E-01
    19  1.8000000000000E-01  5.1109815762160E-01 -4.4113544296114E-01
    20  1.9000000000000E-01  5.6204711933184E-01 -4.7445027073443E-01
    21  2.0000000000000E-01  6.1417694260401E-01 -5.0656971600024E-01
    22  2.1000000000000E-01  6.6726377507489E-01 -5.3723462320848E-01
    23  2.2000000000000E-01  7.2107885234425E-01 -5.6621175356247E-01
    24  2.3000000000000E-01  7.7538951991283E-01 -5.9329509742230E-01
    25  2.4000000000000E-01  8.2996029278333E-01 -6.1830649892998E-01
    26  2.5000000000000E-01  8.8455394622315E-01 -6.4109558794494E-01
    27  2.6000000000000E-01  9.3893263054263E-01 -6.6153903066090E-01
    28  2.7000000000000E-01  9.9285900221155E-01 -6.7953912669654E-01
    29  2.8000000000000E-01  1.0460973632329E+00 -6.9502179665179E-01
    30  2.9000000000000E-01  1.0984148004283E+00 -7.0793401973084E-01
    31  3.0000000000000E-01  1.1495823161714E+00 -7.1824079567357E-01
    32  3.1000000000000E-01  1.1993759421349E+00 -7.2592171854586E-01
    33  3.2000000000000E-01  1.2475778277932E+00 -7.3096726155278E-01
    34  3.3000000000000E-01  1.2939772957436E+00 -7.3337488163013E-01
    35  3.4000000000000E-01  1.3383718563547E+00 -7.3314505983325E-01
    36  3.5000000000000E-01  1.3805681748215E+00 -7.3027739821593E-01
    37  3.6000000000000E-01  1.4203829843732E+00 -7.2476689576646E-01
    38  3.7000000000000E-01  1.4576439401302E+00 -7.1660052488359E-01
    39  3.8000000000000E-01  1.4921904089149E+00 -7.0575422573836E-01
    40  3.9000000000000E-01  1.5238741911680E+00 -6.9219042865816E-01
    41  4.0000000000000E-01  1.5525601719798E+00 -6.7585620443020E-01
    42  4.1000000000000E-01  1.5781268990901E+00 -6.5668212928016E-01
    43  4.2000000000000E-01  1.6004670865277E+00 -6.3458193543892E-01
    44  4.3000000000000E-01  1.6194880433134E+00 -6.0945299993569E-01
    45  4.4000000000000E-01  1.6351120273363E+00 -5.8117770390515E-01
    46  4.5000000000000E-01  1.6472765251042E+00 -5.4962567267453E-01
    47  4.6000000000000E-01  1.6559344585585E+00 -5.1465688368350E-01
    48  4.7000000000000E-01  1.6610543205241E+00 -4.7612560540615E-01
    49  4.8000000000000E-01  1.6626202406240E+00 -4.3388510645417E-01
    50  4.9000000000000E-01  1.6606319836355E+00 -3.8779305053557E-01
    51  5.0000000000000E-01  1.6551048822990E+00 -3.3771747052829E-01
    52  5.1000000000000E-01  1.6460697065187E+00 -2.8354319420355E-01
    53  5.2000000000000E-01  1.6335724707346E+00 -2.2517857569409E-01
    54  5.3000000000000E-01  1.6176741810062E+00 -1.6256237119227E-01
    55  5.4000000000000E-01  1.5984505230583E+00 -9.5670585100963E-02
    56  5.5000000000000E-01  1.5759914922052E+00 -2.4523104382932E-02
    57  5.6000000000000E-01  1.5504009657353E+00  5.0810065464551E-02
    58  5.7000000000000E-01  1.5217962180020E+00  1.3020314926631E-01
    59  5.8000000000000E-01  1.4903073781781E+00  2.1346971757873E-01
    60  5.9000000000000E-01  1.4560768303945E+00  3.0035874095422E-01
    61  6.0000000000000E-01  1.4192585558280E+00  3.9055174129517E-01
    62  6.1000000000000E-01  1.3800174162510E+00  4.8366117998329E-01
    63  6.2000000000000E-01  1.3385283786148E+00  5.7923019971687E-01
    64  6.3000000000000E-01  1.2949756804284E+00  6.7673381042710E-01
    65  6.4000000000000E-01  1.2495519360189E+00  7.7558157977988E-01
    66  6.5000000000000E-01  1.2024571842251E+00  8.7512185620962E-01
    67  6.6000000000000E-01  1.1538978786780E+00  9.7464751787136E-01
    68  6.7000000000000E-01  1.1040858225564E+00  1.0734032051086E+00
    69  6.8000000000000E-01  1.0532370505573E+00  1.1705939578458E+00
    70  6.9000000000000E-01  1.0015706617807E+00  1.2653951435940E+00
    71  7.0000000000000E-01  9.4930760826359E-01  1.3569635273923E+00
    72  7.1000000000000E-01  8.9666944499747E-01  1.4444493028753E+00
    73  7.2000000000000E-01  8.4387704838729E-01  1.5270088746164E+00
    74  7.3000000000000E-01  7.9114931123617E-01  1.6038181567543E+00
    75  7.4000000000000E-01  7.3870182343062E-01  1.6740861323960E+00
    76  7.5000000000000E-01  6.8674554852636E-01  1.7370684030522E+00
    77  7.6000000000000E-01  6.3548550736098E-01  1.7920804479313E+00
    78  7.7000000000000E-01  5.8511948061511E-01  1.8385103096955E+00
    79  7.8000000000000E-01  5.3583674287884E-01  1.8758304265365E+00
    80  7.9000000000000E-01  4.8781684122980E-01  1.9036083402618E+00
    81  8.0000000000000E-01  4.4122843156919E-01  1.9215160264556E+00
    82  8.1000000000000E-01  3.9622818597624E-01  1.9293376154645E+00
    83  8.2000000000000E-01  3.5295978411655E-01  1.9269753016059E+00
    84  8.3000000000000E-01  3.1155300126877E-01  1.9144532720538E+00
    85  8.4000000000000E-01  2.7212290481694E-01  1.8919195256684E+00
    86  8.5000000000000E-01  2.3476917009761E-01  1.8596454947830E+00
    87  8.6000000000000E-01  1.9957552530310E-01  1.8180234287213E+00
    88  8.7000000000000E-01  1.6660933374278E-01  1.7675615455799E+00
    89  8.8000000000000E-01  1.3592132017619E-01  1.7088770074747E+00
    90  8.9000000000000E-01  1.0754544618267E-01  1.6426868228917E+00
    91  9.0000000000000E-01  8.1498937655646E-02  1.5697968268403E+00
    92  9.1000000000000E-01  5.7782465539912E-02  1.4910889340462E+00
    93  9.2000000000000E-01  3.6380478907553E-02  1.4075069013431E+00
    94  9.3000000000000E-01  1.7261687431444E-02  1.3200408716792E+00
    95  9.4000000000000E-01  3.7968830529183E-04  1.2297110028369E+00
    96  9.5000000000000E-01 -1.4326269283546E-02  1.1375505082299E+00
    97  9.6000000000000E-01 -2.6930390859683E-02  1.0445884543406E+00
    98  9.7000000000000E-01 -3.7519324971325E-02  9.5183266897200E-01
    99  9.8000000000000E-01 -4.6191045057817E-02  8.6025311619485E-01
   100  9.9000000000000E-01 -5.3053638144699E-02  7.7076608752648E-01
   101  1.0000000000000E+00 -5.8224014734584E-02  6.8421954454100E-01
   102  1.0100000000000E+00 -6.1826555117699E-02  6.0137992603474E-01
   103  1.0200000000000E+00 -6.3991707928720E-02  5.2292070353072E-01
   104  1.0300000000000E+00 -6.4854557122081E-02  4.4941293287460E-01
   105  1.0400000000000E+00 -6.4553373626573E-02  3.8131800781787E-01
   106  1.0500000000000E+00 -6.3228167781066E-02  3.1898277477153E-01
   107  1.0600000000000E+00 -6.1019258257616E-02  2.6263711730194E-01
   108  1.0700000000000E+00 -5.8065872567035E-02  2.1239406583746E-01
   109  1.0800000000000E+00 -5.4504793437300E-02  1.6825243353629E-01
   110  1.0900000000000E+00 -5.0469064383069E-02  1.3010192469435E-01
   111  1.1000000000000E+00 -4.6086766680464E-02  9.7730608925255E-02
   112  1.1100000000000E+00 -4.1479878748143E-02  7.0834603558109E-02
   113  1.1200000000000E+00 -3.6763227660689E-02  4.9029760028846E-02
   114  1.1300000000000E+00 -3.2043541200776E-02  3.1865108065492E-02
   115  1.1400000000000E+00 -2.7418607543095E-02  1.8837775788050E-02
   116  1.1500000000000E+00 -2.2976548368222E-02  9.4090748519871E-03
   117  1.1600000000000E+00 -1.8795209975225E-02  3.0214185971522E-03
   118  1.1700000000000E+00 -1.4941678492195E-02 -8.8424443938759E-04
   119  1.1800000000000E+00 -1.1471894707011E-02 -2.8511190340395E-03
   120  1.1900000000000E+00 -8.4293281912954E-03 -3.4002355986121E-03
   121  1.2000000000000E+00 -5.8278727838560E-03 -3.1897321677081E-03
   122  1.2100000000000E+00 -3.6922716392533E-03 -2.5865564999683E-03
   123  1.2200000000000E+00 -2.0461900693832E-03 -1.7727732860221E-03
   124  1.2300000000000E+00 -8.9491948591389E-04 -9.3394122091276E-04
   125  1.2400000000000E+00 -2.2238349587947E-04 -2.6620330443100E-04
   126  1.2500000000000E+00 -1.8994572244589E-06  1.4002014005621E-05
   127  1.2600000000000E+00 -1.4162492339494E-06 -3.5959511602282E-06
   128  1.2700000000000E+00  2.7513044752464E-07  7.0975550830691E-07
   129  1.28  0.  0.
   130  1.29  0.  0.
   131  1.30  0.  0.
   132  1.31  0.  0.
   133  1.32  0.  0.
   134  1.33  0.  0.
   135  1.34  0.  0.
   136  1.35  0.  0.
   137  1.36  0.  0.
   138  1.37  0.  0.
   139  1.38  0.  0.
   140  1.39  0.  0.
   141  1.40  0.  0.
   142  1.41  0.  0.
   143  1.42  0.  0.
   144  1.43  0.  0.
   145  1.44  0.  0.
   146  1.45  0.  0.
   147  1.46  0.  0.
   148  1.47  0.  0.
   149  1.48  0.  0.
   150  1.49  0.  0.
   151  1.50  0.  0.
   152  1.51  0.  0.
   153  1.52  0.  0.
   154  1.53  0.  0.
   155  1.54  0.  0.
   156  1.55  0.  0.
   157  1.56  0.  0.
   158  1.57  0.  0.
   159  1.58  0.  0.
   160  1.59  0.  0.
   161  1.60  0.  0.
   162  1.61  0.  0.
   163  1.62  0.  0.
   164  1.63  0.  0.
   165  1.64  0.  0.
   166  1.65  0.  0.
   167  1.66  0.  0.
   168  1.67  0.  0.
   169  1.68  0.  0.
   170  1.69  0.  0.
   171  1.70  0.  0.
   172  1.71  0.  0.
   173  1.72  0.  0.
   174  1.73  0.  0.
   175  1.74  0.  0.
   176  1.75  0.  0.
   177  1.76  0.  0.
   178  1.77  0.  0.
   179  1.78  0.  0.
   180  1.79  0.  0.
   181  1.80  0.  0.
   182  1.81  0.  0.
   183  1.82  0.  0.
   184  1.83  0.  0.
   185  1.84  0.  0.
   186  1.85  0.  0.
   187  1.86  0.  0.
   188  1.87  0.  0.
   189  1.88  0.  0.
   190  1.89  0.  0.
   191  1.90  0.  0.
   192  1.91  0.  0.
   193  1.92  0.  0.
   194  1.93  0.  0.
   195  1.94  0.  0.
   196  1.95  0.  0.
   197  1.96  0.  0.
   198  1.97  0.  0.
   199  1.98  0.  0.
   200  1.99  0.  0.
   201  2.00  0.  0.
   202  2.01  0.  0.
   203  2.02  0.  0.
   204  2.03  0.  0.
   205  2.04  0.  0.
   206  2.05  0.  0.
   207  2.06  0.  0.
   208  2.07  0.  0.
   209  2.08  0.  0.
   210  2.09  0.  0.
   211  2.10  0.  0.
   212  2.11  0.  0.
   213  2.12  0.  0.
   214  2.13  0.  0.
   215  2.14  0.  0.
   216  2.15  0.  0.
   217  2.16  0.  0.
   218  2.17  0.  0.
   219  2.18  0.  0.