Ni    ONCVPSP-4.0.1  r_core=   1.20631   1.25039   1.55086
     28.0000     18.0000      240502    zatom,zion,pspd
     8       2   2     4   600     0    pspcod,pspxc,lmax,lloc,mmax,r2well
  5.99000000  3.00000000  0.00000000    rchrg fchrg qchrg
     2     2     2     0     0    nproj
     1     1           extension_switch
   0                         7.4220733680877E+00 -3.1505056881994E-01
     1  0.0000000000000E+00  6.7654702951003E-09  3.8082731662614E-08
     2  1.0000000000000E-02  1.0890922459965E-01  1.7997801990366E-02
     3  2.0000000000000E-02  2.1745500914298E-01  3.6177716604722E-02
     4  3.0000000000000E-02  3.2527392475752E-01  5.4712676659526E-02
     5  4.0000000000000E-02  4.3200261642083E-01  7.3757577980395E-02
     6  5.0000000000000E-02  5.3727796676178E-01  9.3441057172706E-02
     7  6.0000000000000E-02  6.4073740704778E-01  1.1385819640170E-01
     8  7.0000000000000E-02  7.4201941614341E-01  1.3506441760536E-01
     9  8.0000000000000E-02  8.4076424146085E-01  1.5707079048069E-01
    10  9.0000000000000E-02  9.3661486786461E-01  1.7984093321975E-01
    11  1.0000000000000E-01  1.0292182513913E+00  2.0328963371910E-01
    12  1.1000000000000E-01  1.1182268247814E+00  2.2728326342305E-01
    13  1.2000000000000E-01  1.2033002715002E+00  2.5164199779913E-01
    14  1.3000000000000E-01  1.2841075544679E+00  2.7614379848429E-01
    15  1.4000000000000E-01  1.3603291754579E+00  3.0053005420823E-01
    16  1.5000000000000E-01  1.4316596313723E+00  3.2451272250407E-01
    17  1.6000000000000E-01  1.4978100246810E+00  3.4778276367949E-01
    18  1.7000000000000E-01  1.5585107775007E+00  3.7001961413931E-01
    19  1.8000000000000E-01  1.6135143923417E+00  3.9090140933752E-01
    20  1.9000000000000E-01  1.6625981976935E+00  4.1011563858468E-01
    21  2.0000000000000E-01  1.7055670135028E+00  4.2736989557460E-01
    22  2.1000000000000E-01  1.7422556703653E+00  4.4240238046551E-01
    23  2.2000000000000E-01  1.7725313169398E+00  4.5499181198352E-01
    24  2.3000000000000E-01  1.7962954527315E+00  4.6496642131967E-01
    25  2.4000000000000E-01  1.8134856279121E+00  4.7221172324863E-01
    26  2.5000000000000E-01  1.8240767581454E+00  4.7667679327322E-01
    27  2.6000000000000E-01  1.8280820103063E+00  4.7837882176115E-01
    28  2.7000000000000E-01  1.8255532243086E+00  4.7740576578041E-01
    29  2.8000000000000E-01  1.8165808467311E+00  4.7391697520932E-01
    30  2.9000000000000E-01  1.8012933632698E+00  4.6814173005214E-01
    31  3.0000000000000E-01  1.7798562289230E+00  4.6037568893319E-01
    32  3.1000000000000E-01  1.7524703069004E+00  4.5097531258229E-01
    33  3.2000000000000E-01  1.7193698391865E+00  4.4035038882244E-01
    34  3.3000000000000E-01  1.6808199831485E+00  4.2895484521379E-01
    35  3.4000000000000E-01  1.6371139592141E+00  4.1727609024802E-01
    36  3.5000000000000E-01  1.5885698641530E+00  4.0582317211175E-01
    37  3.6000000000000E-01  1.5355272125920E+00  3.9511408401254E-01
    38  3.7000000000000E-01  1.4783432758386E+00  3.8566257558556E-01
    39  3.8000000000000E-01  1.4173892916864E+00  3.7796484993830E-01
    40  3.9000000000000E-01  1.3530466214828E+00  3.7248653472100E-01
    41  4.0000000000000E-01  1.2857029312762E+00  3.6965031282828E-01
    42  4.1000000000000E-01  1.2157484722981E+00  3.6982458389273E-01
    43  4.2000000000000E-01  1.1435725324069E+00  3.7331350191451E-01
    44  4.3000000000000E-01  1.0695601245366E+00  3.8034869782364E-01
    45  4.4000000000000E-01  9.9408897079404E-01  3.9108294945858E-01
    46  4.5000000000000E-01  9.1752683184929E-01  4.0558600663865E-01
    47  4.6000000000000E-01  8.4022922093138E-01  4.2384271724487E-01
    48  4.7000000000000E-01  7.6253753035634E-01  4.4575353327215E-01
    49  4.8000000000000E-01  6.8477758642581E-01  4.7113740561496E-01
    50  4.9000000000000E-01  6.0725863608522E-01  4.9973700495952E-01
    51  5.0000000000000E-01  5.3027275629264E-01  5.3122613570158E-01
    52  5.1000000000000E-01  4.5409466498944E-01  5.6521914241041E-01
    53  5.2000000000000E-01  3.7898190124368E-01  6.0128204607026E-01
    54  5.3000000000000E-01  3.0517533189462E-01  6.3894509208271E-01
    55  5.4000000000000E-01  2.3289993317362E-01  6.7771634555004E-01
    56  5.5000000000000E-01  1.6236578858313E-01  7.1709593318801E-01
    57  5.6000000000000E-01  9.3769239004018E-02  7.5659050655554E-01
    58  5.7000000000000E-01  2.7294117741316E-02  7.9572748903488E-01
    59  5.8000000000000E-01 -3.6886997883736E-02  8.3406866968624E-01
    60  5.9000000000000E-01 -9.8611585686644E-02  8.7122272089947E-01
    61  6.0000000000000E-01 -1.5772609252798E-01  9.0685624344740E-01
    62  6.1000000000000E-01 -2.1408502161375E-01  9.4070298150535E-01
    63  6.2000000000000E-01 -2.6755024450995E-01  9.7257090046070E-01
    64  6.3000000000000E-01 -3.1799058014997E-01  1.0023468805690E+00
    65  6.4000000000000E-01 -3.6528167260696E-01  1.0299988480833E+00
    66  6.5000000000000E-01 -4.0930618774703E-01  1.0555752404830E+00
    67  6.6000000000000E-01 -4.4995433642354E-01  1.0792017817413E+00
    68  6.7000000000000E-01 -4.8712471899906E-01  1.1010756249053E+00
    69  6.8000000000000E-01 -5.2072547308283E-01  1.1214570002698E+00
    70  6.9000000000000E-01 -5.5067569385427E-01  1.1406585856851E+00
    71  7.0000000000000E-01 -5.7690708459784E-01  1.1590328887302E+00
    72  7.1000000000000E-01 -5.9936578448390E-01  1.1769579963426E+00
    73  7.2000000000000E-01 -6.1801431153726E-01  1.1948221040028E+00
    74  7.3000000000000E-01 -6.3283355145171E-01  1.2130072818863E+00
    75  7.4000000000000E-01 -6.4382471768945E-01  1.2318729680400E+00
    76  7.5000000000000E-01 -6.5101120535032E-01  1.2517396974246E+00
    77  7.6000000000000E-01 -6.5444026074203E-01  1.2728735798342E+00
    78  7.7000000000000E-01 -6.5418439049248E-01  1.2954720288837E+00
    79  7.8000000000000E-01 -6.5034243841425E-01  1.3196512185172E+00
    80  7.9000000000000E-01 -6.4304026507621E-01  1.3454357033264E+00
    81  8.0000000000000E-01 -6.3243097400718E-01  1.3727505853161E+00
    82  8.1000000000000E-01 -6.1869463943054E-01  1.4014165439164E+00
    83  8.2000000000000E-01 -6.0203750312274E-01  1.4311479697375E+00
    84  8.3000000000000E-01 -5.8269062206419E-01  1.4615543577966E+00
    85  8.4000000000000E-01 -5.6090796362239E-01  1.4921450250198E+00
    86  8.5000000000000E-01 -5.3696396065397E-01  1.5223371222333E+00
    87  8.6000000000000E-01 -5.1115055468860E-01  1.5514668152541E+00
    88  8.7000000000000E-01 -4.8377377080889E-01  1.5788034157697E+00
    89  8.8000000000000E-01 -4.5514988250945E-01  1.6035661531776E+00
    90  8.9000000000000E-01 -4.2560123826796E-01  1.6249431960247E+00
    91  9.0000000000000E-01 -3.9545183337701E-01  1.6421124586139E+00
    92  9.1000000000000E-01 -3.6502272039716E-01  1.6542636669333E+00
    93  9.2000000000000E-01 -3.3462735907702E-01  1.6606211102268E+00
    94  9.3000000000000E-01 -3.0456701148554E-01  1.6604664718246E+00
    95  9.4000000000000E-01 -2.7512629022463E-01  1.6531611164282E+00
    96  9.5000000000000E-01 -2.4656896682086E-01  1.6381672116162E+00
    97  9.6000000000000E-01 -2.1913414369889E-01  1.6150670791272E+00
    98  9.7000000000000E-01 -1.9303288656024E-01  1.5835802062660E+00
    99  9.8000000000000E-01 -1.6844540466343E-01  1.5435773988098E+00
   100  9.9000000000000E-01 -1.4551885462283E-01  1.4950916229318E+00
   101  1.0000000000000E+00 -1.2436582920172E-01  1.4383251632590E+00
   102  1.0100000000000E+00 -1.0506357651280E-01  1.3736528152512E+00
   103  1.0200000000000E+00 -8.7653977475024E-02  1.3016209302133E+00
   104  1.0300000000000E+00 -7.2144290730756E-02  1.2229422379803E+00
   105  1.0400000000000E+00 -5.8508655026438E-02  1.1384864826013E+00
   106  1.0500000000000E+00 -4.6690319800157E-02  1.0492670173016E+00
   107  1.0600000000000E+00 -3.6604555881442E-02  9.5642361381912E-01
   108  1.0700000000000E+00 -2.8142180374796E-02  8.6120184450768E-01
   109  1.0800000000000E+00 -2.1173613386185E-02  7.6492949092687E-01
   110  1.0900000000000E+00 -1.5553369749753E-02  6.6899051715511E-01
   111  1.1000000000000E+00 -1.1124876744132E-02  5.7479721728103E-01
   112  1.1100000000000E+00 -7.7254992417072E-03  4.8376120276908E-01
   113  1.1200000000000E+00 -5.1916471676406E-03  3.9726393455221E-01
   114  1.1300000000000E+00 -3.3638403783370E-03  3.1662751299958E-01
   115  1.1400000000000E+00 -2.0915694033098E-03  2.4308655328589E-01
   116  1.1500000000000E+00 -1.2404678665485E-03  1.7775215465642E-01
   117  1.1600000000000E+00 -7.0881129580300E-04  1.2153833357000E-01
   118  1.1700000000000E+00 -3.8991949772697E-04  7.5295862484399E-02
   119  1.1800000000000E+00 -1.9890606675791E-04  3.9714268363214E-02
   120  1.1900000000000E+00 -8.1289170388282E-05  1.5288849623234E-02
   121  1.2000000000000E+00 -1.4157558179859E-05  2.3201222709528E-03
   122  1.2100000000000E+00  9.2961419369709E-07 -1.3642245658129E-04
   123  1.2200000000000E+00 -8.6783713336329E-08  1.3445984452773E-05
   124  1.23 -0.  0.
   125  1.24  0.  0.
   126  1.25  0.  0.
   127  1.26  0.  0.
   128  1.27  0.  0.
   129  1.28  0.  0.
   130  1.29  0.  0.
   131  1.30  0.  0.
   132  1.31  0.  0.
   133  1.32  0.  0.
   134  1.33  0.  0.
   135  1.34  0.  0.
   136  1.35  0.  0.
   137  1.36  0.  0.
   138  1.37  0.  0.
   139  1.38  0.  0.
   140  1.39  0.  0.
   141  1.40  0.  0.
   142  1.41  0.  0.
   143  1.42  0.  0.
   144  1.43  0.  0.
   145  1.44  0.  0.
   146  1.45  0.  0.
   147  1.46  0.  0.
   148  1.47  0.  0.
   149  1.48  0.  0.
   150  1.49  0.  0.
   151  1.50  0.  0.
   152  1.51  0.  0.
   153  1.52  0.  0.
   154  1.53  0.  0.
   155  1.54  0.  0.
   156  1.55  0.  0.
   157  1.56  0.  0.
   158  1.57  0.  0.
   159  1.58  0.  0.
   160  1.59  0.  0.
   161  1.60  0.  0.
   162  1.61  0.  0.
   163  1.62  0.  0.
   164  1.63  0.  0.
   165  1.64  0.  0.
   166  1.65  0.  0.
   167  1.66  0.  0.
   168  1.67  0.  0.
   169  1.68  0.  0.
   170  1.69  0.  0.
   171  1.70  0.  0.
   172  1.71  0.  0.
   173  1.72  0.  0.
   174  1.73  0.  0.
   175  1.74  0.  0.
   176  1.75  0.  0.
   177  1.76  0.  0.
   178  1.77  0.  0.
   179  1.78  0.  0.
   180  1.79  0.  0.
   181  1.80  0.  0.
   182  1.81  0.  0.
   183  1.82  0.  0.
   184  1.83  0.  0.
   185  1.84  0.  0.
   186  1.85  0.  0.
   187  1.86  0.  0.
   188  1.87  0.  0.
   189  1.88  0.  0.
   190  1.89  0.  0.
   191  1.90  0.  0.
   192  1.91  0.  0.
   193  1.92  0.  0.
   194  1.93  0.  0.
   195  1.94  0.  0.
   196  1.95  0.  0.
   197  1.96  0.  0.
   198  1.97  0.  0.
   199  1.98  0.  0.
   200  1.99  0.  0.
   201  2.00  0.  0.
   202  2.01  0.  0.
   203  2.02  0.  0.
   204  2.03  0.  0.
   205  2.04  0.  0.
   206  2.05  0.  0.
   207  2.06  0.  0.
   208  2.07  0.  0.
   209  2.08  0.  0.
   210  2.09  0.  0.
   211  2.10  0.  0.
   212  2.11  0.  0.
   213  2.12  0.  0.
   214  2.13  0.  0.
   215  2.14  0.  0.
   216  2.15  0.  0.
   217  2.16  0.  0.
   218  2.17  0.  0.
   219  2.18  0.  0.
   220  2.19  0.  0.
   221  2.20  0.  0.
   222  2.21  0.  0.
   223  2.22  0.  0.
   224  2.23  0.  0.
   225  2.24  0.  0.
   226  2.25  0.  0.
   227  2.26  0.  0.
   228  2.27  0.  0.
   229  2.28  0.  0.
   230  2.29  0.  0.
   231  2.30  0.  0.
   232  2.31  0.  0.
   233  2.32  0.  0.
   234  2.33  0.  0.
   235  2.34  0.  0.
   236  2.35  0.  0.
   237  2.36  0.  0.
   238  2.37  0.  0.
   239  2.38  0.  0.
   240  2.39  0.  0.
   241  2.40  0.  0.
   242  2.41  0.  0.
   243  2.42  0.  0.
   244  2.43  0.  0.
   245  2.44  0.  0.
   246  2.45  0.  0.
   247  2.46  0.  0.
   248  2.47  0.  0.
   249  2.48  0.  0.
   250  2.49  0.  0.
   251  2.50  0.  0.
   252  2.51  0.  0.
   253  2.52  0.  0.
   254  2.53  0.  0.
   255  2.54  0.  0.
   256  2.55  0.  0.
   257  2.56  0.  0.
   258  2.57  0.  0.
   259  2.58  0.  0.
   260  2.59  0.  0.
   261  2.60  0.  0.
   262  2.61  0.  0.
   263  2.62  0.  0.
   264  2.63  0.  0.
   265  2.64  0.  0.
   266  2.65  0.  0.
   267  2.66  0.  0.
   268  2.67  0.  0.
   269  2.68  0.  0.
   270  2.69  0.  0.
   271  2.70  0.  0.
   272  2.71  0.  0.
   273  2.72  0.  0.
   274  2.73  0.  0.
   275  2.74  0.  0.
   276  2.75  0.  0.
   277  2.76  0.  0.
   278  2.77  0.  0.
   279  2.78  0.  0.
   280  2.79  0.  0.
   281  2.80  0.  0.
   282  2.81  0.  0.
   283  2.82  0.  0.
   284  2.83  0.  0.
   285  2.84  0.  0.
   286  2.85  0.  0.
   287  2.86  0.  0.
   288  2.87  0.  0.
   289  2.88  0.  0.
   290  2.89  0.  0.
   291  2.90  0.  0.
   292  2.91  0.  0.
   293  2.92  0.  0.
   294  2.93  0.  0.
   295  2.94  0.  0.
   296  2.95  0.  0.
   297  2.96  0.  0.
   298  2.97  0.  0.
   299  2.98  0.  0.
   300  2.99  0.  0.
   301  3.00  0.  0.
   302  3.01  0.  0.
   303  3.02  0.  0.
   304  3.03  0.  0.
   305  3.04  0.  0.
   306  3.05  0.  0.
   307  3.06  0.  0.
   308  3.07  0.  0.
   309  3.08  0.  0.
   310  3.09  0.  0.
   311  3.10  0.  0.
   312  3.11  0.  0.
   313  3.12  0.  0.
   314  3.13  0.  0.
   315  3.14  0.  0.
   316  3.15  0.  0.
   317  3.16  0.  0.
   318  3.17  0.  0.
   319  3.18  0.  0.
   320  3.19  0.  0.
   321  3.20  0.  0.
   322  3.21  0.  0.
   323  3.22  0.  0.
   324  3.23  0.  0.
   325  3.24  0.  0.
   326  3.25  0.  0.
   327  3.26  0.  0.
   328  3.27  0.  0.
   329  3.28  0.  0.
   330  3.29  0.  0.
   331  3.30  0.  0.
   332  3.31  0.  0.
   333  3.32  0.  0.
   334  3.33  0.  0.
   335  3.34  0.  0.
   336  3.35  0.  0.
   337  3.36  0.  0.
   338  3.37  0.  0.
   339  3.38  0.  0.
   340  3.39  0.  0.
   341  3.40  0.  0.
   342  3.41  0.  0.
   343  3.42  0.  0.
   344  3.43  0.  0.
   345  3.44  0.  0.
   346  3.45  0.  0.
   347  3.46  0.  0.
   348  3.47  0.  0.
   349  3.48  0.  0.
   350  3.49  0.  0.
   351  3.50  0.  0.
   352  3.51  0.  0.
   353  3.52  0.  0.
   354  3.53  0.  0.
   355  3.54  0.  0.
   356  3.55  0.  0.
   357  3.56  0.  0.
   358  3.57  0.  0.
   359  3.58  0.  0.
   360  3.59  0.  0.
   361  3.60  0.  0.
   362  3.61  0.  0.
   363  3.62  0.  0.
   364  3.63  0.  0.
   365  3.64  0.  0.
   366  3.65  0.  0.
   367  3.66  0.  0.
   368  3.67  0.  0.
   369  3.68  0.  0.
   370  3.69  0.  0.
   371  3.70  0.  0.
   372  3.71  0.  0.
   373  3.72  0.  0.
   374  3.73  0.  0.
   375  3.74  0.  0.
   376  3.75  0.  0.
   377  3.76  0.  0.
   378  3.77  0.  0.
   379  3.78  0.  0.
   380  3.79  0.  0.
   381  3.80  0.  0.
   382  3.81  0.  0.
   383  3.82  0.  0.
   384  3.83  0.  0.
   385  3.84  0.  0.
   386  3.85  0.  0.
   387  3.86  0.  0.
   388  3.87  0.  0.
   389  3.88  0.  0.
   390  3.89  0.  0.
   391  3.90  0.  0.
   392  3.91  0.  0.
   393  3.92  0.  0.
   394  3.93  0.  0.
   395  3.94  0.  0.
   396  3.95  0.  0.
   397  3.96  0.  0.
   398  3.97  0.  0.
   399  3.98  0.  0.
   400  3.99  0.  0.
   401  4.00  0.  0.
   402  4.01  0.  0.
   403  4.02  0.  0.
   404  4.03  0.  0.
   405  4.04  0.  0.
   406  4.05  0.  0.
   407  4.06  0.  0.
   408  4.07  0.  0.
   409  4.08  0.  0.
   410  4.09  0.  0.
   411  4.10  0.  0.
   412  4.11  0.  0.
   413  4.12  0.  0.
   414  4.13  0.  0.
   415  4.14  0.  0.
   416  4.15  0.  0.
   417  4.16  0.  0.
   418  4.17  0.  0.
   419  4.18  0.  0.
   420  4.19  0.  0.
   421  4.20  0.  0.
   422  4.21  0.  0.
   423  4.22  0.  0.
   424  4.23  0.  0.
   425  4.24  0.  0.
   426  4.25  0.  0.
   427  4.26  0.  0.
   428  4.27  0.  0.
   429  4.28  0.  0.
   430  4.29  0.  0.
   431  4.30  0.  0.
   432  4.31  0.  0.
   433  4.32  0.  0.
   434  4.33  0.  0.
   435  4.34  0.  0.
   436  4.35  0.  0.
   437  4.36  0.  0.
   438  4.37  0.  0.
   439  4.38  0.  0.
   440  4.39  0.  0.
   441  4.40  0.  0.
   442  4.41  0.  0.
   443  4.42  0.  0.
   444  4.43  0.  0.
   445  4.44  0.  0.
   446  4.45  0.  0.
   447  4.46  0.  0.
   448  4.47  0.  0.
   449  4.48  0.  0.
   450  4.49  0.  0.
   451  4.50  0.  0.
   452  4.51  0.  0.
   453  4.52  0.  0.
   454  4.53  0.  0.
   455  4.54  0.  0.
   456  4.55  0.  0.
   457  4.56  0.  0.
   458  4.57  0.  0.
   459  4.58  0.  0.
   460  4.59  0.  0.
   461  4.60  0.  0.
   462  4.61  0.  0.
   463  4.62  0.  0.
   464  4.63  0.  0.
   465  4.64  0.  0.
   466  4.65  0.  0.
   467  4.66  0.  0.
   468  4.67  0.  0.
   469  4.68  0.  0.
   470  4.69  0.  0.
   471  4.70  0.  0.
   472  4.71  0.  0.
   473  4.72  0.  0.
   474  4.73  0.  0.
   475  4.74  0.  0.
   476  4.75  0.  0.
   477  4.76  0.  0.
   478  4.77  0.  0.
   479  4.78  0.  0.
   480  4.79  0.  0.
   481  4.80  0.  0.
   482  4.81  0.  0.
   483  4.82  0.  0.
   484  4.83  0.  0.
   485  4.84  0.  0.
   486  4.85  0.  0.
   487  4.86  0.  0.
   488  4.87  0.  0.
   489  4.88  0.  0.
   490  4.89  0.  0.
   491  4.90  0.  0.
   492  4.91  0.  0.
   493  4.92  0.  0.
   494  4.93  0.  0.
   495  4.94  0.  0.
   496  4.95  0.  0.
   497  4.96  0.  0.
   498  4.97  0.  0.
   499  4.98  0.  0.
   500  4.99  0.  0.
   501  5.00  0.  0.
   502  5.01  0.  0.
   503  5.02  0.  0.
   504  5.03  0.  0.
   505  5.04  0.  0.
   506  5.05  0.  0.
   507  5.06  0.  0.
   508  5.07  0.  0.
   509  5.08  0.  0.
   510  5.09  0.  0.
   511  5.10  0.  0.
   512  5.11  0.  0.
   513  5.12  0.  0.
   514  5.13  0.  0.
   515  5.14  0.  0.
   516  5.15  0.  0.
   517  5.16  0.  0.
   518  5.17  0.  0.
   519  5.18  0.  0.
   520  5.19  0.  0.
   521  5.20  0.  0.
   522  5.21  0.  0.
   523  5.22  0.  0.
   524  5.23  0.  0.
   525  5.24  0.  0.
   526  5.25  0.  0.
   527  5.26  0.  0.
   528  5.27  0.  0.
   529  5.28  0.  0.
   530  5.29  0.  0.
   531  5.30  0.  0.
   532  5.31  0.  0.
   533  5.32  0.  0.
   534  5.33  0.  0.
   535  5.34  0.  0.
   536  5.35  0.  0.
   537  5.36  0.  0.
   538  5.37  0.  0.
   539  5.38  0.  0.
   540  5.39  0.  0.
   541  5.40  0.  0.
   542  5.41  0.  0.
   543  5.42  0.  0.
   544  5.43  0.  0.
   545  5.44  0.  0.
   546  5.45  0.  0.
   547  5.46  0.  0.
   548  5.47  0.  0.
   549  5.48  0.  0.
   550  5.49  0.  0.
   551  5.50  0.  0.
   552  5.51  0.  0.
   553  5.52  0.  0.
   554  5.53  0.  0.
   555  5.54  0.  0.
   556  5.55  0.  0.
   557  5.56  0.  0.
   558  5.57  0.  0.
   559  5.58  0.  0.
   560  5.59  0.  0.
   561  5.60  0.  0.
   562  5.61  0.  0.
   563  5.62  0.  0.
   564  5.63  0.  0.
   565  5.64  0.  0.
   566  5.65  0.  0.
   567  5.66  0.  0.
   568  5.67  0.  0.
   569  5.68  0.  0.
   570  5.69  0.  0.
   571  5.70  0.  0.
   572  5.71  0.  0.
   573  5.72  0.  0.
   574  5.73  0.  0.
   575  5.74  0.  0.
   576  5.75  0.  0.
   577  5.76  0.  0.
   578  5.77  0.  0.
   579  5.78  0.  0.
   580  5.79  0.  0.
   581  5.80  0.  0.
   582  5.81  0.  0.
   583  5.82  0.  0.
   584  5.83  0.  0.
   585  5.84  0.  0.
   586  5.85  0.  0.
   587  5.86  0.  0.
   588  5.87  0.  0.
   589  5.88  0.  0.
   590  5.89  0.  0.
   591  5.90  0.  0.
   592  5.91  0.  0.
   593  5.92  0.  0.
   594  5.93  0.  0.
   595  5.94  0.  0.
   596  5.95  0.  0.
   597  5.96  0.  0.
   598  5.97  0.  0.
   599  5.98  0.  0.
   600  5.99  0.  0.
   1                        -3.0855466099882E+00 -3.3131720689395E-01
     1  0.0000000000000E+00 -3.1910496467447E-10 -1.2478170011154E-08
     2  1.0000000000000E-02  1.7654735301819E-03 -1.8814503507821E-03
     3  2.0000000000000E-02  7.0547274037377E-03 -7.5032101686400E-03
     4  3.0000000000000E-02  1.5846280938244E-02 -1.6797874978883E-02
     5  4.0000000000000E-02  2.8104398134261E-02 -2.9654327431180E-02
     6  5.0000000000000E-02  4.3779186221280E-02 -4.5919546974582E-02
     7  6.0000000000000E-02  6.2806735261335E-02 -6.5401092923034E-02
     8  7.0000000000000E-02  8.5109300360696E-02 -8.7870211578270E-02
     9  8.0000000000000E-02  1.1059552835912E-01 -1.1306550559885E-01
    10  9.0000000000000E-02  1.3916073109793E-01 -1.4069709250755E-01
    11  1.0000000000000E-01  1.7068720749894E-01 -1.7045116933637E-01
    12  1.1000000000000E-01  2.0504461670651E-01 -2.0199489213102E-01
    13  1.2000000000000E-01  2.4209040444674E-01 -2.3498147254088E-01
    14  1.3000000000000E-01  2.8167028454005E-01 -2.6905538917137E-01
    15  1.4000000000000E-01  3.2361877716568E-01 -3.0385760887635E-01
    16  1.5000000000000E-01  3.6775980502522E-01 -3.3903071281425E-01
    17  1.6000000000000E-01  4.1390734799526E-01 -3.7422382391525E-01
    18  1.7000000000000E-01  4.6186615620946E-01 -4.0909723642432E-01
    19  1.8000000000000E-01  5.1143252078305E-01 -4.4332665434958E-01
    20  1.9000000000000E-01  5.6239510060649E-01 -4.7660695388357E-01
    21  2.0000000000000E-01  6.1453580280961E-01 -5.0865539505005E-01
    22  2.1000000000000E-01  6.6763071365510E-01 -5.3921421979575E-01
    23  2.2000000000000E-01  7.2145107578365E-01 -5.6805258728919E-01
    24  2.3000000000000E-01  7.7576430692412E-01 -5.9496781205808E-01
    25  2.4000000000000E-01  8.3033505442459E-01 -6.1978588651072E-01
    26  2.5000000000000E-01  8.8492627927273E-01 -6.4236128603118E-01
    27  2.6000000000000E-01  9.3930036267821E-01 -6.6257607186764E-01
    28  2.7000000000000E-01  9.9322022779979E-01 -6.8033832408780E-01
    29  2.8000000000000E-01  1.0464504688304E+00 -6.9557995357105E-01
    30  2.9000000000000E-01  1.0987584794141E+00 -7.0825395796350E-01
    31  3.0000000000000E-01  1.1499155722665E+00 -7.1833120135206E-01
    32  3.1000000000000E-01  1.1996980819053E+00 -7.2579681073970E-01
    33  3.2000000000000E-01  1.2478884425708E+00 -7.3064629387492E-01
    34  3.3000000000000E-01  1.2942762337206E+00 -7.3288149226907E-01
    35  3.4000000000000E-01  1.3386591859088E+00 -7.3250649003708E-01
    36  3.5000000000000E-01  1.3808441403942E+00 -7.2952360326944E-01
    37  3.6000000000000E-01  1.4206479564516E+00 -7.2392957579418E-01
    38  3.7000000000000E-01  1.4578983610619E+00 -7.1571210527863E-01
    39  3.8000000000000E-01  1.4924347364146E+00 -7.0484681858691E-01
    40  3.9000000000000E-01  1.5241088414454E+00 -6.9129480715115E-01
    41  4.0000000000000E-01  1.5527854644320E+00 -6.7500082190908E-01
    42  4.1000000000000E-01  1.5783430044603E+00 -6.5589221326233E-01
    43  4.2000000000000E-01  1.6006739803262E+00 -6.3387868474537E-01
    44  4.3000000000000E-01  1.6196854661471E+00 -6.0885290996947E-01
    45  4.4000000000000E-01  1.6352994535826E+00 -5.8069204129153E-01
    46  4.5000000000000E-01  1.6474531411214E+00 -5.4926011598811E-01
    47  4.6000000000000E-01  1.6560991513387E+00 -5.1441134198972E-01
    48  4.7000000000000E-01  1.6612056773809E+00 -4.7599422098088E-01
    49  4.8000000000000E-01  1.6627565601795E+00 -4.3385644247925E-01
    50  4.9000000000000E-01  1.6607512980276E+00 -3.8785045896526E-01
    51  5.0000000000000E-01  1.6552049901929E+00 -3.3783962984877E-01
    52  5.1000000000000E-01  1.6461482161769E+00 -2.8370480163321E-01
    53  5.2000000000000E-01  1.6336268520910E+00 -2.2535117364451E-01
    54  5.3000000000000E-01  1.6177018254121E+00 -1.6271528367892E-01
    55  5.4000000000000E-01  1.5984488091230E+00 -9.5771936375995E-02
    56  5.5000000000000E-01  1.5759578559609E+00 -2.4540889466799E-02
    57  5.6000000000000E-01  1.5503329732030E+00  5.0906890374597E-02
    58  5.7000000000000E-01  1.5216916381465E+00  1.3044358928008E-01
    59  5.8000000000000E-01  1.4901642542003E+00  2.1387970703682E-01
    60  5.9000000000000E-01  1.4558935473321E+00  3.0096018814668E-01
    61  6.0000000000000E-01  1.4190339025151E+00  3.9136167921000E-01
    62  6.1000000000000E-01  1.3797506398202E+00  4.8469104932852E-01
    63  6.2000000000000E-01  1.3382192299109E+00  5.8048528668915E-01
    64  6.3000000000000E-01  1.2946244489344E+00  6.7821285725956E-01
    65  6.4000000000000E-01  1.2491594731660E+00  7.7727658112565E-01
    66  6.5000000000000E-01  1.2020249142601E+00  8.7701804905006E-01
    67  6.6000000000000E-01  1.1534277965880E+00  9.7672356703875E-01
    68  6.7000000000000E-01  1.1035804788903E+00  1.0756315808493E+00
    69  6.8000000000000E-01  1.0526995233281E+00  1.1729414962842E+00
    70  6.9000000000000E-01  1.0010045159722E+00  1.2678237756578E+00
    71  7.0000000000000E-01  9.4871684378992E-01  1.3594311568765E+00
    72  7.1000000000000E-01  8.9605843426633E-01  1.4469108100023E+00
    73  7.2000000000000E-01  8.4325046488829E-01  1.5294172178155E+00
    74  7.3000000000000E-01  7.9051205080730E-01  1.6061255425366E+00
    75  7.4000000000000E-01  7.3805892004366E-01  1.6762452212302E+00
    76  7.5000000000000E-01  6.8610208656976E-01  1.7390335180969E+00
    77  7.6000000000000E-01  6.3484653248393E-01  1.7938087533814E+00
    78  7.7000000000000E-01  5.8448991122708E-01  1.8399629263554E+00
    79  7.8000000000000E-01  5.3522128437475E-01  1.8769734540044E+00
    80  7.9000000000000E-01  4.8721990493274E-01  1.9044137577495E+00
    81  8.0000000000000E-01  4.4065406025431E-01  1.9219624476838E+00
    82  8.1000000000000E-01  3.9567998766341E-01  1.9294108771737E+00
    83  8.2000000000000E-01  3.5244087560249E-01  1.9266688698715E+00
    84  8.3000000000000E-01  3.1106596261735E-01  1.9137684556622E+00
    85  8.4000000000000E-01  2.7166974574608E-01  1.8908654911414E+00
    86  8.5000000000000E-01  2.3435130890138E-01  1.8582390830791E+00
    87  8.6000000000000E-01  1.9919378063590E-01  1.8162887790376E+00
    88  8.7000000000000E-01  1.6626392927754E-01  1.7655295368661E+00
    89  8.8000000000000E-01  1.3561190183842E-01  1.7065845331148E+00
    90  8.9000000000000E-01  1.0727111136551E-01  1.6401759183651E+00
    91  9.0000000000000E-01  8.1258275544206E-02  1.5671136739309E+00
    92  9.1000000000000E-01  5.7573607423964E-02  1.4882827682275E+00
    93  9.2000000000000E-01  3.6201157144822E-02  1.4046288512434E+00
    94  9.3000000000000E-01  1.7109301544449E-02  1.3171427609903E+00
    95  9.4000000000000E-01  2.5137655623582E-04  1.2268441456280E+00
    96  9.5000000000000E-01 -1.4433554590810E-02  1.1347645283782E+00
    97  9.6000000000000E-01 -2.7019806153200E-02  1.0419301587148E+00
    98  9.7000000000000E-01 -3.7594058070711E-02  9.4934500215372E-01
    99  9.8000000000000E-01 -4.6254239496928E-02  8.5797422197242E-01
   100  9.9000000000000E-01 -5.3108320861124E-02  7.6872849923877E-01
   101  1.0000000000000E+00 -5.8273028721463E-02  6.8244952269596E-01
   102  1.0100000000000E+00 -6.1872498494244E-02  5.9989695760426E-01
   103  1.0200000000000E+00 -6.4036880721206E-02  5.2173717306091E-01
   104  1.0300000000000E+00 -6.4900916862800E-02  4.4853397118789E-01
   105  1.0400000000000E+00 -6.4602500680418E-02  3.8074151975732E-01
   106  1.0500000000000E+00 -6.3281241104304E-02  3.1869964328202E-01
   107  1.0600000000000E+00 -6.1077042086936E-02  2.6263157728275E-01
   108  1.0700000000000E+00 -5.8128714335088E-02  2.1264423774769E-01
   109  1.0800000000000E+00 -5.4572633018952E-02  1.6873100378624E-01
   110  1.0900000000000E+00 -5.0541454599146E-02  1.3077695749006E-01
   111  1.1000000000000E+00 -4.6162904826788E-02  9.8566472504806E-02
   112  1.1100000000000E+00 -4.1558648780433E-02  7.1792992706011E-02
   113  1.1200000000000E+00 -3.6843252552218E-02  5.0070796382626E-02
   114  1.1300000000000E+00 -3.2123244901239E-02  3.2948500032490E-02
   115  1.1400000000000E+00 -2.7496285903906E-02  1.9924020828206E-02
   116  1.1500000000000E+00 -2.3050448360773E-02  1.0460688403372E-02
   117  1.1600000000000E+00 -1.8863616513456E-02  4.0041759484338E-03
   118  1.1700000000000E+00 -1.5003008156754E-02 -6.4853139433684E-08
   119  1.1800000000000E+00 -1.1524795908343E-02 -2.0894966857704E-03
   120  1.1900000000000E+00 -8.4727946980677E-03 -2.7780737577503E-03
   121  1.2000000000000E+00 -5.8614894433315E-03 -2.7137731945570E-03
   122  1.2100000000000E+00 -3.7161730178545E-03 -2.2543675336672E-03
   123  1.2200000000000E+00 -2.0610909554980E-03 -1.5727817350385E-03
   124  1.2300000000000E+00 -9.0224677559179E-04 -8.4409224866017E-04
   125  1.2400000000000E+00 -2.2437615139004E-04 -2.5267346034318E-04
   126  1.2500000000000E+00 -1.8151763723809E-06 -2.5221018502837E-06
   127  1.2600000000000E+00 -1.4404893748067E-06 -1.8646365505652E-06
   128  1.2700000000000E+00  2.7993653402142E-07  3.3243649652989E-07
   129  1.28  0.  0.
   130  1.29  0.  0.
   131  1.30  0.  0.
   132  1.31  0.  0.
   133  1.32  0.  0.
   134  1.33  0.  0.
   135  1.34  0.  0.
   136  1.35  0.  0.
   137  1.36  0.  0.
   138  1.37  0.  0.
   139  1.38  0.  0.
   140  1.39  0.  0.
   141  1.40  0.  0.
   142  1.41  0.  0.
   143  1.42  0.  0.
   144  1.43  0.  0.
   145  1.44  0.  0.
   146  1.45  0.  0.
   147  1.46  0.  0.
   148  1.47  0.  0.
   149  1.48  0.  0.
   150  1.49  0.  0.
   151  1.50  0.  0.
   152  1.51  0.  0.
   153  1.52  0.  0.
   154  1.53  0.  0.
   155  1.54  0.  0.
   156  1.55  0.  0.
   157  1.56  0.  0.
   158  1.57  0.  0.
   159  1.58  0.  0.
   160  1.59  0.  0.
   161  1.60  0.  0.
   162  1.61  0.  0.
   163  1.62  0.  0.
   164  1.63  0.  0.
   165  1.64  0.  0.
   166  1.65  0.  0.
   167  1.66  0.  0.
   168  1.67  0.  0.
   169  1.68  0.  0.
   170  1.69  0.  0.
   171  1.70  0.  0.
   172  1.71  0.  0.
   173  1.72  0.  0.
   174  1.73  0.  0.
   175  1.74  0.  0.
   176  1.75  0.  0.
   177  1.76  0.  0.
   178  1.77  0.  0.
   179  1.78  0.  0.
   180  1.79  0.  0.
   181  1.80  0.  0.
   182  1.81  0.  0.
   183  1.82  0.  0.
   184  1.83  0.  0.
   185  1.84  0.  0.
   186  1.85  0.  0.
   187  1.86  0.  0.
   188  1.87  0.  0.
   189  1.88  0.  0.
   190  1.89  0.  0.
   191  1.90  0.  0.
   192  1.91  0.  0.
   193  1.92  0.  0.
   194  1.93  0.  0.
   195  1.94  0.  0.
   196  1.95  0.  0.
   197  1.96  0.  0.
   198  1.97  0.  0.
   199  1.98  0.  0.
   200  1.99  0.  0.
   201  2.00  0.  0.
   202  2.01  0.  0.
   203  2.02  0.  0.
   204  2.03  0.  0.
   205  2.04  0.  0.
   206  2.05  0.  0.
   207  2.06  0.  0.
   208  2.07  0.  0.
   209  2.08  0.  0.
   210  2.09  0.  0.
   211  2.10  0.  0.
   212  2.11  0.  0.
   213  2.12  0.  0.
   214  2.13  0.  0.
   215  2.14  0.  0.
   216  2.15  0.  0.
   217  2.16  0.  0.
   218  2.17  0.  0.
   219  2.18  0.  0.
   220  2.19  0.  0.