Zn    ONCVPSP-4.0.1  r_core=   1.35529   1.65107   1.86091
     30.0000     20.0000      231019    zatom,zion,pspd
     8       2   2     4   600     0    pspcod,pspxc,lmax,lloc,mmax,r2well
  5.99000000  2.50000000  0.00000000    rchrg fchrg qchrg
     2     2     2     0     0    nproj
     1     1           extension_switch
   0                        -2.6408166798926E+00  2.2105841327161E+00
     1  0.0000000000000E+00  2.6360331140118E-09 -3.7998129753802E-08
     2  1.0000000000000E-02  3.9384360944184E-02  1.0209909486614E-01
     3  2.0000000000000E-02  7.8763170328646E-02  2.0352743942536E-01
     4  3.0000000000000E-02  1.1813012337595E-01  3.0362562239826E-01
     5  4.0000000000000E-02  1.5747743191392E-01  4.0175658549107E-01
     6  5.0000000000000E-02  1.9679513956634E-01  4.9731599751935E-01
     7  6.0000000000000E-02  2.3607050323327E-01  5.8974169421321E-01
     8  7.0000000000000E-02  2.7528745973056E-01  6.7852191883102E-01
     9  8.0000000000000E-02  3.1442619382164E-01  7.6320213670681E-01
    10  9.0000000000000E-02  3.5346282073804E-01  8.4339024203033E-01
    11  1.0000000000000E-01  3.9236919274423E-01  9.1876002606866E-01
    12  1.1000000000000E-01  4.3111283546990E-01  9.8905283105869E-01
    13  1.2000000000000E-01  4.6965701572666E-01  1.0540773713756E+00
    14  1.3000000000000E-01  5.0796093847298E-01  1.1137077614784E+00
    15  1.4000000000000E-01  5.4598006661687E-01  1.1678798466993E+00
    16  1.5000000000000E-01  5.8366655357504E-01  1.2165859863640E+00
    17  1.6000000000000E-01  6.2096977505779E-01  1.2598684872941E+00
    18  1.7000000000000E-01  6.5783694352947E-01  1.2978119278828E+00
    19  1.8000000000000E-01  6.9421378629829E-01  1.3305346472961E+00
    20  1.9000000000000E-01  7.3004526629685E-01  1.3581796998154E+00
    21  2.0000000000000E-01  7.6527632338343E-01  1.3809055900701E+00
    22  2.1000000000000E-01  7.9985261346453E-01  1.3988771103881E+00
    23  2.2000000000000E-01  8.3372122292701E-01  1.4122565965223E+00
    24  2.3000000000000E-01  8.6683133676858E-01  1.4211959027175E+00
    25  2.4000000000000E-01  8.9913484040023E-01  1.4258293719445E+00
    26  2.5000000000000E-01  9.3058683731388E-01  1.4262680429148E+00
    27  2.6000000000000E-01  9.6114606759376E-01  1.4225952932858E+00
    28  2.7000000000000E-01  9.9077521551345E-01  1.4148640695972E+00
    29  2.8000000000000E-01  1.0194410980996E+00  1.4030958005046E+00
    30  2.9000000000000E-01  1.0471147304431E+00  1.3872810325133E+00
    31  3.0000000000000E-01  1.0737712675770E+00  1.3673817685062E+00
    32  3.1000000000000E-01  1.0993898267879E+00  1.3433354307929E+00
    33  3.2000000000000E-01  1.1239531981588E+00  1.3150603140879E+00
    34  3.3000000000000E-01  1.1474474548275E+00  1.2824623415777E+00
    35  3.4000000000000E-01  1.1698614777716E+00  1.2454428907744E+00
    36  3.5000000000000E-01  1.1911864127894E+00  1.2039074167162E+00
    37  3.6000000000000E-01  1.2114150796445E+00  1.1577745695730E+00
    38  3.7000000000000E-01  1.2305413550044E+00  1.1069854828943E+00
    39  3.8000000000000E-01  1.2485595517776E+00  1.0515128983371E+00
    40  3.9000000000000E-01  1.2654638176982E+00  9.9136979315499E-01
    41  4.0000000000000E-01  1.2812475755215E+00  9.2661718808063E-01
    42  4.1000000000000E-01  1.2959030259769E+00  8.5737083522853E-01
    43  4.2000000000000E-01  1.3094207327257E+00  7.8380651765956E-01
    44  4.3000000000000E-01  1.3217893060294E+00  7.0616373335527E-01
    45  4.4000000000000E-01  1.3329951987432E+00  6.2474758530796E-01
    46  4.5000000000000E-01  1.3430226246901E+00  5.3992875475681E-01
    47  4.6000000000000E-01  1.3518536055614E+00  4.5214149457937E-01
    48  4.7000000000000E-01  1.3594681483432E+00  3.6187964262072E-01
    49  4.8000000000000E-01  1.3658445510256E+00  2.6969071833387E-01
    50  4.9000000000000E-01  1.3709598301285E+00  1.7616822850441E-01
    51  5.0000000000000E-01  1.3747902595254E+00  8.1942367045078E-02
    52  5.1000000000000E-01  1.3773120062802E+00 -1.2330652037162E-02
    53  5.2000000000000E-01  1.3785018458566E+00 -1.0598034214526E-01
    54  5.3000000000000E-01  1.3783379362268E+00 -1.9833444688650E-01
    55  5.4000000000000E-01  1.3768006281783E+00 -2.8873184389640E-01
    56  5.5000000000000E-01  1.3738732875838E+00 -3.7653547711827E-01
    57  5.6000000000000E-01  1.3695431045975E+00 -4.6114493811094E-01
    58  5.7000000000000E-01  1.3638018647134E+00 -5.4200832190462E-01
    59  5.8000000000000E-01  1.3566466573679E+00 -6.1863299964566E-01
    60  5.9000000000000E-01  1.3480804992784E+00 -6.9059497837283E-01
    61  6.0000000000000E-01  1.3381128519357E+00 -7.5754655699486E-01
    62  6.1000000000000E-01  1.3267600155489E+00 -8.1922203579836E-01
    63  6.2000000000000E-01  1.3140453851996E+00 -8.7544129320627E-01
    64  6.3000000000000E-01  1.2999995588823E+00 -9.2611110636017E-01
    65  6.4000000000000E-01  1.2846602913863E+00 -9.7122415952856E-01
    66  6.5000000000000E-01  1.2680722924725E+00 -1.0108557543009E+00
    67  6.6000000000000E-01  1.2502868723835E+00 -1.0451583058650E+00
    68  6.7000000000000E-01  1.2313614422564E+00 -1.0743537782053E+00
    69  6.8000000000000E-01  1.2113588813437E+00 -1.0987242756542E+00
    70  6.9000000000000E-01  1.1903467869557E+00 -1.1186010668296E+00
    71  7.0000000000000E-01  1.1683966265920E+00 -1.1343523677200E+00
    72  7.1000000000000E-01  1.1455828147168E+00 -1.1463702518798E+00
    73  7.2000000000000E-01  1.1219817389575E+00 -1.1550570859790E+00
    74  7.3000000000000E-01  1.0976707620932E+00 -1.1608119072787E+00
    75  7.4000000000000E-01  1.0727272269990E+00 -1.1640171652482E+00
    76  7.5000000000000E-01  1.0472274916814E+00 -1.1650262422186E+00
    77  7.6000000000000E-01  1.0212460206949E+00 -1.1641521477294E+00
    78  7.7000000000000E-01  9.9485455757007E-01 -1.1616577485753E+00
    79  7.8000000000000E-01  9.6812140047119E-01 -1.1577478523470E+00
    80  7.9000000000000E-01  9.4111080019405E-01 -1.1525634077195E+00
    81  8.0000000000000E-01  9.1388249591183E-01 -1.1461780214359E+00
    82  8.1000000000000E-01  8.8649139988278E-01 -1.1385969217011E+00
    83  8.2000000000000E-01  8.5898743777641E-01 -1.1297584226254E+00
    84  8.3000000000000E-01  8.3141554649227E-01 -1.1195378666789E+00
    85  8.4000000000000E-01  8.0381582648252E-01 -1.1077539441954E+00
    86  8.5000000000000E-01  7.7622384079548E-01 -1.0941772131735E+00
    87  8.6000000000000E-01  7.4867104848054E-01 -1.0785405713152E+00
    88  8.7000000000000E-01  7.2118535577719E-01 -1.0605513676444E+00
    89  8.8000000000000E-01  6.9379176478564E-01 -1.0399047852211E+00
    90  8.9000000000000E-01  6.6651309620061E-01 -1.0162980812121E+00
    91  9.0000000000000E-01  6.3937076028539E-01 -9.8944523740654E-01
    92  9.1000000000000E-01  6.1238554864859E-01 -9.5909155433816E-01
    93  9.2000000000000E-01  5.8557841861701E-01 -9.2502771625173E-01
    94  9.3000000000000E-01  5.5897124210613E-01 -8.8710286259519E-01
    95  9.4000000000000E-01  5.3258749187705E-01 -8.4523622444563E-01
    96  9.5000000000000E-01  5.0645283991455E-01 -7.9942692078691E-01
    97  9.6000000000000E-01  4.8059564531253E-01 -7.4976155890052E-01
    98  9.7000000000000E-01  4.5504731243996E-01 -6.9641934401337E-01
    99  9.8000000000000E-01  4.2984250418180E-01 -6.3967447404931E-01
   100  9.9000000000000E-01  4.0501919958968E-01 -5.7989567388197E-01
   101  1.0000000000000E+00  3.8061859019981E-01 -5.1754280758110E-01
   102  1.0100000000000E+00  3.5668481443643E-01 -4.5316059440905E-01
   103  1.0200000000000E+00  3.3326453476105E-01 -3.8736954213395E-01
   104  1.0300000000000E+00  3.1040636738865E-01 -3.2085429695732E-01
   105  1.0400000000000E+00  2.8816017931828E-01 -2.5434969048721E-01
   106  1.0500000000000E+00  2.6657627196379E-01 -1.8862483824580E-01
   107  1.0600000000000E+00  2.4570447467099E-01 -1.2446570879296E-01
   108  1.0700000000000E+00  2.2559317475695E-01 -6.2656635850384E-02
   109  1.0800000000000E+00  2.0628831328292E-01 -3.9612859083002E-03
   110  1.0900000000000E+00  1.8783237749660E-01  5.0896380513123E-02
   111  1.1000000000000E+00  1.7026342168780E-01  1.0125060548610E-01
   112  1.1100000000000E+00  1.5361414806095E-01  1.4651124524777E-01
   113  1.1200000000000E+00  1.3791107812618E-01  1.8617957529363E-01
   114  1.1300000000000E+00  1.2317384308363E-01  2.1986200432882E-01
   115  1.1400000000000E+00  1.0941461875075E-01  2.4728126394917E-01
   116  1.1500000000000E+00  9.6637726869132E-02  2.6828470532396E-01
   117  1.1600000000000E+00  8.4839420183664E-02  2.8284941043240E-01
   118  1.1700000000000E+00  7.4007863694822E-02  2.9108391048397E-01
   119  1.1800000000000E+00  6.4123319008149E-02  2.9322639697974E-01
   120  1.1900000000000E+00  5.5158533000170E-02  2.8963940714299E-01
   121  1.2000000000000E+00  4.7079326133320E-02  2.8080106443361E-01
   122  1.2100000000000E+00  3.9845369976916E-02  2.6729305167921E-01
   123  1.2200000000000E+00  3.3411137894599E-02  2.4978558792440E-01
   124  1.2300000000000E+00  2.7727007664578E-02  2.2901976672223E-01
   125  1.2400000000000E+00  2.2740490158334E-02  2.0578769080488E-01
   126  1.2500000000000E+00  1.8397554211386E-02  1.8091090432656E-01
   127  1.2600000000000E+00  1.4644014664135E-02  1.5521767609847E-01
   128  1.2700000000000E+00  1.1426948755166E-02  1.2951971015209E-01
   129  1.2800000000000E+00  8.6960995051416E-03  1.0458900068683E-01
   130  1.2900000000000E+00  6.4053151728212E-03  8.1132775991080E-02
   131  1.3000000000000E+00  4.5143460643972E-03  5.9746778756651E-02
   132  1.3100000000000E+00  2.9879024871038E-03  4.0973379978234E-02
   133  1.3200000000000E+00  1.7995244689997E-03  2.5194180554580E-02
   134  1.3300000000000E+00  9.2228389704295E-04  1.2984388742047E-02
   135  1.3400000000000E+00  3.3751328926946E-04  4.7383281642203E-03
   136  1.3500000000000E+00  4.3985249909832E-05  6.1091138856163E-04
   137  1.3600000000000E+00 -4.0666611052958E-06 -5.3328414611954E-05
   138  1.3700000000000E+00  7.3651306984054E-07  9.8847434846763E-06
   139  1.38  0. -0.
   140  1.39  0.  0.
   141  1.40  0.  0.
   142  1.41  0.  0.
   143  1.42  0.  0.
   144  1.43  0.  0.
   145  1.44  0.  0.
   146  1.45  0.  0.
   147  1.46  0.  0.
   148  1.47  0.  0.
   149  1.48  0.  0.
   150  1.49  0.  0.
   151  1.50  0.  0.
   152  1.51  0.  0.
   153  1.52  0.  0.
   154  1.53  0.  0.
   155  1.54  0.  0.
   156  1.55  0.  0.
   157  1.56  0.  0.
   158  1.57  0.  0.
   159  1.58  0.  0.
   160  1.59  0.  0.
   161  1.60  0.  0.
   162  1.61  0.  0.
   163  1.62  0.  0.
   164  1.63  0.  0.
   165  1.64  0.  0.
   166  1.65  0.  0.
   167  1.66  0.  0.
   168  1.67  0.  0.
   169  1.68  0.  0.
   170  1.69  0.  0.
   171  1.70  0.  0.
   172  1.71  0.  0.
   173  1.72  0.  0.
   174  1.73  0.  0.
   175  1.74  0.  0.
   176  1.75  0.  0.
   177  1.76  0.  0.
   178  1.77  0.  0.
   179  1.78  0.  0.
   180  1.79  0.  0.
   181  1.80  0.  0.
   182  1.81  0.  0.
   183  1.82  0.  0.
   184  1.83  0.  0.
   185  1.84  0.  0.
   186  1.85  0.  0.
   187  1.86  0.  0.
   188  1.87  0.  0.
   189  1.88  0.  0.
   190  1.89  0.  0.
   191  1.90  0.  0.
   192  1.91  0.  0.
   193  1.92  0.  0.
   194  1.93  0.  0.
   195  1.94  0.  0.
   196  1.95  0.  0.
   197  1.96  0.  0.
   198  1.97  0.  0.
   199  1.98  0.  0.
   200  1.99  0.  0.
   201  2.00  0.  0.
   202  2.01  0.  0.
   203  2.02  0.  0.
   204  2.03  0.  0.
   205  2.04  0.  0.
   206  2.05  0.  0.
   207  2.06  0.  0.
   208  2.07  0.  0.
   209  2.08  0.  0.
   210  2.09  0.  0.
   211  2.10  0.  0.
   212  2.11  0.  0.
   213  2.12  0.  0.
   214  2.13  0.  0.
   215  2.14  0.  0.
   216  2.15  0.  0.
   217  2.16  0.  0.
   218  2.17  0.  0.
   219  2.18  0.  0.
   220  2.19  0.  0.
   221  2.20  0.  0.
   222  2.21  0.  0.
   223  2.22  0.  0.
   224  2.23  0.  0.
   225  2.24  0.  0.
   226  2.25  0.  0.
   227  2.26  0.  0.
   228  2.27  0.  0.
   229  2.28  0.  0.
   230  2.29  0.  0.
   231  2.30  0.  0.
   232  2.31  0.  0.
   233  2.32  0.  0.
   234  2.33  0.  0.
   235  2.34  0.  0.
   236  2.35  0.  0.
   237  2.36  0.  0.
   238  2.37  0.  0.
   239  2.38  0.  0.
   240  2.39  0.  0.
   241  2.40  0.  0.
   242  2.41  0.  0.
   243  2.42  0.  0.
   244  2.43  0.  0.
   245  2.44  0.  0.
   246  2.45  0.  0.
   247  2.46  0.  0.
   248  2.47  0.  0.
   249  2.48  0.  0.
   250  2.49  0.  0.
   251  2.50  0.  0.
   252  2.51  0.  0.
   253  2.52  0.  0.
   254  2.53  0.  0.
   255  2.54  0.  0.
   256  2.55  0.  0.
   257  2.56  0.  0.
   258  2.57  0.  0.
   259  2.58  0.  0.
   260  2.59  0.  0.
   261  2.60  0.  0.
   262  2.61  0.  0.
   263  2.62  0.  0.
   264  2.63  0.  0.
   265  2.64  0.  0.
   266  2.65  0.  0.
   267  2.66  0.  0.
   268  2.67  0.  0.
   269  2.68  0.  0.
   270  2.69  0.  0.
   271  2.70  0.  0.
   272  2.71  0.  0.
   273  2.72  0.  0.
   274  2.73  0.  0.
   275  2.74  0.  0.
   276  2.75  0.  0.
   277  2.76  0.  0.
   278  2.77  0.  0.
   279  2.78  0.  0.
   280  2.79  0.  0.
   281  2.80  0.  0.
   282  2.81  0.  0.
   283  2.82  0.  0.
   284  2.83  0.  0.
   285  2.84  0.  0.
   286  2.85  0.  0.
   287  2.86  0.  0.
   288  2.87  0.  0.
   289  2.88  0.  0.
   290  2.89  0.  0.
   291  2.90  0.  0.
   292  2.91  0.  0.
   293  2.92  0.  0.
   294  2.93  0.  0.
   295  2.94  0.  0.
   296  2.95  0.  0.
   297  2.96  0.  0.
   298  2.97  0.  0.
   299  2.98  0.  0.
   300  2.99  0.  0.
   301  3.00  0.  0.
   302  3.01  0.  0.
   303  3.02  0.  0.
   304  3.03  0.  0.
   305  3.04  0.  0.
   306  3.05  0.  0.
   307  3.06  0.  0.
   308  3.07  0.  0.
   309  3.08  0.  0.
   310  3.09  0.  0.
   311  3.10  0.  0.
   312  3.11  0.  0.
   313  3.12  0.  0.
   314  3.13  0.  0.
   315  3.14  0.  0.
   316  3.15  0.  0.
   317  3.16  0.  0.
   318  3.17  0.  0.
   319  3.18  0.  0.
   320  3.19  0.  0.
   321  3.20  0.  0.
   322  3.21  0.  0.
   323  3.22  0.  0.
   324  3.23  0.  0.
   325  3.24  0.  0.
   326  3.25  0.  0.
   327  3.26  0.  0.
   328  3.27  0.  0.
   329  3.28  0.  0.
   330  3.29  0.  0.
   331  3.30  0.  0.
   332  3.31  0.  0.
   333  3.32  0.  0.
   334  3.33  0.  0.
   335  3.34  0.  0.
   336  3.35  0.  0.
   337  3.36  0.  0.
   338  3.37  0.  0.
   339  3.38  0.  0.
   340  3.39  0.  0.
   341  3.40  0.  0.
   342  3.41  0.  0.
   343  3.42  0.  0.
   344  3.43  0.  0.
   345  3.44  0.  0.
   346  3.45  0.  0.
   347  3.46  0.  0.
   348  3.47  0.  0.
   349  3.48  0.  0.
   350  3.49  0.  0.
   351  3.50  0.  0.
   352  3.51  0.  0.
   353  3.52  0.  0.
   354  3.53  0.  0.
   355  3.54  0.  0.
   356  3.55  0.  0.
   357  3.56  0.  0.
   358  3.57  0.  0.
   359  3.58  0.  0.
   360  3.59  0.  0.
   361  3.60  0.  0.
   362  3.61  0.  0.
   363  3.62  0.  0.
   364  3.63  0.  0.
   365  3.64  0.  0.
   366  3.65  0.  0.
   367  3.66  0.  0.
   368  3.67  0.  0.
   369  3.68  0.  0.
   370  3.69  0.  0.
   371  3.70  0.  0.
   372  3.71  0.  0.
   373  3.72  0.  0.
   374  3.73  0.  0.
   375  3.74  0.  0.
   376  3.75  0.  0.
   377  3.76  0.  0.
   378  3.77  0.  0.
   379  3.78  0.  0.
   380  3.79  0.  0.
   381  3.80  0.  0.
   382  3.81  0.  0.
   383  3.82  0.  0.
   384  3.83  0.  0.
   385  3.84  0.  0.
   386  3.85  0.  0.
   387  3.86  0.  0.
   388  3.87  0.  0.
   389  3.88  0.  0.
   390  3.89  0.  0.
   391  3.90  0.  0.
   392  3.91  0.  0.
   393  3.92  0.  0.
   394  3.93  0.  0.
   395  3.94  0.  0.
   396  3.95  0.  0.
   397  3.96  0.  0.
   398  3.97  0.  0.
   399  3.98  0.  0.
   400  3.99  0.  0.
   401  4.00  0.  0.
   402  4.01  0.  0.
   403  4.02  0.  0.
   404  4.03  0.  0.
   405  4.04  0.  0.
   406  4.05  0.  0.
   407  4.06  0.  0.
   408  4.07  0.  0.
   409  4.08  0.  0.
   410  4.09  0.  0.
   411  4.10  0.  0.
   412  4.11  0.  0.
   413  4.12  0.  0.
   414  4.13  0.  0.
   415  4.14  0.  0.
   416  4.15  0.  0.
   417  4.16  0.  0.
   418  4.17  0.  0.
   419  4.18  0.  0.
   420  4.19  0.  0.
   421  4.20  0.  0.
   422  4.21  0.  0.
   423  4.22  0.  0.
   424  4.23  0.  0.
   425  4.24  0.  0.
   426  4.25  0.  0.
   427  4.26  0.  0.
   428  4.27  0.  0.
   429  4.28  0.  0.
   430  4.29  0.  0.
   431  4.30  0.  0.
   432  4.31  0.  0.
   433  4.32  0.  0.
   434  4.33  0.  0.
   435  4.34  0.  0.
   436  4.35  0.  0.
   437  4.36  0.  0.
   438  4.37  0.  0.
   439  4.38  0.  0.
   440  4.39  0.  0.
   441  4.40  0.  0.
   442  4.41  0.  0.
   443  4.42  0.  0.
   444  4.43  0.  0.
   445  4.44  0.  0.
   446  4.45  0.  0.
   447  4.46  0.  0.
   448  4.47  0.  0.
   449  4.48  0.  0.
   450  4.49  0.  0.
   451  4.50  0.  0.
   452  4.51  0.  0.
   453  4.52  0.  0.
   454  4.53  0.  0.
   455  4.54  0.  0.
   456  4.55  0.  0.
   457  4.56  0.  0.
   458  4.57  0.  0.
   459  4.58  0.  0.
   460  4.59  0.  0.
   461  4.60  0.  0.
   462  4.61  0.  0.
   463  4.62  0.  0.
   464  4.63  0.  0.
   465  4.64  0.  0.
   466  4.65  0.  0.
   467  4.66  0.  0.
   468  4.67  0.  0.
   469  4.68  0.  0.
   470  4.69  0.  0.
   471  4.70  0.  0.
   472  4.71  0.  0.
   473  4.72  0.  0.
   474  4.73  0.  0.
   475  4.74  0.  0.
   476  4.75  0.  0.
   477  4.76  0.  0.
   478  4.77  0.  0.
   479  4.78  0.  0.
   480  4.79  0.  0.
   481  4.80  0.  0.
   482  4.81  0.  0.
   483  4.82  0.  0.
   484  4.83  0.  0.
   485  4.84  0.  0.
   486  4.85  0.  0.
   487  4.86  0.  0.
   488  4.87  0.  0.
   489  4.88  0.  0.
   490  4.89  0.  0.
   491  4.90  0.  0.
   492  4.91  0.  0.
   493  4.92  0.  0.
   494  4.93  0.  0.
   495  4.94  0.  0.
   496  4.95  0.  0.
   497  4.96  0.  0.
   498  4.97  0.  0.
   499  4.98  0.  0.
   500  4.99  0.  0.
   501  5.00  0.  0.
   502  5.01  0.  0.
   503  5.02  0.  0.
   504  5.03  0.  0.
   505  5.04  0.  0.
   506  5.05  0.  0.
   507  5.06  0.  0.
   508  5.07  0.  0.
   509  5.08  0.  0.
   510  5.09  0.  0.
   511  5.10  0.  0.
   512  5.11  0.  0.
   513  5.12  0.  0.
   514  5.13  0.  0.
   515  5.14  0.  0.
   516  5.15  0.  0.
   517  5.16  0.  0.
   518  5.17  0.  0.
   519  5.18  0.  0.
   520  5.19  0.  0.
   521  5.20  0.  0.
   522  5.21  0.  0.
   523  5.22  0.  0.
   524  5.23  0.  0.
   525  5.24  0.  0.
   526  5.25  0.  0.
   527  5.26  0.  0.
   528  5.27  0.  0.
   529  5.28  0.  0.
   530  5.29  0.  0.
   531  5.30  0.  0.
   532  5.31  0.  0.
   533  5.32  0.  0.
   534  5.33  0.  0.
   535  5.34  0.  0.
   536  5.35  0.  0.
   537  5.36  0.  0.
   538  5.37  0.  0.
   539  5.38  0.  0.
   540  5.39  0.  0.
   541  5.40  0.  0.
   542  5.41  0.  0.
   543  5.42  0.  0.
   544  5.43  0.  0.
   545  5.44  0.  0.
   546  5.45  0.  0.
   547  5.46  0.  0.
   548  5.47  0.  0.
   549  5.48  0.  0.
   550  5.49  0.  0.
   551  5.50  0.  0.
   552  5.51  0.  0.
   553  5.52  0.  0.
   554  5.53  0.  0.
   555  5.54  0.  0.
   556  5.55  0.  0.
   557  5.56  0.  0.
   558  5.57  0.  0.
   559  5.58  0.  0.
   560  5.59  0.  0.
   561  5.60  0.  0.
   562  5.61  0.  0.
   563  5.62  0.  0.
   564  5.63  0.  0.
   565  5.64  0.  0.
   566  5.65  0.  0.
   567  5.66  0.  0.
   568  5.67  0.  0.
   569  5.68  0.  0.
   570  5.69  0.  0.
   571  5.70  0.  0.
   572  5.71  0.  0.
   573  5.72  0.  0.
   574  5.73  0.  0.
   575  5.74  0.  0.
   576  5.75  0.  0.
   577  5.76  0.  0.
   578  5.77  0.  0.
   579  5.78  0.  0.
   580  5.79  0.  0.
   581  5.80  0.  0.
   582  5.81  0.  0.
   583  5.82  0.  0.
   584  5.83  0.  0.
   585  5.84  0.  0.
   586  5.85  0.  0.
   587  5.86  0.  0.
   588  5.87  0.  0.
   589  5.88  0.  0.
   590  5.89  0.  0.
   591  5.90  0.  0.
   592  5.91  0.  0.
   593  5.92  0.  0.
   594  5.93  0.  0.
   595  5.94  0.  0.
   596  5.95  0.  0.
   597  5.96  0.  0.
   598  5.97  0.  0.
   599  5.98  0.  0.
   600  5.99  0.  0.
   1                        -5.8544824464010E+00 -1.5961945125689E+00
     1  0.0000000000000E+00  1.0181213511151E-09 -4.1785029880614E-09
     2  1.0000000000000E-02  1.5649377816720E-03 -1.3129213565281E-03
     3  2.0000000000000E-02  6.2529720727550E-03 -5.2404252675549E-03
     4  3.0000000000000E-02  1.4043810126992E-02 -1.1748863529101E-02
     5  4.0000000000000E-02  2.4903778141474E-02 -2.0782594147818E-02
     6  5.0000000000000E-02  3.8786040292833E-02 -3.2264629965564E-02
     7  6.0000000000000E-02  5.5630901184614E-02 -4.6097529159237E-02
     8  7.0000000000000E-02  7.5366187610950E-02 -6.2164510541546E-02
     9  8.0000000000000E-02  9.7907704523557E-02 -8.0330772409923E-02
    10  9.0000000000000E-02  1.2315975917992E-01 -1.0044499001436E-01
    11  1.0000000000000E-01  1.5101574666909E-01 -1.2234096362555E-01
    12  1.1000000000000E-01  1.8135878937337E-01 -1.4583938675430E-01
    13  1.2000000000000E-01  2.1406242244197E-01 -1.7074970235638E-01
    14  1.3000000000000E-01  2.4899131703434E-01 -1.9687201389212E-01
    15  1.4000000000000E-01  2.8600203294209E-01 -2.2399901791596E-01
    16  1.5000000000000E-01  3.2494379221874E-01 -2.5191792544847E-01
    17  1.6000000000000E-01  3.6565926563305E-01 -2.8041234071305E-01
    18  1.7000000000000E-01  4.0798536410760E-01 -3.0926406786495E-01
    19  1.8000000000000E-01  4.5175402779730E-01 -3.3825481904614E-01
    20  1.9000000000000E-01  4.9679300608940E-01 -3.6716780039546E-01
    21  2.0000000000000E-01  5.4292662254819E-01 -3.9578915644315E-01
    22  2.1000000000000E-01  5.8997651966541E-01 -4.2390925752495E-01
    23  2.2000000000000E-01  6.3776237918675E-01 -4.5132381935527E-01
    24  2.3000000000000E-01  6.8610261474316E-01 -4.7783484858536E-01
    25  2.4000000000000E-01  7.3481503449727E-01 -5.0325141292264E-01
    26  2.5000000000000E-01  7.8371747249395E-01 -5.2739023907780E-01
    27  2.6000000000000E-01  8.3262838835533E-01 -5.5007614631908E-01
    28  2.7000000000000E-01  8.8136743585945E-01 -5.7114232763107E-01
    29  2.8000000000000E-01  9.2975600176490E-01 -5.9043049429112E-01
    30  2.9000000000000E-01  9.7761771697104E-01 -6.0779090299177E-01
    31  3.0000000000000E-01  1.0247789427151E+00 -6.2308228736642E-01
    32  3.1000000000000E-01  1.0710692349898E+00 -6.3617171784786E-01
    33  3.2000000000000E-01  1.1163217907030E+00 -6.4693441514947E-01
    34  3.3000000000000E-01  1.1603738792930E+00 -6.5525354327249E-01
    35  3.4000000000000E-01  1.2030672635430E+00 -6.6102000779059E-01
    36  3.5000000000000E-01  1.2442486132197E+00 -6.6413228424818E-01
    37  3.6000000000000E-01  1.2837699148897E+00 -6.6449629985378E-01
    38  3.7000000000000E-01  1.3214888808478E+00 -6.6202538929329E-01
    39  3.8000000000000E-01  1.3572693595483E+00 -6.5664034249196E-01
    40  3.9000000000000E-01  1.3909817492642E+00 -6.4826955859177E-01
    41  4.0000000000000E-01  1.4225034159385E+00 -6.3684931637586E-01
    42  4.1000000000000E-01  1.4517191153547E+00 -6.2232416696642E-01
    43  4.2000000000000E-01  1.4785214188595E+00 -6.0464744996211E-01
    44  4.3000000000000E-01  1.5028111409572E+00 -5.8378192938808E-01
    45  4.4000000000000E-01  1.5244977661683E+00 -5.5970054103187E-01
    46  4.5000000000000E-01  1.5434998716533E+00 -5.3238723806153E-01
    47  4.6000000000000E-01  1.5597455412582E+00 -5.0183791739404E-01
    48  4.7000000000000E-01  1.5731727658671E+00 -4.6806140522508E-01
    49  4.8000000000000E-01  1.5837298242850E+00 -4.3108047655931E-01
    50  4.9000000000000E-01  1.5913756383244E+00 -3.9093288059658E-01
    51  5.0000000000000E-01  1.5960800953705E+00 -3.4767234152494E-01
    52  5.1000000000000E-01  1.5978243314490E+00 -3.0136950271806E-01
    53  5.2000000000000E-01  1.5966009677452E+00 -2.5211278159099E-01
    54  5.3000000000000E-01  1.5924142936234E+00 -2.0000910246916E-01
    55  5.4000000000000E-01  1.5852803894720E+00 -1.4518447578851E-01
    56  5.5000000000000E-01  1.5752271831633E+00 -8.7784393763846E-02
    57  5.6000000000000E-01  1.5622944345510E+00 -2.7974015312155E-02
    58  5.7000000000000E-01  1.5465336432265E+00  3.4061883549828E-02
    59  5.8000000000000E-01  1.5280078757102E+00  9.8119213466525E-02
    60  5.9000000000000E-01  1.5067915093358E+00  1.6397514451778E-01
    61  6.0000000000000E-01  1.4829698912877E+00  2.3138895755686E-01
    62  6.1000000000000E-01  1.4566389125343E+00  3.0010317794881E-01
    63  6.2000000000000E-01  1.4279044977497E+00  3.6984498955107E-01
    64  6.3000000000000E-01  1.3968820136953E+00  4.4032792064237E-01
    65  6.4000000000000E-01  1.3636955999156E+00  5.1125378737056E-01
    66  6.5000000000000E-01  1.3284774269544E+00  5.8231487430288E-01
    67  6.6000000000000E-01  1.2913668885931E+00  6.5319632596738E-01
    68  6.7000000000000E-01  1.2525097358179E+00  7.2357871801165E-01
    69  6.8000000000000E-01  1.2120571613081E+00  7.9314077190716E-01
    70  6.9000000000000E-01  1.1701648441851E+00  8.6156217311525E-01
    71  7.0000000000000E-01  1.1269919655379E+00  9.2852644940933E-01
    72  7.1000000000000E-01  1.0827002058331E+00  9.9372386370731E-01
    73  7.2000000000000E-01  1.0374527357075E+00  1.0568542743779E+00
    74  7.3000000000000E-01  9.9141321182121E-01  1.1176299155930E+00
    75  7.4000000000000E-01  9.4474478940294E-01  1.1757780509295E+00
    76  7.5000000000000E-01  8.9760916286045E-01  1.2310434550835E+00
    77  7.6000000000000E-01  8.5016564534536E-01  1.2831906812202E+00
    78  7.7000000000000E-01  8.0257029747220E-01  1.3320060751039E+00
    79  7.8000000000000E-01  7.5497511450435E-01  1.3772995016593E+00
    80  7.9000000000000E-01  7.0752728025369E-01  1.4189057549256E+00
    81  8.0000000000000E-01  6.6036849471816E-01  1.4566856283555E+00
    82  8.1000000000000E-01  6.1363438112713E-01  1.4905266289721E+00
    83  8.2000000000000E-01  5.6745397660778E-01  1.5203433258659E+00
    84  8.3000000000000E-01  5.2194930915737E-01  1.5460773307551E+00
    85  8.4000000000000E-01  4.7723506204004E-01  1.5676969156732E+00
    86  8.5000000000000E-01  4.3341832515594E-01  1.5851962801242E+00
    87  8.6000000000000E-01  3.9059843139071E-01  1.5985944870961E+00
    88  8.7000000000000E-01  3.4886687447704E-01  1.6079340939777E+00
    89  8.8000000000000E-01  3.0830730352167E-01  1.6132795105344E+00
    90  8.9000000000000E-01  2.6899558809944E-01  1.6147151215110E+00
    91  9.0000000000000E-01  2.3099994672057E-01  1.6123432160277E+00
    92  9.1000000000000E-01  1.9438113056068E-01  1.6062817695921E+00
    93  9.2000000000000E-01  1.5919265362698E-01  1.5966621271848E+00
    94  9.3000000000000E-01  1.2548106003329E-01  1.5836266374181E+00
    95  9.4000000000000E-01  9.3286218782097E-02  1.5673262881641E+00
    96  9.5000000000000E-01  6.2641636409483E-02  1.5479183933003E+00
    97  9.6000000000000E-01  3.3574778037912E-02  1.5255643783146E+00
    98  9.7000000000000E-01  6.1073877977101E-03  1.5004277095045E+00
    99  9.8000000000000E-01 -1.9744199790311E-02  1.4726720074424E+00
   100  9.9000000000000E-01 -4.3968765047220E-02  1.4424593803585E+00
   101  1.0000000000000E+00 -6.6559931549300E-02  1.4099490072230E+00
   102  1.0100000000000E+00 -8.7515923123711E-02  1.3752959937174E+00
   103  1.0200000000000E+00 -1.0683935353819E-01  1.3386505171264E+00
   104  1.0300000000000E+00 -1.2453705161433E-01  1.3001572686200E+00
   105  1.0400000000000E+00 -1.4061992305303E-01  1.2599551936056E+00
   106  1.0500000000000E+00 -1.5510284879619E-01  1.2181775229901E+00
   107  1.0600000000000E+00 -1.6800461830136E-01  1.1749520805052E+00
   108  1.0700000000000E+00 -1.7934789470659E-01  1.1304018438738E+00
   109  1.0800000000000E+00 -1.8915920755254E-01  1.0846457307354E+00
   110  1.0900000000000E+00 -1.9746896753994E-01  1.0377995740634E+00
   111  1.1000000000000E+00 -2.0431149676137E-01  9.8997724643888E-01
   112  1.1100000000000E+00 -2.0972506699165E-01  9.4129188816599E-01
   113  1.1200000000000E+00 -2.1375193796666E-01  8.9185719089507E-01
   114  1.1300000000000E+00 -2.1643838715238E-01  8.4178868629620E-01
   115  1.1400000000000E+00 -2.1783472231378E-01  7.9120498843240E-01
   116  1.1500000000000E+00 -2.1799526824649E-01  7.4022893887119E-01
   117  1.1600000000000E+00 -2.1697831933770E-01  6.8898860525723E-01
   118  1.1700000000000E+00 -2.1484605016668E-01  6.3761808700031E-01
   119  1.1800000000000E+00 -2.1166437714132E-01  5.8625808591148E-01
   120  1.1900000000000E+00 -2.0750276516318E-01  5.3505620488175E-01
   121  1.2000000000000E+00 -2.0243397452092E-01  4.8416694404841E-01
   122  1.2100000000000E+00 -1.9653374458017E-01  4.3375137106941E-01
   123  1.2200000000000E+00 -1.8988041235821E-01  3.8397645008608E-01
   124  1.2300000000000E+00 -1.8255446569834E-01  3.3501402246186E-01
   125  1.2400000000000E+00 -1.7463803244940E-01  2.8703944122346E-01
   126  1.2500000000000E+00 -1.6621430879232E-01  2.4022987021339E-01
   127  1.2600000000000E+00 -1.5736693156699E-01  1.9476226792255E-01
   128  1.2700000000000E+00 -1.4817930112108E-01  1.5081108472283E-01
   129  1.2800000000000E+00 -1.3873386278012E-01  1.0854571052057E-01
   130  1.2900000000000E+00 -1.2911135257310E-01  6.8127692390165E-02
   131  1.3000000000000E+00 -1.1939001612412E-01  2.9707762013080E-02
   132  1.3100000000000E+00 -1.0964603385713E-01 -6.5694586031160E-03
   133  1.3200000000000E+00 -9.9946667800764E-02 -4.0607267278697E-02
   134  1.3300000000000E+00 -9.0383888794750E-02 -7.2142023836027E-02
   135  1.3400000000000E+00 -8.1042635700892E-02 -1.0094756918844E-01
   136  1.3500000000000E+00 -7.1989162468769E-02 -1.2690636961961E-01
   137  1.3600000000000E+00 -6.3288891043053E-02 -1.4989333227302E-01
   138  1.3700000000000E+00 -5.5000041138624E-02 -1.6981503942134E-01
   139  1.3800000000000E+00 -4.7173434163065E-02 -1.8660956689907E-01
   140  1.3900000000000E+00 -3.9852064019699E-02 -2.0024800241882E-01
   141  1.4000000000000E+00 -3.3070764364367E-02 -2.1073556068287E-01
   142  1.4100000000000E+00 -2.6855988019633E-02 -2.1811220295724E-01
   143  1.4200000000000E+00 -2.1225704040361E-02 -2.2245273138259E-01
   144  1.4300000000000E+00 -1.6189415930435E-02 -2.2386633798198E-01
   145  1.4400000000000E+00 -1.1748302385236E-02 -2.2249559869293E-01