Zn    ONCVPSP-4.0.1  r_core=   1.35529   1.65107   1.86091
     30.0000     20.0000      250217    zatom,zion,pspd
     8       2   2     4   600     0    pspcod,pspxc,lmax,lloc,mmax,r2well
  5.99000000  2.50000000  0.00000000    rchrg fchrg qchrg
     2     2     2     0    nproj
     3     1           extension_switch
     3     2     0    nprojso
   0                        -2.6343958574414E+00  2.2129996459142E+00
     1  0.0000000000000E+00  2.6262019781065E-09 -3.7894701931940E-08
     2  1.0000000000000E-02  3.9328744272517E-02  1.0207391992575E-01
     3  2.0000000000000E-02  7.8652068088467E-02  2.0347810655694E-01
     4  3.0000000000000E-02  1.1796379939901E-01  3.0355413756741E-01
     5  4.0000000000000E-02  1.5725628593399E-01  4.0166588837284E-01
     6  5.0000000000000E-02  1.9651971178824E-01  4.9720988079093E-01
     7  6.0000000000000E-02  2.3574148007585E-01  5.8962469989552E-01
     8  7.0000000000000E-02  2.7490568045963E-01  6.7839921490232E-01
     9  8.0000000000000E-02  3.1399265773733E-01  7.6307937781903E-01
    10  9.0000000000000E-02  3.5297869454024E-01  8.4327341864345E-01
    11  1.0000000000000E-01  3.9183581767286E-01  9.1865530666461E-01
    12  1.1000000000000E-01  4.3053173380324E-01  9.8896640229310E-01
    13  1.2000000000000E-01  4.6902989622293E-01  1.0540152810665E+00
    14  1.3000000000000E-01  5.0728970035629E-01  1.1136757692151E+00
    15  1.4000000000000E-01  5.4526680173962E-01  1.1678832865842E+00
    16  1.5000000000000E-01  5.8291354643257E-01  1.2166296459867E+00
    17  1.6000000000000E-01  6.2017950038746E-01  1.2599565064898E+00
    18  1.7000000000000E-01  6.5701206129248E-01  1.2979477201691E+00
    19  1.8000000000000E-01  6.9335713391743E-01  1.3307208461274E+00
    20  1.9000000000000E-01  7.2915984810341E-01  1.3584181309754E+00
    21  2.0000000000000E-01  7.6436529731034E-01  1.3811972706578E+00
    22  2.1000000000000E-01  7.9891927510653E-01  1.3992222739783E+00
    23  2.2000000000000E-01  8.3276898717060E-01  1.4126547432173E+00
    24  2.3000000000000E-01  8.6586371727101E-01  1.4216458719876E+00
    25  2.4000000000000E-01  8.9815542726596E-01  1.4263294354032E+00
    26  2.5000000000000E-01  9.2959927337610E-01  1.4268160135192E+00
    27  2.6000000000000E-01  9.6015402375594E-01  1.4231886469089E+00
    28  2.7000000000000E-01  9.8978236563952E-01  1.4155000745106E+00
    29  2.8000000000000E-01  1.0184510939602E+00  1.4037716500493E+00
    30  2.9000000000000E-01  1.0461311772290E+00  1.3879939761306E+00
    31  3.0000000000000E-01  1.0727977004774E+00  1.3681292363531E+00
    32  3.1000000000000E-01  1.0984296891053E+00  1.3441151473816E+00
    33  3.2000000000000E-01  1.1230098213866E+00  1.3158703967541E+00
    34  3.3000000000000E-01  1.1465240410628E+00  1.2833013800888E+00
    35  3.4000000000000E-01  1.1689610847663E+00  1.2463100050227E+00
    36  3.5000000000000E-01  1.1903119418647E+00  1.2048022901789E+00
    37  3.6000000000000E-01  1.2105692666094E+00  1.1586974570431E+00
    38  3.7000000000000E-01  1.2297267641299E+00  1.1079371918610E+00
    39  3.8000000000000E-01  1.2477785727848E+00  1.0524947442998E+00
    40  3.9000000000000E-01  1.2647186656301E+00  9.9238353005624E-01
    41  4.0000000000000E-01  1.2805402932821E+00  9.2766491591655E-01
    42  4.1000000000000E-01  1.2952354892415E+00  8.5845488770519E-01
    43  4.2000000000000E-01  1.3087946568571E+00  7.8492933349079E-01
    44  4.3000000000000E-01  1.3212062545775E+00  7.0732771541131E-01
    45  4.4000000000000E-01  1.3324565930616E+00  6.2595495230792E-01
    46  4.5000000000000E-01  1.3425297541744E+00  5.4118139053156E-01
    47  4.6000000000000E-01  1.3514076380036E+00  4.5344080010607E-01
    48  4.7000000000000E-01  1.3590701399007E+00  3.6322639603489E-01
    49  4.8000000000000E-01  1.3654954553263E+00  2.7108494796110E-01
    50  4.9000000000000E-01  1.3706605060709E+00  1.7760910362277E-01
    51  5.0000000000000E-01  1.3745414773892E+00  8.3428110601049E-02
    52  5.1000000000000E-01  1.3771144518279E+00 -1.0802825168484E-02
    53  5.2000000000000E-01  1.3783561221886E+00 -1.0441425852187E-01
    54  5.3000000000000E-01  1.3782445632388E+00 -1.9673497750854E-01
    55  5.4000000000000E-01  1.3767600395671E+00 -2.8710487582321E-01
    56  5.5000000000000E-01  1.3738858254452E+00 -3.7488785363644E-01
    57  5.6000000000000E-01  1.3696090117575E+00 -4.5948436839505E-01
    58  5.7000000000000E-01  1.3639212750316E+00 -5.4034326209620E-01
    59  5.8000000000000E-01  1.3568195843394E+00 -6.1697250821315E-01
    60  5.9000000000000E-01  1.3483068233425E+00 -6.8894854947645E-01
    61  6.0000000000000E-01  1.3383923069642E+00 -7.5592393633601E-01
    62  6.1000000000000E-01  1.3270921750454E+00 -8.1763302406040E-01
    63  6.2000000000000E-01  1.3144296487726E+00 -8.7389554266860E-01
    64  6.3000000000000E-01  1.3004351395780E+00 -9.2461791657576E-01
    65  6.4000000000000E-01  1.2851462044647E+00 -9.6979227808343E-01
    66  6.5000000000000E-01  1.2686073461919E+00 -1.0094931886170E+00
    67  6.6000000000000E-01  1.2508696613194E+00 -1.0438721517645E+00
    68  6.7000000000000E-01  1.2319903436241E+00 -1.0731500705309E+00
    69  6.8000000000000E-01  1.2120320547202E+00 -1.0976078656453E+00
    70  6.9000000000000E-01  1.1910621777083E+00 -1.1175755302076E+00
    71  7.0000000000000E-01  1.1691519732186E+00 -1.1334199465559E+00
    72  7.1000000000000E-01  1.1463756601937E+00 -1.1455318323324E+00
    73  7.2000000000000E-01  1.1228094460726E+00 -1.1543122129276E+00
    74  7.3000000000000E-01  1.0985305326239E+00 -1.1601588357659E+00
    75  7.4000000000000E-01  1.0736161244744E+00 -1.1634529475288E+00
    76  7.5000000000000E-01  1.0481424673547E+00 -1.1645468481115E+00
    77  7.6000000000000E-01  1.0221839422461E+00 -1.1637526149301E+00
    78  7.7000000000000E-01  9.9581223996441E-01 -1.1613323586340E+00
    79  7.8000000000000E-01  9.6909563831925E-01 -1.1574903271854E+00
    80  7.9000000000000E-01  9.4209840089728E-01 -1.1523671208756E+00
    81  8.0000000000000E-01  9.1488031283485E-01 -1.1460362177087E+00
    82  8.1000000000000E-01  8.8749636477253E-01 -1.1385029385398E+00
    83  8.2000000000000E-01  8.5999659164967E-01 -1.1297059064797E+00
    84  8.3000000000000E-01  8.3242606823717E-01 -1.1195209776021E+00
    85  8.4000000000000E-01  8.0482505846638E-01 -1.1077675422766E+00
    86  8.5000000000000E-01  7.7722931083954E-01 -1.0942170208591E+00
    87  8.6000000000000E-01  7.4967048765037E-01 -1.0786033063475E+00
    88  8.7000000000000E-01  7.2217671154360E-01 -1.0606348421895E+00
    89  8.8000000000000E-01  6.9477320923145E-01 -1.0400079677402E+00
    90  8.9000000000000E-01  6.6748302908129E-01 -1.0164211187364E+00
    91  9.0000000000000E-01  6.4032780689164E-01 -9.8958943706544E-01
    92  9.1000000000000E-01  6.1332855256293E-01 -9.5925932422931E-01
    93  9.2000000000000E-01  5.8650642960054E-01 -9.2522246699571E-01
    94  9.3000000000000E-01  5.5988349949053E-01 -8.8732887214760E-01
    95  9.4000000000000E-01  5.3348340396777E-01 -8.4549846990669E-01
    96  9.5000000000000E-01  5.0733196002891E-01 -7.9973088201911E-01
    97  9.6000000000000E-01  4.8145764517813E-01 -7.5011299970385E-01
    98  9.7000000000000E-01  4.5589195376109E-01 -6.9682407738503E-01
    99  9.8000000000000E-01  4.3066960924133E-01 -6.4013811864587E-01
   100  9.9000000000000E-01  4.0582862178974E-01 -5.8042340918535E-01
   101  1.0000000000000E+00  3.8141018545446E-01 -5.1813913543249E-01
   102  1.0100000000000E+00  3.5745841431334E-01 -4.5382911450787E-01
   103  1.0200000000000E+00  3.3401992222655E-01 -3.8811274880190E-01
   104  1.0300000000000E+00  3.1114325594244E-01 -3.2167340394602E-01
   105  1.0400000000000E+00  2.8887819621260E-01 -2.5524448987404E-01
   106  1.0500000000000E+00  2.6727494608820E-01 -1.8959359853545E-01
   107  1.0600000000000E+00  2.4638322955253E-01 -1.2550511624685E-01
   108  1.0700000000000E+00  2.2625132697846E-01 -6.3761781831814E-02
   109  1.0800000000000E+00  2.0692507646466E-01 -5.1257016935744E-03
   110  1.0900000000000E+00  1.8844687182200E-01  4.9680641411572E-02
   111  1.1000000000000E+00  1.7085468878792E-01  9.9992838868233E-02
   112  1.1100000000000E+00  1.5418117090869E-01  1.4522192444405E-01
   113  1.1200000000000E+00  1.3845280543520E-01  1.8487014020752E-01
   114  1.1300000000000E+00  1.2368921756295E-01  2.1854461671838E-01
   115  1.1400000000000E+00  1.0990260843814E-01  2.4596853548676E-01
   116  1.1500000000000E+00  9.7097358658593E-02  2.6698940592858E-01
   117  1.1600000000000E+00  8.5269814578104E-02  2.8158416512455E-01
   118  1.1700000000000E+00  7.4408269756534E-02  2.8986089354631E-01
   119  1.1800000000000E+00  6.4493148449440E-02  2.9205703249705E-01
   120  1.1900000000000E+00  5.5497392355231E-02  2.8853408503432E-01
   121  1.2000000000000E+00  4.7387045980801E-02  2.7976888087050E-01
   122  1.2100000000000E+00  4.0122030239981E-02  2.6634158231273E-01
   123  1.2200000000000E+00  3.3657088330355E-02  2.4892070162896E-01
   124  1.2300000000000E+00  2.7942882765533E-02  2.2824548662425E-01
   125  1.2400000000000E+00  2.2927217822046E-02  2.0510610822394E-01
   126  1.2500000000000E+00  1.8556357687439E-02  1.8032214994457E-01
   127  1.2600000000000E+00  1.4776407455577E-02  1.5471995122558E-01
   128  1.2700000000000E+00  1.1534722326798E-02  1.2910937945213E-01
   129  1.2800000000000E+00  8.7813038592105E-03  1.0426074585610E-01
   130  1.2900000000000E+00  6.4702318405865E-03  8.0879815361627E-02
   131  1.3000000000000E+00  4.5614472701046E-03  5.9561208748478E-02
   132  1.3100000000000E+00  3.0198284529297E-03  4.0846311936799E-02
   133  1.3200000000000E+00  1.8190160849584E-03  2.5116435479609E-02
   134  1.3300000000000E+00  9.3230568742941E-04  1.2944551475480E-02
   135  1.3400000000000E+00  3.4117304469571E-04  4.7238180836473E-03
   136  1.3500000000000E+00  4.4460006543507E-05  6.0906058860285E-04
   137  1.3600000000000E+00 -4.1078527096395E-06 -5.3159825257126E-05
   138  1.3700000000000E+00  7.4414801952327E-07  9.8538485830696E-06
   139  1.38  0.  0.
   140  1.39  0.  0.
   141  1.40  0.  0.
   142  1.41  0.  0.
   143  1.42  0.  0.
   144  1.43  0.  0.
   145  1.44  0.  0.
   146  1.45  0.  0.
   147  1.46  0.  0.
   148  1.47  0.  0.
   149  1.48  0.  0.
   150  1.49  0.  0.
   151  1.50  0.  0.
   152  1.51  0.  0.
   153  1.52  0.  0.
   154  1.53  0.  0.
   155  1.54  0.  0.
   156  1.55  0.  0.
   157  1.56  0.  0.
   158  1.57  0.  0.
   159  1.58  0.  0.
   160  1.59  0.  0.
   161  1.60  0.  0.
   162  1.61  0.  0.
   163  1.62  0.  0.
   164  1.63  0.  0.
   165  1.64  0.  0.
   166  1.65  0.  0.
   167  1.66  0.  0.
   168  1.67  0.  0.
   169  1.68  0.  0.
   170  1.69  0.  0.
   171  1.70  0.  0.
   172  1.71  0.  0.
   173  1.72  0.  0.
   174  1.73  0.  0.
   175  1.74  0.  0.
   176  1.75  0.  0.
   177  1.76  0.  0.
   178  1.77  0.  0.
   179  1.78  0.  0.
   180  1.79  0.  0.
   181  1.80  0.  0.
   182  1.81  0.  0.
   183  1.82  0.  0.
   184  1.83  0.  0.
   185  1.84  0.  0.
   186  1.85  0.  0.
   187  1.86  0.  0.
   188  1.87  0.  0.
   189  1.88  0.  0.
   190  1.89  0.  0.
   191  1.90  0.  0.
   192  1.91  0.  0.
   193  1.92  0.  0.
   194  1.93  0.  0.
   195  1.94  0.  0.
   196  1.95  0.  0.
   197  1.96  0.  0.
   198  1.97  0.  0.
   199  1.98  0.  0.
   200  1.99  0.  0.
   201  2.00  0.  0.
   202  2.01  0.  0.
   203  2.02  0.  0.
   204  2.03  0.  0.
   205  2.04  0.  0.
   206  2.05  0.  0.
   207  2.06  0.  0.
   208  2.07  0.  0.
   209  2.08  0.  0.
   210  2.09  0.  0.
   211  2.10  0.  0.
   212  2.11  0.  0.
   213  2.12  0.  0.
   214  2.13  0.  0.
   215  2.14  0.  0.
   216  2.15  0.  0.
   217  2.16  0.  0.
   218  2.17  0.  0.
   219  2.18  0.  0.
   220  2.19  0.  0.
   221  2.20  0.  0.
   222  2.21  0.  0.
   223  2.22  0.  0.
   224  2.23  0.  0.
   225  2.24  0.  0.
   226  2.25  0.  0.
   227  2.26  0.  0.
   228  2.27  0.  0.
   229  2.28  0.  0.
   230  2.29  0.  0.
   231  2.30  0.  0.
   232  2.31  0.  0.
   233  2.32  0.  0.
   234  2.33  0.  0.
   235  2.34  0.  0.
   236  2.35  0.  0.
   237  2.36  0.  0.
   238  2.37  0.  0.
   239  2.38  0.  0.
   240  2.39  0.  0.
   241  2.40  0.  0.
   242  2.41  0.  0.
   243  2.42  0.  0.
   244  2.43  0.  0.
   245  2.44  0.  0.
   246  2.45  0.  0.
   247  2.46  0.  0.
   248  2.47  0.  0.
   249  2.48  0.  0.
   250  2.49  0.  0.
   251  2.50  0.  0.
   252  2.51  0.  0.
   253  2.52  0.  0.
   254  2.53  0.  0.
   255  2.54  0.  0.
   256  2.55  0.  0.
   257  2.56  0.  0.
   258  2.57  0.  0.
   259  2.58  0.  0.
   260  2.59  0.  0.
   261  2.60  0.  0.
   262  2.61  0.  0.
   263  2.62  0.  0.
   264  2.63  0.  0.
   265  2.64  0.  0.
   266  2.65  0.  0.
   267  2.66  0.  0.
   268  2.67  0.  0.
   269  2.68  0.  0.
   270  2.69  0.  0.
   271  2.70  0.  0.
   272  2.71  0.  0.
   273  2.72  0.  0.
   274  2.73  0.  0.
   275  2.74  0.  0.
   276  2.75  0.  0.
   277  2.76  0.  0.
   278  2.77  0.  0.
   279  2.78  0.  0.
   280  2.79  0.  0.
   281  2.80  0.  0.
   282  2.81  0.  0.
   283  2.82  0.  0.
   284  2.83  0.  0.
   285  2.84  0.  0.
   286  2.85  0.  0.
   287  2.86  0.  0.
   288  2.87  0.  0.
   289  2.88  0.  0.
   290  2.89  0.  0.
   291  2.90  0.  0.
   292  2.91  0.  0.
   293  2.92  0.  0.
   294  2.93  0.  0.
   295  2.94  0.  0.
   296  2.95  0.  0.
   297  2.96  0.  0.
   298  2.97  0.  0.
   299  2.98  0.  0.
   300  2.99  0.  0.
   301  3.00  0.  0.
   302  3.01  0.  0.
   303  3.02  0.  0.
   304  3.03  0.  0.
   305  3.04  0.  0.
   306  3.05  0.  0.
   307  3.06  0.  0.
   308  3.07  0.  0.
   309  3.08  0.  0.
   310  3.09  0.  0.
   311  3.10  0.  0.
   312  3.11  0.  0.
   313  3.12  0.  0.
   314  3.13  0.  0.
   315  3.14  0.  0.
   316  3.15  0.  0.
   317  3.16  0.  0.
   318  3.17  0.  0.
   319  3.18  0.  0.
   320  3.19  0.  0.
   321  3.20  0.  0.
   322  3.21  0.  0.
   323  3.22  0.  0.
   324  3.23  0.  0.
   325  3.24  0.  0.
   326  3.25  0.  0.
   327  3.26  0.  0.
   328  3.27  0.  0.
   329  3.28  0.  0.
   330  3.29  0.  0.
   331  3.30  0.  0.
   332  3.31  0.  0.
   333  3.32  0.  0.
   334  3.33  0.  0.
   335  3.34  0.  0.
   336  3.35  0.  0.
   337  3.36  0.  0.
   338  3.37  0.  0.
   339  3.38  0.  0.
   340  3.39  0.  0.
   341  3.40  0.  0.
   342  3.41  0.  0.
   343  3.42  0.  0.
   344  3.43  0.  0.
   345  3.44  0.  0.
   346  3.45  0.  0.
   347  3.46  0.  0.
   348  3.47  0.  0.
   349  3.48  0.  0.
   350  3.49  0.  0.
   351  3.50  0.  0.
   352  3.51  0.  0.
   353  3.52  0.  0.
   354  3.53  0.  0.
   355  3.54  0.  0.
   356  3.55  0.  0.
   357  3.56  0.  0.
   358  3.57  0.  0.
   359  3.58  0.  0.
   360  3.59  0.  0.
   361  3.60  0.  0.
   362  3.61  0.  0.
   363  3.62  0.  0.
   364  3.63  0.  0.
   365  3.64  0.  0.
   366  3.65  0.  0.
   367  3.66  0.  0.
   368  3.67  0.  0.
   369  3.68  0.  0.
   370  3.69  0.  0.
   371  3.70  0.  0.
   372  3.71  0.  0.
   373  3.72  0.  0.
   374  3.73  0.  0.
   375  3.74  0.  0.
   376  3.75  0.  0.
   377  3.76  0.  0.
   378  3.77  0.  0.
   379  3.78  0.  0.
   380  3.79  0.  0.
   381  3.80  0.  0.
   382  3.81  0.  0.
   383  3.82  0.  0.
   384  3.83  0.  0.
   385  3.84  0.  0.
   386  3.85  0.  0.
   387  3.86  0.  0.
   388  3.87  0.  0.
   389  3.88  0.  0.
   390  3.89  0.  0.
   391  3.90  0.  0.
   392  3.91  0.  0.
   393  3.92  0.  0.
   394  3.93  0.  0.
   395  3.94  0.  0.
   396  3.95  0.  0.
   397  3.96  0.  0.
   398  3.97  0.  0.
   399  3.98  0.  0.
   400  3.99  0.  0.
   401  4.00  0.  0.
   402  4.01  0.  0.
   403  4.02  0.  0.
   404  4.03  0.  0.
   405  4.04  0.  0.
   406  4.05  0.  0.
   407  4.06  0.  0.
   408  4.07  0.  0.
   409  4.08  0.  0.
   410  4.09  0.  0.
   411  4.10  0.  0.
   412  4.11  0.  0.
   413  4.12  0.  0.
   414  4.13  0.  0.
   415  4.14  0.  0.
   416  4.15  0.  0.
   417  4.16  0.  0.
   418  4.17  0.  0.
   419  4.18  0.  0.
   420  4.19  0.  0.
   421  4.20  0.  0.
   422  4.21  0.  0.
   423  4.22  0.  0.
   424  4.23  0.  0.
   425  4.24  0.  0.
   426  4.25  0.  0.
   427  4.26  0.  0.
   428  4.27  0.  0.
   429  4.28  0.  0.
   430  4.29  0.  0.
   431  4.30  0.  0.
   432  4.31  0.  0.
   433  4.32  0.  0.
   434  4.33  0.  0.
   435  4.34  0.  0.
   436  4.35  0.  0.
   437  4.36  0.  0.
   438  4.37  0.  0.
   439  4.38  0.  0.
   440  4.39  0.  0.
   441  4.40  0.  0.
   442  4.41  0.  0.
   443  4.42  0.  0.
   444  4.43  0.  0.
   445  4.44  0.  0.
   446  4.45  0.  0.
   447  4.46  0.  0.
   448  4.47  0.  0.
   449  4.48  0.  0.
   450  4.49  0.  0.
   451  4.50  0.  0.
   452  4.51  0.  0.
   453  4.52  0.  0.
   454  4.53  0.  0.
   455  4.54  0.  0.
   456  4.55  0.  0.
   457  4.56  0.  0.
   458  4.57  0.  0.
   459  4.58  0.  0.
   460  4.59  0.  0.
   461  4.60  0.  0.
   462  4.61  0.  0.
   463  4.62  0.  0.
   464  4.63  0.  0.
   465  4.64  0.  0.
   466  4.65  0.  0.
   467  4.66  0.  0.
   468  4.67  0.  0.
   469  4.68  0.  0.
   470  4.69  0.  0.
   471  4.70  0.  0.
   472  4.71  0.  0.
   473  4.72  0.  0.
   474  4.73  0.  0.
   475  4.74  0.  0.
   476  4.75  0.  0.
   477  4.76  0.  0.
   478  4.77  0.  0.
   479  4.78  0.  0.
   480  4.79  0.  0.
   481  4.80  0.  0.
   482  4.81  0.  0.
   483  4.82  0.  0.
   484  4.83  0.  0.
   485  4.84  0.  0.
   486  4.85  0.  0.
   487  4.86  0.  0.
   488  4.87  0.  0.
   489  4.88  0.  0.
   490  4.89  0.  0.
   491  4.90  0.  0.
   492  4.91  0.  0.
   493  4.92  0.  0.
   494  4.93  0.  0.
   495  4.94  0.  0.
   496  4.95  0.  0.
   497  4.96  0.  0.
   498  4.97  0.  0.
   499  4.98  0.  0.
   500  4.99  0.  0.
   501  5.00  0.  0.
   502  5.01  0.  0.
   503  5.02  0.  0.
   504  5.03  0.  0.
   505  5.04  0.  0.
   506  5.05  0.  0.
   507  5.06  0.  0.
   508  5.07  0.  0.
   509  5.08  0.  0.
   510  5.09  0.  0.
   511  5.10  0.  0.
   512  5.11  0.  0.
   513  5.12  0.  0.
   514  5.13  0.  0.
   515  5.14  0.  0.
   516  5.15  0.  0.
   517  5.16  0.  0.
   518  5.17  0.  0.
   519  5.18  0.  0.
   520  5.19  0.  0.
   521  5.20  0.  0.
   522  5.21  0.  0.
   523  5.22  0.  0.
   524  5.23  0.  0.
   525  5.24  0.  0.
   526  5.25  0.  0.
   527  5.26  0.  0.
   528  5.27  0.  0.
   529  5.28  0.  0.
   530  5.29  0.  0.
   531  5.30  0.  0.
   532  5.31  0.  0.
   533  5.32  0.  0.
   534  5.33  0.  0.
   535  5.34  0.  0.
   536  5.35  0.  0.
   537  5.36  0.  0.
   538  5.37  0.  0.
   539  5.38  0.  0.
   540  5.39  0.  0.
   541  5.40  0.  0.
   542  5.41  0.  0.
   543  5.42  0.  0.
   544  5.43  0.  0.
   545  5.44  0.  0.
   546  5.45  0.  0.
   547  5.46  0.  0.
   548  5.47  0.  0.
   549  5.48  0.  0.
   550  5.49  0.  0.
   551  5.50  0.  0.
   552  5.51  0.  0.
   553  5.52  0.  0.
   554  5.53  0.  0.
   555  5.54  0.  0.
   556  5.55  0.  0.
   557  5.56  0.  0.
   558  5.57  0.  0.
   559  5.58  0.  0.
   560  5.59  0.  0.
   561  5.60  0.  0.
   562  5.61  0.  0.
   563  5.62  0.  0.
   564  5.63  0.  0.
   565  5.64  0.  0.
   566  5.65  0.  0.
   567  5.66  0.  0.
   568  5.67  0.  0.
   569  5.68  0.  0.
   570  5.69  0.  0.
   571  5.70  0.  0.
   572  5.71  0.  0.
   573  5.72  0.  0.
   574  5.73  0.  0.
   575  5.74  0.  0.
   576  5.75  0.  0.
   577  5.76  0.  0.
   578  5.77  0.  0.
   579  5.78  0.  0.
   580  5.79  0.  0.
   581  5.80  0.  0.
   582  5.81  0.  0.
   583  5.82  0.  0.
   584  5.83  0.  0.
   585  5.84  0.  0.
   586  5.85  0.  0.
   587  5.86  0.  0.
   588  5.87  0.  0.
   589  5.88  0.  0.
   590  5.89  0.  0.
   591  5.90  0.  0.
   592  5.91  0.  0.
   593  5.92  0.  0.
   594  5.93  0.  0.
   595  5.94  0.  0.
   596  5.95  0.  0.
   597  5.96  0.  0.
   598  5.97  0.  0.
   599  5.98  0.  0.
   600  5.99  0.  0.
   1                        -5.8489367094773E+00 -1.5948159056764E+00
     1  0.0000000000000E+00  1.0166614355933E-09 -4.1739311590350E-09
     2  1.0000000000000E-02  1.5644443236118E-03 -1.3126119921589E-03
     3  2.0000000000000E-02  6.2510029921202E-03 -5.2391946307067E-03
     4  3.0000000000000E-02  1.4039397462250E-02 -1.1746120052242E-02
     5  4.0000000000000E-02  2.4895977430788E-02 -2.0777779762654E-02
     6  5.0000000000000E-02  3.8773939615547E-02 -3.2257232667417E-02
     7  6.0000000000000E-02  5.5613629850859E-02 -4.6087094756302E-02
     8  7.0000000000000E-02  7.5342924407905E-02 -6.2150653384094E-02
     9  8.0000000000000E-02  9.7877685433539E-02 -8.0313184915012E-02
    10  9.0000000000000E-02  1.2312228449324E-01 -1.0042345082530E-01
    11  1.0000000000000E-01  1.5097018742343E-01 -1.2231534427226E-01
    12  1.1000000000000E-01  1.8130459306116E-01 -1.4580965670994E-01
    13  1.2000000000000E-01  2.1399911793753E-01 -1.7071593241670E-01
    14  1.3000000000000E-01  2.4891851870362E-01 -1.9683437783630E-01
    15  1.4000000000000E-01  2.8591944390884E-01 -2.2395779244010E-01
    16  1.5000000000000E-01  3.2485120677208E-01 -2.5187348839545E-01
    17  1.6000000000000E-01  3.6555657077288E-01 -2.8036516765376E-01
    18  1.7000000000000E-01  4.0787254023467E-01 -3.0921472711545E-01
    19  1.8000000000000E-01  4.5163114856535E-01 -3.3820396523303E-01
    20  1.9000000000000E-01  4.9666023744611E-01 -3.6711616670614E-01
    21  2.0000000000000E-01  5.4278422100076E-01 -3.9573754571910E-01
    22  2.1000000000000E-01  5.8982482981404E-01 -4.2385853237373E-01
    23  2.2000000000000E-01  6.3760183057634E-01 -4.5127489147043E-01
    24  2.3000000000000E-01  6.8593371808890E-01 -4.7778866747283E-01
    25  2.4000000000000E-01  7.3463837734430E-01 -5.0320895423705E-01
    26  2.5000000000000E-01  7.8353371437437E-01 -5.2735249277263E-01
    27  2.6000000000000E-01  8.3243825550777E-01 -5.5004410481089E-01
    28  2.7000000000000E-01  8.8117171557709E-01 -5.7111697416990E-01
    29  2.8000000000000E-01  9.2955553643755E-01 -5.9041279171756E-01
    30  2.9000000000000E-01  9.7741339788520E-01 -6.0778178304588E-01
    31  3.0000000000000E-01  1.0245717036738E+00 -6.2308264069538E-01
    32  3.1000000000000E-01  1.0708600458103E+00 -6.3618238483822E-01
    33  3.2000000000000E-01  1.1161116506472E+00 -6.4695617768736E-01
    34  3.3000000000000E-01  1.1601638104801E+00 -6.5528711751072E-01
    35  3.4000000000000E-01  1.2028583043891E+00 -6.6106603797659E-01
    36  3.5000000000000E-01  1.2440418119454E+00 -6.6419133764193E-01
    37  3.6000000000000E-01  1.2835663231283E+00 -6.6456886273977E-01
    38  3.7000000000000E-01  1.3212895473860E+00 -6.6211186406760E-01
    39  3.8000000000000E-01  1.3570753242214E+00 -6.5674104578315E-01
    40  3.9000000000000E-01  1.3907940370278E+00 -6.4838472035484E-01
    41  4.0000000000000E-01  1.4223230311312E+00 -6.3697907988132E-01
    42  4.1000000000000E-01  1.4515470361640E+00 -6.2246858959208E-01
    43  4.2000000000000E-01  1.4783585920012E+00 -6.0480650468464E-01
    44  4.3000000000000E-01  1.5026584765738E+00 -5.8395550686342E-01
    45  4.4000000000000E-01  1.5243561329526E+00 -5.5988845214989E-01
    46  4.5000000000000E-01  1.5433700922019E+00 -5.3258921685975E-01
    47  4.6000000000000E-01  1.5596283876587E+00 -5.0205362421836E-01
    48  4.7000000000000E-01  1.5730689555245E+00 -4.6829043003172E-01
    49  4.8000000000000E-01  1.5836400159925E+00 -4.3132234226148E-01
    50  4.9000000000000E-01  1.5913004285881E+00 -3.9118704637170E-01
    51  5.0000000000000E-01  1.5960200149951E+00 -3.4793820601231E-01
    52  5.1000000000000E-01  1.5977798423991E+00 -3.0164640705325E-01
    53  5.2000000000000E-01  1.5965724602952E+00 -2.5240001224066E-01
    54  5.3000000000000E-01  1.5924020838137E+00 -2.0030589384827E-01
    55  5.4000000000000E-01  1.5852847168908E+00 -1.4549001266036E-01
    56  5.5000000000000E-01  1.5752482090762E+00 -8.8097813441608E-02
    57  5.6000000000000E-01  1.5623322404019E+00 -2.8294409697540E-02
    58  5.7000000000000E-01  1.5465882295342E+00  3.3735466039133E-02
    59  5.8000000000000E-01  1.5280791613871E+00  9.7787766015293E-02
    60  5.9000000000000E-01  1.5068793314541E+00  1.6363970000075E-01
    61  6.0000000000000E-01  1.4830740053181E+00  2.3105058650980E-01
    62  6.1000000000000E-01  1.4567589930806E+00  2.9976298633183E-01
    63  6.2000000000000E-01  1.4280401397996E+00  3.6950411621071E-01
    64  6.3000000000000E-01  1.3970327344064E+00  4.3998753437972E-01
    65  6.4000000000000E-01  1.3638608409476E+00  5.1091508352737E-01
    66  6.5000000000000E-01  1.3286565573582E+00  5.8197907078526E-01
    67  6.6000000000000E-01  1.2915592082569E+00  6.5286465863780E-01
    68  6.7000000000000E-01  1.2527144794674E+00  7.2325243539409E-01
    69  6.8000000000000E-01  1.2122735030490E+00  7.9282112916712E-01
    70  6.9000000000000E-01  1.1703919025692E+00  8.6125042529525E-01
    71  7.0000000000000E-01  1.1272288091257E+00  9.2822384392158E-01
    72  7.1000000000000E-01  1.0829458592182E+00  9.9343163210753E-01
    73  7.2000000000000E-01  1.0377061859608E+00  1.0565736234673E+00
    74  7.3000000000000E-01  9.9167341530353E-01  1.1173620179188E+00
    75  7.4000000000000E-01  9.4501067888849E-01  1.1755240347765E+00
    76  7.5000000000000E-01  8.9787965490720E-01  1.2308043940723E+00
    77  7.6000000000000E-01  8.5043964784107E-01  1.2829675836465E+00
    78  7.7000000000000E-01  8.0284671728072E-01  1.3317998731714E+00
    79  7.8000000000000E-01  7.5525286513231E-01  1.3771110407754E+00
    80  7.9000000000000E-01  7.0780528945508E-01  1.4187357832385E+00
    81  8.0000000000000E-01  6.6064571195243E-01  1.4565347867230E+00
    82  8.1000000000000E-01  6.1390978478636E-01  1.4903954415524E+00
    83  8.2000000000000E-01  5.6772658092961E-01  1.5202321915264E+00
    84  8.3000000000000E-01  5.2221817074306E-01  1.5459865154864E+00
    85  8.4000000000000E-01  4.7749928590094E-01  1.5676265461901E+00
    86  8.5000000000000E-01  4.3367707021733E-01  1.5851463388207E+00
    87  8.6000000000000E-01  3.9085091538850E-01  1.5985648085071E+00
    88  8.7000000000000E-01  3.4911237819111E-01  1.6079243628765E+00
    89  8.8000000000000E-01  3.0854517429850E-01  1.6132892617724E+00
    90  8.9000000000000E-01  2.6922524262708E-01  1.6147437416786E+00
    91  9.0000000000000E-01  2.3122087302947E-01  1.6123899469843E+00
    92  9.1000000000000E-01  1.9459288923580E-01  1.6063457138823E+00
    93  9.2000000000000E-01  1.5939487822811E-01  1.5967422553241E+00
    94  9.3000000000000E-01  1.2567345673263E-01  1.5837217969953E+00
    95  9.4000000000000E-01  9.3468565240119E-02  1.5674352146781E+00
    96  9.5000000000000E-01  6.2813779921643E-02  1.5480397226098E+00
    97  9.6000000000000E-01  3.3736632995842E-02  1.5256966605529E+00
    98  9.7000000000000E-01  6.2589325189664E-03  1.5005694242783E+00
    99  9.8000000000000E-01 -1.9602926800575E-02  1.4728215801079E+00
   100  9.9000000000000E-01 -4.3837669331063E-02  1.4426151991460E+00
   101  1.0000000000000E+00 -6.6438867348777E-02  1.4101094409601E+00
   102  1.0100000000000E+00 -8.7404698367695E-02  1.3754594098878E+00
   103  1.0200000000000E+00 -1.0673773507548E-01  1.3388152999918E+00
   104  1.0300000000000E+00 -1.2444477060311E-01  1.3003218371266E+00
   105  1.0400000000000E+00 -1.4053668041633E-01  1.2601180188005E+00
   106  1.0500000000000E+00 -1.5502832065426E-01  1.2183371446774E+00
   107  1.0600000000000E+00 -1.6793846129501E-01  1.1751071228849E+00
   108  1.0700000000000E+00 -1.7928975113006E-01  1.1305510299247E+00
   109  1.0800000000000E+00 -1.8910871022109E-01  1.0847878951247E+00
   110  1.0900000000000E+00 -1.9742574432467E-01  1.0379336743946E+00
   111  1.1000000000000E+00 -2.0427517473332E-01  9.9010237268052E-01
   112  1.1100000000000E+00 -2.0969527612712E-01  9.4140727013992E-01
   113  1.1200000000000E+00 -2.1372831437694E-01  8.9196220374157E-01
   114  1.1300000000000E+00 -2.1642057581300E-01  8.4188285387386E-01
   115  1.1400000000000E+00 -2.1782237928056E-01  7.9128798465361E-01
   116  1.1500000000000E+00 -2.1798806235836E-01  7.4030058701742E-01
   117  1.1600000000000E+00 -2.1697593341855E-01  6.8904887536127E-01
   118  1.1700000000000E+00 -2.1484818175093E-01  6.3766709142504E-01
   119  1.1800000000000E+00 -2.1167073875931E-01  5.8629607329509E-01
   120  1.1900000000000E+00 -2.0751308423341E-01  5.3508355265716E-01
   121  1.2000000000000E+00 -2.0244799290593E-01  4.8418414977888E-01
   122  1.2100000000000E+00 -1.9655121787156E-01  4.3375904287269E-01
   123  1.2200000000000E+00 -1.8990110896328E-01  3.8397529644476E-01
   124  1.2300000000000E+00 -1.8257816580656E-01  3.3500484173767E-01
   125  1.2400000000000E+00 -1.7466452696081E-01  2.8702311120783E-01
   126  1.2500000000000E+00 -1.6624339829209E-01  2.4020733805447E-01
   127  1.2600000000000E+00 -1.5739842543076E-01  1.9473454077096E-01
   128  1.2700000000000E+00 -1.4821301683413E-01  1.5077922143410E-01
   129  1.2800000000000E+00 -1.3876962555029E-01  1.0851081474086E-01
   130  1.2900000000000E+00 -1.2914899532105E-01  6.8090907393505E-02
   131  1.3000000000000E+00 -1.1942937993160E-01  2.9670267657917E-02
   132  1.3100000000000E+00 -1.0968696609594E-01 -6.6064651029584E-03
   133  1.3200000000000E+00 -9.9989035163485E-02 -4.0642494479288E-02
   134  1.3300000000000E+00 -9.0427496541180E-02 -7.2174616817953E-02
   135  1.3400000000000E+00 -8.1087274496315E-02 -1.0097681214426E-01
   136  1.3500000000000E+00 -7.2034628625120E-02 -1.2693156037346E-01
   137  1.3600000000000E+00 -6.3334966264350E-02 -1.4991392130822E-01
   138  1.3700000000000E+00 -5.5046494845494E-02 -1.6983062309271E-01
   139  1.3800000000000E+00 -4.7220025099859E-02 -1.8661988609703E-01
   140  1.3900000000000E+00 -3.9898542300708E-02 -2.0025293904762E-01
   141  1.4000000000000E+00 -3.3116873956859E-02 -2.1073513181512E-01
   142  1.4100000000000E+00 -2.6901469612526E-02 -2.1810655281827E-01
   143  1.4200000000000E+00 -2.1270298238735E-02 -2.2244212135212E-01
   144  1.4300000000000E+00 -1.6232866708985E-02 -2.2385113482943E-01