Zn    ONCVPSP-4.0.1  r_core=   1.35529   1.65107   1.86091
     30.0000     20.0000      250925    zatom,zion,pspd
     8   -1012   2     4   600     0    pspcod,pspxc,lmax,lloc,mmax,r2well
  5.99000000  2.50000000  0.00000000    rchrg fchrg qchrg
     2     2     2     0    nproj
     3     1           extension_switch
     3     3     0    nprojso
   0                         2.7565681028087E+00 -1.5007895454141E+00
     1  0.0000000000000E+00 -2.3192834208707E-08 -3.6921568580262E-10
     2  1.0000000000000E-02  9.8225069159889E-02  3.0502193880909E-02
     3  2.0000000000000E-02  1.9592696562728E-01  6.1010049658384E-02
     4  3.0000000000000E-02  2.9258984159083E-01  9.1529088869426E-02
     5  4.0000000000000E-02  3.8771229897199E-01  1.2206455105629E-01
     6  5.0000000000000E-02  4.8081412050469E-01  1.5262124968256E-01
     7  6.0000000000000E-02  5.7144242567571E-01  1.8320342462832E-01
     8  7.0000000000000E-02  6.5917708822893E-01  2.1381459058289E-01
     9  8.0000000000000E-02  7.4363527512935E-01  2.4445738102337E-01
    10  9.0000000000000E-02  8.2447499446233E-01  2.7513338789878E-01
    11  1.0000000000000E-01  9.0139757083413E-01  3.0584299761718E-01
    12  1.1000000000000E-01  9.7414900045349E-01  3.3658522443514E-01
    13  1.2000000000000E-01  1.0425201731435E+00  3.6735754285442E-01
    14  1.3000000000000E-01  1.1063459839401E+00  3.9815572111764E-01
    15  1.4000000000000E-01  1.1655033915532E+00  4.2897365834139E-01
    16  1.5000000000000E-01  1.2199085136901E+00  4.5980322821011E-01
    17  1.6000000000000E-01  1.2695128790241E+00  4.9063413245953E-01
    18  1.7000000000000E-01  1.3142989814835E+00  5.2145376758610E-01
    19  1.8000000000000E-01  1.3542753036913E+00  5.5224710831763E-01
    20  1.9000000000000E-01  1.3894709921382E+00  5.8299661135854E-01
    21  2.0000000000000E-01  1.4199303764905E+00  6.1368214277728E-01
    22  2.1000000000000E-01  1.4457075290039E+00  6.4428093213081E-01
    23  2.2000000000000E-01  1.4668610571994E+00  6.7476755602681E-01
    24  2.3000000000000E-01  1.4834493138402E+00  7.0511395331520E-01
    25  2.4000000000000E-01  1.4955261930948E+00  7.3528947349026E-01
    26  2.5000000000000E-01  1.5031376610597E+00  7.6526095918851E-01
    27  2.6000000000000E-01  1.5063191431868E+00  7.9499286290655E-01
    28  2.7000000000000E-01  1.5050938614278E+00  8.2444739725958E-01
    29  2.8000000000000E-01  1.4994721810053E+00  8.5358471728064E-01
    30  2.9000000000000E-01  1.4894519917079E+00  8.8236313244901E-01
    31  3.0000000000000E-01  1.4750201125879E+00  9.1073934536139E-01
    32  3.1000000000000E-01  1.4561546730886E+00  9.3866871324679E-01
    33  3.2000000000000E-01  1.4328283890899E+00  9.6610552790230E-01
    34  3.3000000000000E-01  1.4050126202689E+00  9.9300330911374E-01
    35  3.4000000000000E-01  1.3726820665713E+00  1.0193151062434E+00
    36  3.5000000000000E-01  1.3358199374345E+00  1.0449938024329E+00
    37  3.6000000000000E-01  1.2944234085002E+00  1.0699924157945E+00
    38  3.7000000000000E-01  1.2485091675600E+00  1.0942643920537E+00
    39  3.8000000000000E-01  1.1981188448526E+00  1.1177638833664E+00
    40  3.9000000000000E-01  1.1433241228522E+00  1.1404460084549E+00
    41  4.0000000000000E-01  1.0842313274071E+00  1.1622670897829E+00
    42  4.1000000000000E-01  1.0209853153543E+00  1.1831848642076E+00
    43  4.2000000000000E-01  9.5377249318855E-01  1.2031586643791E+00
    44  4.3000000000000E-01  8.8282282644488E-01  1.2221495690923E+00
    45  4.4000000000000E-01  8.0841072940672E-01  1.2401205217924E+00
    46  4.5000000000000E-01  7.3085475868846E-01  1.2570364174721E+00
    47  4.6000000000000E-01  6.5051607110781E-01  1.2728641592372E+00
    48  4.7000000000000E-01  5.6779564492861E-01  1.2875726868270E+00
    49  4.8000000000000E-01  4.8313030280551E-01  1.3011329803225E+00
    50  4.9000000000000E-01  3.9698761336287E-01  1.3135180431211E+00
    51  5.0000000000000E-01  3.0985978506091E-01  1.3247028689817E+00
    52  5.1000000000000E-01  2.2225669966205E-01  1.3346643985111E+00
    53  5.2000000000000E-01  1.3469826211184E-01  1.3433814708501E+00
    54  5.3000000000000E-01  4.7706268016246E-02  1.3508347765190E+00
    55  5.4000000000000E-01 -3.8203991696084E-02  1.3570068173659E+00
    56  5.5000000000000E-01 -1.2253215753717E-01  1.3618818793411E+00
    57  5.6000000000000E-01 -2.0480102351052E-01  1.3654460233840E+00
    58  5.7000000000000E-01 -2.8456432084532E-01  1.3676870990709E+00
    59  5.8000000000000E-01 -3.6141383962914E-01  1.3685947848436E+00
    60  5.9000000000000E-01 -4.3498568143703E-01  1.3681606576429E+00
    61  6.0000000000000E-01 -5.0496545955380E-01  1.3663782936327E+00
    62  6.1000000000000E-01 -5.7109229284373E-01  1.3632434004575E+00
    63  6.2000000000000E-01 -6.3316147388937E-01  1.3587539801533E+00
    64  6.3000000000000E-01 -6.9102573067863E-01  1.3529105204866E+00
    65  6.4000000000000E-01 -7.4459504271213E-01  1.3457162111524E+00
    66  6.5000000000000E-01 -7.9383501567179E-01  1.3371771799807E+00
    67  6.6000000000000E-01 -8.3876386240914E-01  1.3273027431078E+00
    68  6.7000000000000E-01 -8.7944808063373E-01  1.3161056620205E+00
    69  6.8000000000000E-01 -9.1599695796739E-01  1.3036023995062E+00
    70  6.9000000000000E-01 -9.4855607171225E-01  1.2898133658776E+00
    71  7.0000000000000E-01 -9.7729998257581E-01  1.2747631464155E+00
    72  7.1000000000000E-01 -1.0024243476680E+00  1.2584807008125E+00
    73  7.2000000000000E-01 -1.0241376974590E+00  1.2409995255100E+00
    74  7.3000000000000E-01 -1.0426531333888E+00  1.2223577702208E+00
    75  7.4000000000000E-01 -1.0581802069969E+00  1.2025983006074E+00
    76  7.5000000000000E-01 -1.0709172375745E+00  1.1817687000377E+00
    77  7.6000000000000E-01 -1.0810443134627E+00  1.1599212045477E+00
    78  7.7000000000000E-01 -1.0887172025064E+00  1.1371125665730E+00
    79  7.8000000000000E-01 -1.0940623703360E+00  1.1134038446419E+00
    80  7.9000000000000E-01 -1.0971732718461E+00  1.0888601180045E+00
    81  8.0000000000000E-01 -1.0981080424106E+00  1.0635501270627E+00
    82  8.1000000000000E-01 -1.0968886721657E+00  1.0375458424146E+00
    83  8.2000000000000E-01 -1.0935017003764E+00  1.0109219672772E+00
    84  8.3000000000000E-01 -1.0879004188762E+00  9.8375537995025E-01
    85  8.4000000000000E-01 -1.0800085252881E+00  9.5612452477824E-01
    86  8.5000000000000E-01 -1.0697251196852E+00  9.2810876169748E-01
    87  8.6000000000000E-01 -1.0569308939925E+00  8.9978768587715E-01
    88  8.7000000000000E-01 -1.0414953231574E+00  8.7124043012768E-01
    89  8.8000000000000E-01 -1.0232846322276E+00  8.4254496361774E-01
    90  8.9000000000000E-01 -1.0021702850904E+00  8.1377740098249E-01
    91  9.0000000000000E-01 -9.7803771971194E-01  7.8501133609400E-01
    92  9.1000000000000E-01 -9.5079504200088E-01  7.5631721458918E-01
    93  9.2000000000000E-01 -9.2038138639626E-01  7.2776175870421E-01
    94  9.3000000000000E-01 -8.8677465618559E-01  6.9940745705477E-01
    95  9.4000000000000E-01 -8.4999837036013E-01  6.7131213074518E-01
    96  9.5000000000000E-01 -8.1012736620765E-01  6.4352858561136E-01
    97  9.6000000000000E-01 -7.6729213725228E-01  6.1610435854094E-01
    98  9.7000000000000E-01 -7.2168162377725E-01  5.8908156371018E-01
    99  9.8000000000000E-01 -6.7354431694695E-01  5.6249684228611E-01
   100  9.9000000000000E-01 -6.2318758625572E-01  5.3638141671960E-01
   101  1.0000000000000E+00 -5.7097519223874E-01  5.1076124826524E-01
   102  1.0100000000000E+00 -5.1732300060717E-01  4.8565729387019E-01
   103  1.0200000000000E+00 -4.6269296857715E-01  4.6108585614484E-01
   104  1.0300000000000E+00 -4.0758552751257E-01  4.3705901782915E-01
   105  1.0400000000000E+00 -3.5253053651925E-01  4.1358515006144E-01
   106  1.0500000000000E+00 -2.9807702776249E-01  3.9066948190050E-01
   107  1.0600000000000E+00 -2.4478200453663E-01  3.6831471700227E-01
   108  1.0700000000000E+00 -1.9319858634765E-01  3.4652168214877E-01
   109  1.0800000000000E+00 -1.4386382028018E-01  3.2528999151066E-01
   110  1.0900000000000E+00 -9.7286493951060E-02  3.0461871011787E-01
   111  1.1000000000000E+00 -5.3935291780537E-02  2.8450700003222E-01
   112  1.1100000000000E+00 -1.4227632874926E-02  2.6495473316180E-01
   113  1.1200000000000E+00  2.1480484588795E-02  2.4596305552716E-01
   114  1.1300000000000E+00  5.2903330512099E-02  2.2753488905355E-01
   115  1.1400000000000E+00  7.9832711732255E-02  2.0967535860437E-01
   116  1.1500000000000E+00  1.0214343292562E-01  1.9239213392953E-01
   117  1.1600000000000E+00  1.1979676746410E-01  1.7569567844992E-01
   118  1.1700000000000E+00  1.3284180918183E-01  1.5959939924790E-01
   119  1.1800000000000E+00  1.4141463387986E-01  1.4411969525643E-01
   120  1.1900000000000E+00  1.4573525940002E-01  1.2927590331792E-01
   121  1.2000000000000E+00  1.4610245477458E-01  1.1509014450243E-01
   122  1.2100000000000E+00  1.4288650925894E-01  1.0158707570231E-01
   123  1.2200000000000E+00  1.3652013030160E-01  8.8793554032827E-02
   124  1.2300000000000E+00  1.2748769339442E-01  7.6738223869616E-02
   125  1.2400000000000E+00  1.1631311474086E-01  6.5451038383181E-02
   126  1.2500000000000E+00  1.0354665881842E-01  5.4962729150831E-02
   127  1.2600000000000E+00  8.9751025283306E-02  4.5304238761169E-02
   128  1.2700000000000E+00  7.5487073877202E-02  3.6506131193647E-02
   129  1.2800000000000E+00  6.1299632787882E-02  2.8598001734438E-02
   130  1.2900000000000E+00  4.7702159082998E-02  2.1607707784620E-02
   131  1.3000000000000E+00  3.5148192330429E-02  1.5558410533678E-02
   132  1.3100000000000E+00  2.4058572891186E-02  1.0473340658702E-02
   133  1.3200000000000E+00  1.4797241918951E-02  6.3742621642867E-03
   134  1.3300000000000E+00  7.6452742183771E-03  3.2787046292485E-03
   135  1.3400000000000E+00  2.7893186309428E-03  1.1980301970712E-03
   136  1.3500000000000E+00  3.5870175971070E-04  1.5525151431489E-04
   137  1.3600000000000E+00 -3.2096923258859E-05 -1.3969595787459E-05
   138  1.3700000000000E+00  5.9037266746489E-06  2.5580302456501E-06
   139  1.38  0.  0.
   140  1.39  0.  0.
   141  1.40  0.  0.
   142  1.41  0.  0.
   143  1.42  0.  0.
   144  1.43  0.  0.
   145  1.44  0.  0.
   146  1.45  0.  0.
   147  1.46  0.  0.
   148  1.47  0.  0.
   149  1.48  0.  0.
   150  1.49  0.  0.
   151  1.50  0.  0.
   152  1.51  0.  0.
   153  1.52  0.  0.
   154  1.53  0.  0.
   155  1.54  0.  0.
   156  1.55  0.  0.
   157  1.56  0.  0.
   158  1.57  0.  0.
   159  1.58  0.  0.
   160  1.59  0.  0.
   161  1.60  0.  0.
   162  1.61  0.  0.
   163  1.62  0.  0.
   164  1.63  0.  0.
   165  1.64  0.  0.
   166  1.65  0.  0.
   167  1.66  0.  0.
   168  1.67  0.  0.
   169  1.68  0.  0.
   170  1.69  0.  0.
   171  1.70  0.  0.
   172  1.71  0.  0.
   173  1.72  0.  0.
   174  1.73  0.  0.
   175  1.74  0.  0.
   176  1.75  0.  0.
   177  1.76  0.  0.
   178  1.77  0.  0.
   179  1.78  0.  0.
   180  1.79  0.  0.
   181  1.80  0.  0.
   182  1.81  0.  0.
   183  1.82  0.  0.
   184  1.83  0.  0.
   185  1.84  0.  0.
   186  1.85  0.  0.
   187  1.86  0.  0.
   188  1.87  0.  0.
   189  1.88  0.  0.
   190  1.89  0.  0.
   191  1.90  0.  0.
   192  1.91  0.  0.
   193  1.92  0.  0.
   194  1.93  0.  0.
   195  1.94  0.  0.
   196  1.95  0.  0.
   197  1.96  0.  0.
   198  1.97  0.  0.
   199  1.98  0.  0.
   200  1.99  0.  0.
   201  2.00  0.  0.
   202  2.01  0.  0.
   203  2.02  0.  0.
   204  2.03  0.  0.
   205  2.04  0.  0.
   206  2.05  0.  0.
   207  2.06  0.  0.
   208  2.07  0.  0.
   209  2.08  0.  0.
   210  2.09  0.  0.
   211  2.10  0.  0.
   212  2.11  0.  0.
   213  2.12  0.  0.
   214  2.13  0.  0.
   215  2.14  0.  0.
   216  2.15  0.  0.
   217  2.16  0.  0.
   218  2.17  0.  0.
   219  2.18  0.  0.
   220  2.19  0.  0.
   221  2.20  0.  0.
   222  2.21  0.  0.
   223  2.22  0.  0.
   224  2.23  0.  0.
   225  2.24  0.  0.
   226  2.25  0.  0.
   227  2.26  0.  0.
   228  2.27  0.  0.
   229  2.28  0.  0.
   230  2.29  0.  0.
   231  2.30  0.  0.
   232  2.31  0.  0.
   233  2.32  0.  0.
   234  2.33  0.  0.
   235  2.34  0.  0.
   236  2.35  0.  0.
   237  2.36  0.  0.
   238  2.37  0.  0.
   239  2.38  0.  0.
   240  2.39  0.  0.
   241  2.40  0.  0.
   242  2.41  0.  0.
   243  2.42  0.  0.
   244  2.43  0.  0.
   245  2.44  0.  0.
   246  2.45  0.  0.
   247  2.46  0.  0.
   248  2.47  0.  0.
   249  2.48  0.  0.
   250  2.49  0.  0.
   251  2.50  0.  0.
   252  2.51  0.  0.
   253  2.52  0.  0.
   254  2.53  0.  0.
   255  2.54  0.  0.
   256  2.55  0.  0.
   257  2.56  0.  0.
   258  2.57  0.  0.
   259  2.58  0.  0.
   260  2.59  0.  0.
   261  2.60  0.  0.
   262  2.61  0.  0.
   263  2.62  0.  0.
   264  2.63  0.  0.
   265  2.64  0.  0.
   266  2.65  0.  0.
   267  2.66  0.  0.
   268  2.67  0.  0.
   269  2.68  0.  0.
   270  2.69  0.  0.
   271  2.70  0.  0.
   272  2.71  0.  0.
   273  2.72  0.  0.
   274  2.73  0.  0.
   275  2.74  0.  0.
   276  2.75  0.  0.
   277  2.76  0.  0.
   278  2.77  0.  0.
   279  2.78  0.  0.
   280  2.79  0.  0.
   281  2.80  0.  0.
   282  2.81  0.  0.
   283  2.82  0.  0.
   284  2.83  0.  0.
   285  2.84  0.  0.
   286  2.85  0.  0.
   287  2.86  0.  0.
   288  2.87  0.  0.
   289  2.88  0.  0.
   290  2.89  0.  0.
   291  2.90  0.  0.
   292  2.91  0.  0.
   293  2.92  0.  0.
   294  2.93  0.  0.
   295  2.94  0.  0.
   296  2.95  0.  0.
   297  2.96  0.  0.
   298  2.97  0.  0.
   299  2.98  0.  0.
   300  2.99  0.  0.
   301  3.00  0.  0.
   302  3.01  0.  0.
   303  3.02  0.  0.
   304  3.03  0.  0.
   305  3.04  0.  0.
   306  3.05  0.  0.
   307  3.06  0.  0.
   308  3.07  0.  0.
   309  3.08  0.  0.
   310  3.09  0.  0.
   311  3.10  0.  0.
   312  3.11  0.  0.
   313  3.12  0.  0.
   314  3.13  0.  0.
   315  3.14  0.  0.
   316  3.15  0.  0.
   317  3.16  0.  0.
   318  3.17  0.  0.
   319  3.18  0.  0.
   320  3.19  0.  0.
   321  3.20  0.  0.
   322  3.21  0.  0.
   323  3.22  0.  0.
   324  3.23  0.  0.
   325  3.24  0.  0.
   326  3.25  0.  0.
   327  3.26  0.  0.
   328  3.27  0.  0.
   329  3.28  0.  0.
   330  3.29  0.  0.
   331  3.30  0.  0.
   332  3.31  0.  0.
   333  3.32  0.  0.
   334  3.33  0.  0.
   335  3.34  0.  0.
   336  3.35  0.  0.
   337  3.36  0.  0.
   338  3.37  0.  0.
   339  3.38  0.  0.
   340  3.39  0.  0.
   341  3.40  0.  0.
   342  3.41  0.  0.
   343  3.42  0.  0.
   344  3.43  0.  0.
   345  3.44  0.  0.
   346  3.45  0.  0.
   347  3.46  0.  0.
   348  3.47  0.  0.
   349  3.48  0.  0.
   350  3.49  0.  0.
   351  3.50  0.  0.
   352  3.51  0.  0.
   353  3.52  0.  0.
   354  3.53  0.  0.
   355  3.54  0.  0.
   356  3.55  0.  0.
   357  3.56  0.  0.
   358  3.57  0.  0.
   359  3.58  0.  0.
   360  3.59  0.  0.
   361  3.60  0.  0.
   362  3.61  0.  0.
   363  3.62  0.  0.
   364  3.63  0.  0.
   365  3.64  0.  0.
   366  3.65  0.  0.
   367  3.66  0.  0.
   368  3.67  0.  0.
   369  3.68  0.  0.
   370  3.69  0.  0.
   371  3.70  0.  0.
   372  3.71  0.  0.
   373  3.72  0.  0.
   374  3.73  0.  0.
   375  3.74  0.  0.
   376  3.75  0.  0.
   377  3.76  0.  0.
   378  3.77  0.  0.
   379  3.78  0.  0.
   380  3.79  0.  0.
   381  3.80  0.  0.
   382  3.81  0.  0.
   383  3.82  0.  0.
   384  3.83  0.  0.
   385  3.84  0.  0.
   386  3.85  0.  0.
   387  3.86  0.  0.
   388  3.87  0.  0.
   389  3.88  0.  0.
   390  3.89  0.  0.
   391  3.90  0.  0.
   392  3.91  0.  0.
   393  3.92  0.  0.
   394  3.93  0.  0.
   395  3.94  0.  0.
   396  3.95  0.  0.
   397  3.96  0.  0.
   398  3.97  0.  0.
   399  3.98  0.  0.
   400  3.99  0.  0.
   401  4.00  0.  0.
   402  4.01  0.  0.
   403  4.02  0.  0.
   404  4.03  0.  0.
   405  4.04  0.  0.
   406  4.05  0.  0.
   407  4.06  0.  0.
   408  4.07  0.  0.
   409  4.08  0.  0.
   410  4.09  0.  0.
   411  4.10  0.  0.
   412  4.11  0.  0.
   413  4.12  0.  0.
   414  4.13  0.  0.
   415  4.14  0.  0.
   416  4.15  0.  0.
   417  4.16  0.  0.
   418  4.17  0.  0.
   419  4.18  0.  0.
   420  4.19  0.  0.
   421  4.20  0.  0.
   422  4.21  0.  0.
   423  4.22  0.  0.
   424  4.23  0.  0.
   425  4.24  0.  0.
   426  4.25  0.  0.
   427  4.26  0.  0.
   428  4.27  0.  0.
   429  4.28  0.  0.
   430  4.29  0.  0.
   431  4.30  0.  0.
   432  4.31  0.  0.
   433  4.32  0.  0.
   434  4.33  0.  0.
   435  4.34  0.  0.
   436  4.35  0.  0.
   437  4.36  0.  0.
   438  4.37  0.  0.
   439  4.38  0.  0.
   440  4.39  0.  0.
   441  4.40  0.  0.
   442  4.41  0.  0.
   443  4.42  0.  0.
   444  4.43  0.  0.
   445  4.44  0.  0.
   446  4.45  0.  0.
   447  4.46  0.  0.
   448  4.47  0.  0.
   449  4.48  0.  0.
   450  4.49  0.  0.
   451  4.50  0.  0.
   452  4.51  0.  0.
   453  4.52  0.  0.
   454  4.53  0.  0.
   455  4.54  0.  0.
   456  4.55  0.  0.
   457  4.56  0.  0.
   458  4.57  0.  0.
   459  4.58  0.  0.
   460  4.59  0.  0.
   461  4.60  0.  0.
   462  4.61  0.  0.
   463  4.62  0.  0.
   464  4.63  0.  0.
   465  4.64  0.  0.
   466  4.65  0.  0.
   467  4.66  0.  0.
   468  4.67  0.  0.
   469  4.68  0.  0.
   470  4.69  0.  0.
   471  4.70  0.  0.
   472  4.71  0.  0.
   473  4.72  0.  0.
   474  4.73  0.  0.
   475  4.74  0.  0.
   476  4.75  0.  0.
   477  4.76  0.  0.
   478  4.77  0.  0.
   479  4.78  0.  0.
   480  4.79  0.  0.
   481  4.80  0.  0.
   482  4.81  0.  0.
   483  4.82  0.  0.
   484  4.83  0.  0.
   485  4.84  0.  0.
   486  4.85  0.  0.
   487  4.86  0.  0.
   488  4.87  0.  0.
   489  4.88  0.  0.
   490  4.89  0.  0.
   491  4.90  0.  0.
   492  4.91  0.  0.
   493  4.92  0.  0.
   494  4.93  0.  0.
   495  4.94  0.  0.
   496  4.95  0.  0.
   497  4.96  0.  0.
   498  4.97  0.  0.
   499  4.98  0.  0.
   500  4.99  0.  0.
   501  5.00  0.  0.
   502  5.01  0.  0.
   503  5.02  0.  0.
   504  5.03  0.  0.
   505  5.04  0.  0.
   506  5.05  0.  0.
   507  5.06  0.  0.
   508  5.07  0.  0.
   509  5.08  0.  0.
   510  5.09  0.  0.
   511  5.10  0.  0.
   512  5.11  0.  0.
   513  5.12  0.  0.
   514  5.13  0.  0.
   515  5.14  0.  0.
   516  5.15  0.  0.
   517  5.16  0.  0.
   518  5.17  0.  0.
   519  5.18  0.  0.
   520  5.19  0.  0.
   521  5.20  0.  0.
   522  5.21  0.  0.
   523  5.22  0.  0.
   524  5.23  0.  0.
   525  5.24  0.  0.
   526  5.25  0.  0.
   527  5.26  0.  0.
   528  5.27  0.  0.
   529  5.28  0.  0.
   530  5.29  0.  0.
   531  5.30  0.  0.
   532  5.31  0.  0.
   533  5.32  0.  0.
   534  5.33  0.  0.
   535  5.34  0.  0.
   536  5.35  0.  0.
   537  5.36  0.  0.
   538  5.37  0.  0.
   539  5.38  0.  0.
   540  5.39  0.  0.
   541  5.40  0.  0.
   542  5.41  0.  0.
   543  5.42  0.  0.
   544  5.43  0.  0.
   545  5.44  0.  0.
   546  5.45  0.  0.
   547  5.46  0.  0.
   548  5.47  0.  0.
   549  5.48  0.  0.
   550  5.49  0.  0.
   551  5.50  0.  0.
   552  5.51  0.  0.
   553  5.52  0.  0.
   554  5.53  0.  0.
   555  5.54  0.  0.
   556  5.55  0.  0.
   557  5.56  0.  0.
   558  5.57  0.  0.
   559  5.58  0.  0.
   560  5.59  0.  0.
   561  5.60  0.  0.
   562  5.61  0.  0.
   563  5.62  0.  0.
   564  5.63  0.  0.
   565  5.64  0.  0.
   566  5.65  0.  0.
   567  5.66  0.  0.
   568  5.67  0.  0.
   569  5.68  0.  0.
   570  5.69  0.  0.
   571  5.70  0.  0.
   572  5.71  0.  0.
   573  5.72  0.  0.
   574  5.73  0.  0.
   575  5.74  0.  0.
   576  5.75  0.  0.
   577  5.76  0.  0.
   578  5.77  0.  0.
   579  5.78  0.  0.
   580  5.79  0.  0.
   581  5.80  0.  0.
   582  5.81  0.  0.
   583  5.82  0.  0.
   584  5.83  0.  0.
   585  5.84  0.  0.
   586  5.85  0.  0.
   587  5.86  0.  0.
   588  5.87  0.  0.
   589  5.88  0.  0.
   590  5.89  0.  0.
   591  5.90  0.  0.
   592  5.91  0.  0.
   593  5.92  0.  0.
   594  5.93  0.  0.
   595  5.94  0.  0.
   596  5.95  0.  0.
   597  5.96  0.  0.
   598  5.97  0.  0.
   599  5.98  0.  0.
   600  5.99  0.  0.
   1                        -4.6481218419196E+00 -1.2861270324746E+00
     1  0.0000000000000E+00  9.4791216542767E-10 -4.5008166915661E-09
     2  1.0000000000000E-02  1.3850522871856E-03 -1.1191729793718E-03
     3  2.0000000000000E-02  5.5348902368417E-03 -4.4671775315392E-03
     4  3.0000000000000E-02  1.2433592014556E-02 -1.0015597586289E-02
     5  4.0000000000000E-02  2.2054736984811E-02 -1.7717493865297E-02
     6  5.0000000000000E-02  3.4361577318934E-02 -2.7508025455167E-02
     7  6.0000000000000E-02  4.9307274246711E-02 -3.9305300887098E-02
     8  7.0000000000000E-02  6.6835195067572E-02 -5.3011440171125E-02
     9  8.0000000000000E-02  8.6879266089395E-02 -6.8513824732049E-02
    10  9.0000000000000E-02  1.0936437583074E-01 -8.5686508265040E-02
    11  1.0000000000000E-01  1.3420682212579E-01 -1.0439175826994E-01
    12  1.1000000000000E-01  1.6131479622671E-01 -1.2448169551496E-01
    13  1.2000000000000E-01  1.9058889661793E-01 -1.4579999698519E-01
    14  1.3000000000000E-01  2.2192266505034E-01 -1.6818362703125E-01
    15  1.4000000000000E-01  2.5520313727341E-01 -1.9146456146913E-01
    16  1.5000000000000E-01  2.9031140109147E-01 -2.1547147029309E-01
    17  1.6000000000000E-01  3.2712315469025E-01 -2.4003132642551E-01
    18  1.7000000000000E-01  3.6550925866399E-01 -2.6497091049762E-01
    19  1.8000000000000E-01  4.0533627580761E-01 -2.9011818496697E-01
    20  1.9000000000000E-01  4.4646699350696E-01 -3.1530351484872E-01
    21  2.0000000000000E-01  4.8876092444126E-01 -3.4036071686713E-01
    22  2.1000000000000E-01  5.3207478228388E-01 -3.6512792380665E-01
    23  2.2000000000000E-01  5.7626293012375E-01 -3.8944825613169E-01
    24  2.3000000000000E-01  6.2117780040311E-01 -4.1317029841593E-01
    25  2.4000000000000E-01  6.6667028625012E-01 -4.3614838363514E-01
    26  2.5000000000000E-01  7.1259010514712E-01 -4.5824269379040E-01
    27  2.6000000000000E-01  7.5878613688979E-01 -4.7931919050021E-01
    28  2.7000000000000E-01  8.0510673873148E-01 -4.9924939399602E-01
    29  2.8000000000000E-01  8.5140004144414E-01 -5.1791003324944E-01
    30  2.9000000000000E-01  8.9751423074078E-01 -5.3518259363530E-01
    31  3.0000000000000E-01  9.4329781907270E-01 -5.5095279149490E-01
    32  3.1000000000000E-01  9.8859991322186E-01 -5.6511000712343E-01
    33  3.2000000000000E-01  1.0332704833417E+00 -5.7754670900324E-01
    34  3.3000000000000E-01  1.0771606391499E+00 -5.8815790249814E-01
    35  3.4000000000000E-01  1.1201229188410E+00 -5.9684063569359E-01
    36  3.5000000000000E-01  1.1620115959632E+00 -6.0349359361786E-01
    37  3.6000000000000E-01  1.2026830090042E+00 -6.0801680973685E-01
    38  3.7000000000000E-01  1.2419959177560E+00 -6.1031152043006E-01
    39  3.8000000000000E-01  1.2798118897027E+00 -6.1028018419918E-01
    40  3.9000000000000E-01  1.3159957187118E+00 -6.0782668272539E-01
    41  4.0000000000000E-01  1.3504158772279E+00 -6.0285671568725E-01
    42  4.1000000000000E-01  1.3829450020066E+00 -5.9527839560364E-01
    43  4.2000000000000E-01  1.4134604121930E+00 -5.8500304301348E-01
    44  4.3000000000000E-01  1.4418446572988E+00 -5.7194617619484E-01
    45  4.4000000000000E-01  1.4679860913721E+00 -5.5602868351332E-01
    46  4.5000000000000E-01  1.4917794684369E+00 -5.3717816052972E-01
    47  4.6000000000000E-01  1.5131265531214E+00 -5.1533038834469E-01
    48  4.7000000000000E-01  1.5319367393363E+00 -4.9043092446154E-01
    49  4.8000000000000E-01  1.5481276689311E+00 -4.6243677284812E-01
    50  4.9000000000000E-01  1.5616258414739E+00 -4.3131809600212E-01
    51  5.0000000000000E-01  1.5723672056938E+00 -3.9705992878156E-01
    52  5.1000000000000E-01  1.5802977227137E+00 -3.5966385164750E-01
    53  5.2000000000000E-01  1.5853738909973E+00 -3.1914957984945E-01
    54  5.3000000000000E-01  1.5875632229538E+00 -2.7555642501337E-01
    55  5.4000000000000E-01  1.5868446633863E+00 -2.2894458659133E-01
    56  5.5000000000000E-01  1.5832089404386E+00 -1.7939623269744E-01
    57  5.6000000000000E-01  1.5766588403857E+00 -1.2701633295872E-01
    58  5.7000000000000E-01  1.5672093985132E+00 -7.1933210097269E-02
    59  5.8000000000000E-01  1.5548879994243E+00 -1.4298781953584E-02
    60  5.9000000000000E-01  1.5397343813841E+00  4.5711528542782E-02
    61  6.0000000000000E-01  1.5218005407287E+00  1.0789923147129E-01
    62  6.1000000000000E-01  1.5011505339056E+00  1.7204356508661E-01
    63  6.2000000000000E-01  1.4778601763463E+00  2.3790264965122E-01
    64  6.3000000000000E-01  1.4520166390524E+00  3.0521499391623E-01
    65  6.4000000000000E-01  1.4237179454843E+00  3.7370134057464E-01
    66  6.5000000000000E-01  1.3930723730299E+00  4.4306682949213E-01
    67  6.6000000000000E-01  1.3601977649625E+00  5.1300345031789E-01
    68  6.7000000000000E-01  1.3252207603411E+00  5.8319274936508E-01
    69  6.8000000000000E-01  1.2882759507243E+00  6.5330874959224E-01
    70  6.9000000000000E-01  1.2495049738299E+00  7.2302103726375E-01
    71  7.0000000000000E-01  1.2090555553481E+00  7.9199796455427E-01
    72  7.1000000000000E-01  1.1670805109794E+00  8.5990991410194E-01
    73  7.2000000000000E-01  1.1237367214033E+00  9.2643256940046E-01
    74  7.3000000000000E-01  1.0791840932692E+00  9.9125013401351E-01
    75  7.4000000000000E-01  1.0335845194326E+00  1.0540584429364E+00
    76  7.5000000000000E-01  9.8710085152949E-01  1.1145679110252E+00
    77  7.6000000000000E-01  9.3989589759422E-01  1.1725062662457E+00
    78  7.7000000000000E-01  8.9213145678636E-01  1.2276210195080E+00
    79  7.8000000000000E-01  8.4396740241690E-01  1.2796816279753E+00
    80  7.9000000000000E-01  7.9556082336889E-01  1.3284813148577E+00
    81  8.0000000000000E-01  7.4706523271918E-01  1.3738385156945E+00
    82  8.1000000000000E-01  6.9862985091369E-01  1.4155979288399E+00
    83  8.2000000000000E-01  6.5039896926129E-01  1.4536311561296E+00
    84  8.3000000000000E-01  6.0251139782690E-01  1.4878369283253E+00
    85  8.4000000000000E-01  5.5510000006096E-01  1.5181409187306E+00
    86  8.5000000000000E-01  5.0829131473961E-01  1.5444951571199E+00
    87  8.6000000000000E-01  4.6220526404776E-01  1.5668770646488E+00
    88  8.7000000000000E-01  4.1695494495616E-01  1.5852881384863E+00
    89  8.8000000000000E-01  3.7264649946146E-01  1.5997523223683E+00
    90  8.9000000000000E-01  3.2937905781210E-01  1.6103141059072E+00
    91  9.0000000000000E-01  2.8724474756512E-01  1.6170364011747E+00
    92  9.1000000000000E-01  2.4632876023985E-01  1.6199982496313E+00
    93  9.2000000000000E-01  2.0670946647770E-01  1.6192924158226E+00
    94  9.3000000000000E-01  1.6845857000293E-01  1.6150229262825E+00
    95  9.4000000000000E-01  1.3164129032074E-01  1.6073026127466E+00
    96  9.5000000000000E-01  9.6316563993744E-02  1.5962507180335E+00
    97  9.6000000000000E-01  6.2537254507195E-02  1.5819906208289E+00
    98  9.7000000000000E-01  3.0350361162167E-02  1.5646477321276E+00
    99  9.8000000000000E-01 -2.0278188800423E-04  1.5443476113382E+00
   100  9.9000000000000E-01 -2.9086324435795E-02  1.5212143441286E+00
   101  1.0000000000000E+00 -5.6269743717083E-02  1.4953692171278E+00
   102  1.0100000000000E+00 -8.1727718181494E-02  1.4669297167529E+00
   103  1.0200000000000E+00 -1.0544003567217E-01  1.4360088708822E+00
   104  1.0300000000000E+00 -1.2739153860729E-01  1.4027149430516E+00
   105  1.0400000000000E+00 -1.4757210714272E-01  1.3671514795189E+00
   106  1.0500000000000E+00 -1.6597667965459E-01  1.3294177001373E+00
   107  1.0600000000000E+00 -1.8260530825900E-01  1.2896092147556E+00
   108  1.0700000000000E+00 -1.9746324551989E-01  1.2478190380089E+00
   109  1.0800000000000E+00 -2.1056105703300E-01  1.2041388671279E+00
   110  1.0900000000000E+00 -2.2191475325095E-01  1.1586605799746E+00
   111  1.1000000000000E+00 -2.3154593276551E-01  1.1114779040826E+00
   112  1.1100000000000E+00 -2.3948192832755E-01  1.0626882022413E+00
   113  1.1200000000000E+00 -2.4575594618201E-01  1.0123943162181E+00
   114  1.1300000000000E+00 -2.5040718885434E-01  9.6070640770896E-01
   115  1.1400000000000E+00 -2.5348095135705E-01  9.0774373460237E-01
   116  1.1500000000000E+00 -2.5502868090137E-01  8.5363630118616E-01
   117  1.1600000000000E+00 -2.5510799060448E-01  7.9852632304271E-01
   118  1.1700000000000E+00 -2.5378261836544E-01  7.4256945100210E-01
   119  1.1800000000000E+00 -2.5112232304444E-01  6.8593570365605E-01
   120  1.1900000000000E+00 -2.4720271128209E-01  6.2881006437390E-01
   121  1.2000000000000E+00 -2.4210498973966E-01  5.7139270651304E-01
   122  1.2100000000000E+00 -2.3591563916693E-01  5.1389881925543E-01
   123  1.2200000000000E+00 -2.2872600850213E-01  4.5655801617846E-01
   124  1.2300000000000E+00 -2.2063182912341E-01  3.9961331899219E-01
   125  1.2400000000000E+00 -2.1173265135394E-01  3.4331971958277E-01
   126  1.2500000000000E+00 -2.0213120735191E-01  2.8794233448321E-01
   127  1.2600000000000E+00 -1.9193270650861E-01  2.3375417670456E-01
   128  1.2700000000000E+00 -1.8124407141248E-01  1.8103358039660E-01
   129  1.2800000000000E+00 -1.7017312425758E-01  1.3006132377296E-01
   130  1.2900000000000E+00 -1.5882773525971E-01  8.1117505059532E-02
   131  1.3000000000000E+00 -1.4731494569656E-01  3.4478231596725E-02
   132  1.3100000000000E+00 -1.3574008225984E-01 -9.5877914201477E-03
   133  1.3200000000000E+00 -1.2420574361254E-01 -5.0823603559002E-02
   134  1.3300000000000E+00 -1.1281023935492E-01 -8.8992017663752E-02
   135  1.3400000000000E+00 -1.0164625455825E-01 -1.2388200187792E-01
   136  1.3500000000000E+00 -9.0799948693839E-02 -1.5531221363268E-01
   137  1.3600000000000E+00 -8.0350132694946E-02 -1.8313421143244E-01
   138  1.3700000000000E+00 -7.0367535744522E-02 -2.0723528785365E-01
   139  1.3800000000000E+00 -6.0914172758043E-02 -2.2754087041108E-01
   140  1.3900000000000E+00 -5.2042824821292E-02 -2.4401642482814E-01
   141  1.4000000000000E+00 -4.3796643071679E-02 -2.5666880419622E-01
   142  1.4100000000000E+00 -3.6208884575110E-02 -2.6554699715359E-01
   143  1.4200000000000E+00 -2.9302786582567E-02 -2.7074223905662E-01
   144  1.4300000000000E+00 -2.3091583216763E-02 -2.7238746185839E-01