Li    ONCVPSP-4.0.1  r_core=   1.40410   1.10530
      3.0000      3.0000      250925    zatom,zion,pspd
     8   -1012   1     4   400     0    pspcod,pspxc,lmax,lloc,mmax,r2well
  3.99000000  0.00000000  0.00000000    rchrg fchrg qchrg
     2     2     0     0    nproj
     3     1           extension_switch
     3     0     0    nprojso
   0                        -4.8071267288514E+00 -1.3752513006842E+00
     1  0.0000000000000E+00  2.1488635315592E-09 -6.5314984531994E-09
     2  1.0000000000000E-02  8.8380575679123E-02 -3.0827450543525E-02
     3  2.0000000000000E-02  1.7654784789690E-01 -6.1531065078333E-02
     4  3.0000000000000E-02  2.6428835508642E-01 -9.1985068881869E-02
     5  4.0000000000000E-02  3.5138834131546E-01 -1.2205987978053E-01
     6  5.0000000000000E-02  4.3763366314887E-01 -1.5162037763508E-01
     7  6.0000000000000E-02  5.2280975978409E-01 -1.8052437687322E-01
     8  7.0000000000000E-02  6.0670170495410E-01 -2.0862136185955E-01
     9  8.0000000000000E-02  6.8909435694380E-01 -2.3575153836193E-01
    10  9.0000000000000E-02  7.6977262047325E-01 -2.6174524649443E-01
    11  1.0000000000000E-01  8.4852183122550E-01 -2.8642277147172E-01
    12  1.1000000000000E-01  9.2512827050519E-01 -3.0959457850598E-01
    13  1.2000000000000E-01  9.9937981398317E-01 -3.3106198744589E-01
    14  1.3000000000000E-01  1.0710667147938E+00 -3.5061829154471E-01
    15  1.4000000000000E-01  1.1399825174896E+00 -3.6805031331206E-01
    16  1.5000000000000E-01  1.2059250956126E+00 -3.8314037901571E-01
    17  1.6000000000000E-01  1.2686978019972E+00 -3.9566868232197E-01
    18  1.7000000000000E-01  1.3281107174638E+00 -4.0541599705541E-01
    19  1.8000000000000E-01  1.3839819803787E+00 -4.1216668936854E-01
    20  1.9000000000000E-01  1.4361391767163E+00 -4.1571197096988E-01
    21  2.0000000000000E-01  1.4844207678352E+00 -4.1585332767299E-01
    22  2.1000000000000E-01  1.5286775312347E+00 -4.1240605157922E-01
    23  2.2000000000000E-01  1.5687739881320E+00 -4.0520280084277E-01
    24  2.3000000000000E-01  1.6045897908443E+00 -3.9409710830169E-01
    25  2.4000000000000E-01  1.6360210426864E+00 -3.7896675936894E-01
    26  2.5000000000000E-01  1.6629815234279E+00 -3.5971696050074E-01
    27  2.6000000000000E-01  1.6854037942877E+00 -3.3628322229052E-01
    28  2.7000000000000E-01  1.7032401579626E+00 -3.0863388573195E-01
    29  2.8000000000000E-01  1.7164634512718E+00 -2.7677222636858E-01
    30  2.9000000000000E-01  1.7250676506010E+00 -2.4073807877838E-01
    31  3.0000000000000E-01  1.7290682734029E+00 -2.0060893296963E-01
    32  3.1000000000000E-01  1.7285025624953E+00 -1.5650046459998E-01
    33  3.2000000000000E-01  1.7234294437119E+00 -1.0856647225282E-01
    34  3.3000000000000E-01  1.7139292515392E+00 -5.6998207072130E-02
    35  3.4000000000000E-01  1.7001032216168E+00 -2.0230926066797E-03
    36  3.5000000000000E-01  1.6820727533070E+00  5.6097154527278E-02
    37  3.6000000000000E-01  1.6599784498530E+00  1.1706897986946E-01
    38  3.7000000000000E-01  1.6339789478592E+00  1.8056998659816E-01
    39  3.8000000000000E-01  1.6042495518408E+00  2.4625242394215E-01
    40  3.9000000000000E-01  1.5709806933230E+00  3.1374711038434E-01
    41  4.0000000000000E-01  1.5343762373379E+00  3.8266772385102E-01
    42  4.1000000000000E-01  1.4946516620943E+00  4.5261538277656E-01
    43  4.2000000000000E-01  1.4520321400161E+00  5.2318343518675E-01
    44  4.3000000000000E-01  1.4067505502078E+00  5.9396236791777E-01
    45  4.4000000000000E-01  1.3590454536617E+00  6.6454474490747E-01
    46  4.5000000000000E-01  1.3091590631448E+00  7.3453008224545E-01
    47  4.6000000000000E-01  1.2573352396738E+00  8.0352956839367E-01
    48  4.7000000000000E-01  1.2038175468079E+00  8.7117054068986E-01
    49  4.8000000000000E-01  1.1488473926607E+00  9.3710063387882E-01
    50  4.9000000000000E-01  1.0926622875943E+00  1.0009915228966E+00
    51  5.0000000000000E-01  1.0354942430374E+00  1.0625421903322E+00
    52  5.1000000000000E-01  9.7756833382345E-01  1.1214816587465E+00
    53  5.2000000000000E-01  9.1910144293720E-01  1.1775711391325E+00
    54  5.3000000000000E-01  8.6030120365895E-01  1.2306055590326E+00
    55  5.4000000000000E-01  8.0136514989125E-01  1.2804144469129E+00
    56  5.5000000000000E-01  7.4248008103295E-01  1.3268621630693E+00
    57  5.6000000000000E-01  6.8382164322193E-01  1.3698474812938E+00
    58  5.7000000000000E-01  6.2555412420259E-01  1.4093025394710E+00
    59  5.8000000000000E-01  5.6783045458366E-01  1.4451911908909E+00
    60  5.9000000000000E-01  5.1079240393608E-01  1.4775068010566E+00
    61  6.0000000000000E-01  4.5457095613314E-01  1.5062695468425E+00
    62  6.1000000000000E-01  3.9928684464598E-01  1.5315232857524E+00
    63  6.2000000000000E-01  3.4505122525911E-01  1.5533320724796E+00
    64  6.3000000000000E-01  2.9196646093491E-01  1.5717764077736E+00
    65  6.4000000000000E-01  2.4012699139688E-01  1.5869493105802E+00
    66  6.5000000000000E-01  1.8962025846635E-01  1.5989523083954E+00
    67  6.6000000000000E-01  1.4052765731565E-01  1.6078914426585E+00
    68  6.7000000000000E-01  9.2925483611522E-02  1.6138733857495E+00
    69  6.8000000000000E-01  4.6885847025699E-02  1.6170017637260E+00
    70  6.9000000000000E-01  2.4775227754423E-03  1.6173737743860E+00
    71  7.0000000000000E-01 -4.0233285297094E-02  1.6150771836454E+00
    72  7.1000000000000E-01 -8.1182294128885E-02  1.6101877747017E+00
    73  7.2000000000000E-01 -1.2030662430626E-01  1.6027673141929E+00
    74  7.3000000000000E-01 -1.5754443383840E-01  1.5928620877611E+00
    75  7.4000000000000E-01 -1.9283471629603E-01  1.5805020443337E+00
    76  7.5000000000000E-01 -2.2611727245812E-01  1.5657005743305E+00
    77  7.6000000000000E-01 -2.5733286004223E-01  1.5484549321778E+00
    78  7.7000000000000E-01 -2.8642352137882E-01  1.5287472982972E+00
    79  7.8000000000000E-01 -3.1333308413192E-01  1.5065464604550E+00
    80  7.9000000000000E-01 -3.3800782547487E-01  1.4818100793526E+00
    81  8.0000000000000E-01 -3.6039728560678E-01  1.4544874889405E+00
    82  8.1000000000000E-01 -3.8045521224680E-01  1.4245229684750E+00
    83  8.2000000000000E-01 -3.9814061386737E-01  1.3918594111082E+00
    84  8.3000000000000E-01 -4.1341889601688E-01  1.3564423031019E+00
    85  8.4000000000000E-01 -4.2626305221674E-01  1.3182239188328E+00
    86  8.5000000000000E-01 -4.3665487867127E-01  1.2771676298262E+00
    87  8.6000000000000E-01 -4.4458618045671E-01  1.2332522212999E+00
    88  8.7000000000000E-01 -4.5005993600405E-01  1.1864761072518E+00
    89  8.8000000000000E-01 -4.5309138658658E-01  1.1368613350627E+00
    90  8.9000000000000E-01 -4.5370901818093E-01  1.0844572729480E+00
    91  9.0000000000000E-01 -4.5195540448536E-01  1.0293438783594E+00
    92  9.1000000000000E-01 -4.4788788203174E-01  9.7163445253935E-01
    93  9.2000000000000E-01 -4.4157903118090E-01  9.1147779574485E-01
    94  9.3000000000000E-01 -4.3311694029387E-01  8.4905968901670E-01
    95  9.4000000000000E-01 -4.2260523445588E-01  7.8460364155566E-01
    96  9.5000000000000E-01 -4.1016285471807E-01  7.1837085752574E-01
    97  9.6000000000000E-01 -3.9592357881937E-01  6.5065939213954E-01
    98  9.7000000000000E-01 -3.8003527965877E-01  5.8180248386801E-01
    99  9.8000000000000E-01 -3.6265892329600E-01  5.1216606721472E-01
   100  9.9000000000000E-01 -3.4396731385110E-01  4.4214548832857E-01
   101  1.0000000000000E+00 -3.2414359823278E-01  3.7216146343185E-01
   102  1.0100000000000E+00 -3.0337954903296E-01  3.0265533723299E-01
   103  1.0200000000000E+00 -2.8187364906585E-01  2.3408371481529E-01
   104  1.0300000000000E+00 -2.5982900578667E-01  1.6691255557355E-01
   105  1.0400000000000E+00 -2.3745112809603E-01  1.0161083128829E-01
   106  1.0500000000000E+00 -2.1494560172618E-01  3.8643862087095E-02
   107  1.0600000000000E+00 -1.9251570242062E-01 -2.1533546452418E-02
   108  1.0700000000000E+00 -1.7035998839748E-01 -7.8484034645148E-02
   109  1.0800000000000E+00 -1.4866991506315E-01 -1.3179455346716E-01
   110  1.0900000000000E+00 -1.2762751559456E-01 -1.8108302572853E-01
   111  1.1000000000000E+00 -1.0740319039821E-01 -2.2600466897709E-01
   112  1.1100000000000E+00 -8.8153648308710E-02 -2.6625784513803E-01
   113  1.1200000000000E+00 -7.0019861112089E-02 -3.0159002940259E-01
   114  1.1300000000000E+00 -5.3124838513783E-02 -3.3180465913953E-01
   115  1.1400000000000E+00 -3.7571963537760E-02 -3.5676587888975E-01
   116  1.1500000000000E+00 -2.3443811374820E-02 -3.7640158781249E-01
   117  1.1600000000000E+00 -1.0801285804561E-02 -3.9070550024217E-01
   118  1.1700000000000E+00  3.1690765532594E-04 -3.9973815987068E-01
   119  1.1800000000000E+00  9.8944392086224E-03 -4.0362686911550E-01
   120  1.1900000000000E+00  1.7937175959191E-02 -4.0256451308711E-01
   121  1.2000000000000E+00  2.4472646435574E-02 -3.9680727820207E-01
   122  1.2100000000000E+00  2.9549154614926E-02 -3.8667128612905E-01
   123  1.2200000000000E+00  3.3234556148080E-02 -3.7252818445396E-01
   124  1.2300000000000E+00  3.5614715819055E-02 -3.5479975545213E-01
   125  1.2400000000000E+00  3.6791671321218E-02 -3.3395162345207E-01
   126  1.2500000000000E+00  3.6881534080604E-02 -3.1048615909482E-01
   127  1.2600000000000E+00  3.6012162934413E-02 -2.8493469479683E-01
   128  1.2700000000000E+00  3.4320650949657E-02 -2.5784917982069E-01
   129  1.2800000000000E+00  3.1950669397438E-02 -2.2979341508483E-01
   130  1.2900000000000E+00  2.9049715817923E-02 -2.0133401699974E-01
   131  1.3000000000000E+00  2.5766315176993E-02 -1.7303126606805E-01
   132  1.3100000000000E+00  2.2247223619889E-02 -1.4542999744668E-01
   133  1.3200000000000E+00  1.8634691833425E-02 -1.1905071476988E-01
   134  1.3300000000000E+00  1.5063807237946E-02 -9.4380987007036E-02
   135  1.3400000000000E+00  1.1660549590798E-02 -7.1869178704229E-02
   136  1.3500000000000E+00  8.5399490982052E-03 -5.1918611791387E-02
   137  1.3600000000000E+00  5.8005972407017E-03 -3.4869800790800E-02
   138  1.3700000000000E+00  3.5253783565630E-03 -2.1002777999519E-02
   139  1.3800000000000E+00  1.7803214137750E-03 -1.0533892190670E-02
   140  1.3900000000000E+00  6.1043437564680E-04 -3.5945094807566E-03
   141  1.4000000000000E+00  6.1823773599767E-05 -3.6291795770201E-04
   142  1.4100000000000E+00 -6.7600538029760E-06  3.9610968854269E-05
   143  1.4200000000000E+00  1.0172963382981E-06 -5.9655193077806E-06
   144  1.43  0.  0.
   145  1.44  0.  0.
   146  1.45  0.  0.
   147  1.46  0.  0.
   148  1.47  0.  0.
   149  1.48  0.  0.
   150  1.49  0.  0.
   151  1.50  0.  0.
   152  1.51  0.  0.
   153  1.52  0.  0.
   154  1.53  0.  0.
   155  1.54  0.  0.
   156  1.55  0.  0.
   157  1.56  0.  0.
   158  1.57  0.  0.
   159  1.58  0.  0.
   160  1.59  0.  0.
   161  1.60  0.  0.
   162  1.61  0.  0.
   163  1.62  0.  0.
   164  1.63  0.  0.
   165  1.64  0.  0.
   166  1.65  0.  0.
   167  1.66  0.  0.
   168  1.67  0.  0.
   169  1.68  0.  0.
   170  1.69  0.  0.
   171  1.70  0.  0.
   172  1.71  0.  0.
   173  1.72  0.  0.
   174  1.73  0.  0.
   175  1.74  0.  0.
   176  1.75  0.  0.
   177  1.76  0.  0.
   178  1.77  0.  0.
   179  1.78  0.  0.
   180  1.79  0.  0.
   181  1.80  0.  0.
   182  1.81  0.  0.
   183  1.82  0.  0.
   184  1.83  0.  0.
   185  1.84  0.  0.
   186  1.85  0.  0.
   187  1.86  0.  0.
   188  1.87  0.  0.
   189  1.88  0.  0.
   190  1.89  0.  0.
   191  1.90  0.  0.
   192  1.91  0.  0.
   193  1.92  0.  0.
   194  1.93  0.  0.
   195  1.94  0.  0.
   196  1.95  0.  0.
   197  1.96  0.  0.
   198  1.97  0.  0.
   199  1.98  0.  0.
   200  1.99  0.  0.
   201  2.00  0.  0.
   202  2.01  0.  0.
   203  2.02  0.  0.
   204  2.03  0.  0.
   205  2.04  0.  0.
   206  2.05  0.  0.
   207  2.06  0.  0.
   208  2.07  0.  0.
   209  2.08  0.  0.
   210  2.09  0.  0.
   211  2.10  0.  0.
   212  2.11  0.  0.
   213  2.12  0.  0.
   214  2.13  0.  0.
   215  2.14  0.  0.
   216  2.15  0.  0.
   217  2.16  0.  0.
   218  2.17  0.  0.
   219  2.18  0.  0.
   220  2.19  0.  0.
   221  2.20  0.  0.
   222  2.21  0.  0.
   223  2.22  0.  0.
   224  2.23  0.  0.
   225  2.24  0.  0.
   226  2.25  0.  0.
   227  2.26  0.  0.
   228  2.27  0.  0.
   229  2.28  0.  0.
   230  2.29  0.  0.
   231  2.30  0.  0.
   232  2.31  0.  0.
   233  2.32  0.  0.
   234  2.33  0.  0.
   235  2.34  0.  0.
   236  2.35  0.  0.
   237  2.36  0.  0.
   238  2.37  0.  0.
   239  2.38  0.  0.
   240  2.39  0.  0.
   241  2.40  0.  0.
   242  2.41  0.  0.
   243  2.42  0.  0.
   244  2.43  0.  0.
   245  2.44  0.  0.
   246  2.45  0.  0.
   247  2.46  0.  0.
   248  2.47  0.  0.
   249  2.48  0.  0.
   250  2.49  0.  0.
   251  2.50  0.  0.
   252  2.51  0.  0.
   253  2.52  0.  0.
   254  2.53  0.  0.
   255  2.54  0.  0.
   256  2.55  0.  0.
   257  2.56  0.  0.
   258  2.57  0.  0.
   259  2.58  0.  0.
   260  2.59  0.  0.
   261  2.60  0.  0.
   262  2.61  0.  0.
   263  2.62  0.  0.
   264  2.63  0.  0.
   265  2.64  0.  0.
   266  2.65  0.  0.
   267  2.66  0.  0.
   268  2.67  0.  0.
   269  2.68  0.  0.
   270  2.69  0.  0.
   271  2.70  0.  0.
   272  2.71  0.  0.
   273  2.72  0.  0.
   274  2.73  0.  0.
   275  2.74  0.  0.
   276  2.75  0.  0.
   277  2.76  0.  0.
   278  2.77  0.  0.
   279  2.78  0.  0.
   280  2.79  0.  0.
   281  2.80  0.  0.
   282  2.81  0.  0.
   283  2.82  0.  0.
   284  2.83  0.  0.
   285  2.84  0.  0.
   286  2.85  0.  0.
   287  2.86  0.  0.
   288  2.87  0.  0.
   289  2.88  0.  0.
   290  2.89  0.  0.
   291  2.90  0.  0.
   292  2.91  0.  0.
   293  2.92  0.  0.
   294  2.93  0.  0.
   295  2.94  0.  0.
   296  2.95  0.  0.
   297  2.96  0.  0.
   298  2.97  0.  0.
   299  2.98  0.  0.
   300  2.99  0.  0.
   301  3.00  0.  0.
   302  3.01  0.  0.
   303  3.02  0.  0.
   304  3.03  0.  0.
   305  3.04  0.  0.
   306  3.05  0.  0.
   307  3.06  0.  0.
   308  3.07  0.  0.
   309  3.08  0.  0.
   310  3.09  0.  0.
   311  3.10  0.  0.
   312  3.11  0.  0.
   313  3.12  0.  0.
   314  3.13  0.  0.
   315  3.14  0.  0.
   316  3.15  0.  0.
   317  3.16  0.  0.
   318  3.17  0.  0.
   319  3.18  0.  0.
   320  3.19  0.  0.
   321  3.20  0.  0.
   322  3.21  0.  0.
   323  3.22  0.  0.
   324  3.23  0.  0.
   325  3.24  0.  0.
   326  3.25  0.  0.
   327  3.26  0.  0.
   328  3.27  0.  0.
   329  3.28  0.  0.
   330  3.29  0.  0.
   331  3.30  0.  0.
   332  3.31  0.  0.
   333  3.32  0.  0.
   334  3.33  0.  0.
   335  3.34  0.  0.
   336  3.35  0.  0.
   337  3.36  0.  0.
   338  3.37  0.  0.
   339  3.38  0.  0.
   340  3.39  0.  0.
   341  3.40  0.  0.
   342  3.41  0.  0.
   343  3.42  0.  0.
   344  3.43  0.  0.
   345  3.44  0.  0.
   346  3.45  0.  0.
   347  3.46  0.  0.
   348  3.47  0.  0.
   349  3.48  0.  0.
   350  3.49  0.  0.
   351  3.50  0.  0.
   352  3.51  0.  0.
   353  3.52  0.  0.
   354  3.53  0.  0.
   355  3.54  0.  0.
   356  3.55  0.  0.
   357  3.56  0.  0.
   358  3.57  0.  0.
   359  3.58  0.  0.
   360  3.59  0.  0.
   361  3.60  0.  0.
   362  3.61  0.  0.
   363  3.62  0.  0.
   364  3.63  0.  0.
   365  3.64  0.  0.
   366  3.65  0.  0.
   367  3.66  0.  0.
   368  3.67  0.  0.
   369  3.68  0.  0.
   370  3.69  0.  0.
   371  3.70  0.  0.
   372  3.71  0.  0.
   373  3.72  0.  0.
   374  3.73  0.  0.
   375  3.74  0.  0.
   376  3.75  0.  0.
   377  3.76  0.  0.
   378  3.77  0.  0.
   379  3.78  0.  0.
   380  3.79  0.  0.
   381  3.80  0.  0.
   382  3.81  0.  0.
   383  3.82  0.  0.
   384  3.83  0.  0.
   385  3.84  0.  0.
   386  3.85  0.  0.
   387  3.86  0.  0.
   388  3.87  0.  0.
   389  3.88  0.  0.
   390  3.89  0.  0.
   391  3.90  0.  0.
   392  3.91  0.  0.
   393  3.92  0.  0.
   394  3.93  0.  0.
   395  3.94  0.  0.
   396  3.95  0.  0.
   397  3.96  0.  0.
   398  3.97  0.  0.
   399  3.98  0.  0.
   400  3.99  0.  0.
   1                        -2.3647772992326E+00 -5.4848667276851E-01
     1  0.0000000000000E+00  3.7876933811631E-07 -5.8095100402555E-07
     2  1.0000000000000E-02  7.2048802503573E-03 -7.4853420560801E-03
     3  2.0000000000000E-02  2.8609704573413E-02 -2.9632534802393E-02
     4  3.0000000000000E-02  6.3592332195395E-02 -6.5526287492297E-02
     5  4.0000000000000E-02  1.1113996228712E-01 -1.1367808150927E-01
     6  5.0000000000000E-02  1.6988437971437E-01 -1.7208023665472E-01
     7  6.0000000000000E-02  2.3814952271654E-01 -2.3827888927703E-01
     8  7.0000000000000E-02  3.1400967308747E-01 -3.0946328386185E-01
     9  8.0000000000000E-02  3.9535619066322E-01 -3.8256819875283E-01
    10  9.0000000000000E-02  4.7997040986402E-01 -4.5438585877737E-01
    11  1.0000000000000E-01  5.6560009756891E-01 -5.2168334928258E-01
    12  1.1000000000000E-01  6.5003674649793E-01 -5.8132134936995E-01
    13  1.2000000000000E-01  7.3119095093097E-01 -6.3036995381755E-01
    14  1.3000000000000E-01  8.0716318286241E-01 -6.6621745485304E-01
    15  1.4000000000000E-01  8.7630745387853E-01 -6.8666820281050E-01
    16  1.5000000000000E-01  9.3728560498532E-01 -6.9002604976661E-01
    17  1.6000000000000E-01  9.8911030393105E-01 -6.7516038865553E-01
    18  1.7000000000000E-01  1.0311752349942E+00 -6.4155241387735E-01
    19  1.8000000000000E-01  1.0632714250560E+00 -5.8931992611878E-01
    20  1.9000000000000E-01  1.0855891454766E+00 -5.1921975917475E-01
    21  2.0000000000000E-01  1.0987053439848E+00 -4.3262769315573E-01
    22  2.1000000000000E-01  1.1035570759937E+00 -3.3149650872000E-01
    23  2.2000000000000E-01  1.1014019020244E+00 -2.1829360296380E-01
    24  2.3000000000000E-01  1.0937666795282E+00 -9.5920302385249E-02
    25  2.4000000000000E-01  1.0823865869592E+00  3.2384353136219E-02
    26  2.5000000000000E-01  1.0691365610346E+00  1.6315204135852E-01
    27  2.6000000000000E-01  1.0559575927138E+00  2.9280206680522E-01
    28  2.7000000000000E-01  1.0447805044432E+00  4.1776271976418E-01
    29  2.8000000000000E-01  1.0374499146991E+00  5.3459290681574E-01
    30  2.9000000000000E-01  1.0356510832930E+00  6.4009987033994E-01
    31  3.0000000000000E-01  1.0408422231986E+00  7.3144895560279E-01
    32  3.1000000000000E-01  1.0541946661469E+00  8.0626166486711E-01
    33  3.2000000000000E-01  1.0765429874711E+00  8.6269864794608E-01
    34  3.3000000000000E-01  1.1083468411691E+00  8.9952480267884E-01
    35  3.4000000000000E-01  1.1496658419029E+00  9.1615427797830E-01
    36  3.5000000000000E-01  1.2001483717606E+00  9.1267386420826E-01
    37  3.6000000000000E-01  1.2590347026218E+00  8.8984399610088E-01
    38  3.7000000000000E-01  1.3251743273321E+00  8.4907735614107E-01
    39  3.8000000000000E-01  1.3970569022802E+00  7.9239582466562E-01
    40  3.9000000000000E-01  1.4728557376605E+00  7.2236725058588E-01
    41  4.0000000000000E-01  1.5504823459371E+00  6.4202418869391E-01
    42  4.1000000000000E-01  1.6276501884548E+00  5.5476734319492E-01
    43  4.2000000000000E-01  1.7019454572984E+00  4.6425695264592E-01
    44  4.3000000000000E-01  1.7709025043654E+00  3.7429573273636E-01
    45  4.4000000000000E-01  1.8320813892917E+00  2.8870724837473E-01
    46  4.5000000000000E-01  1.8831449663451E+00  2.1121370795145E-01
    47  4.6000000000000E-01  1.9219329684529E+00  1.4531715780476E-01
    48  4.7000000000000E-01  1.9465306717254E+00  9.4187905996756E-02
    49  4.8000000000000E-01  1.9553299306613E+00  6.0563728338528E-02
    50  4.9000000000000E-01  1.9470806543124E+00  4.6663017374810E-02
    51  5.0000000000000E-01  1.9209311362015E+00  5.4114541827206E-02
    52  5.1000000000000E-01  1.8764560427731E+00  8.3905908181158E-02
    53  5.2000000000000E-01  1.8136712921292E+00  1.3635217867482E-01
    54  5.3000000000000E-01  1.7330355012098E+00  2.1108542368773E-01
    55  5.4000000000000E-01  1.6354381294562E+00  3.0706529521335E-01
    56  5.5000000000000E-01  1.5221748845025E+00  4.2261002559952E-01
    57  5.6000000000000E-01  1.3949113654683E+00  5.5544660518728E-01
    58  5.7000000000000E-01  1.2556362881117E+00  7.0277829545775E-01
    59  5.8000000000000E-01  1.1066059513328E+00  8.6136711008926E-01
    60  5.9000000000000E-01  9.5028185633830E-01  1.0276284612872E+00
    61  6.0000000000000E-01  7.8926357070042E-01  1.1977348357632E+00
    62  6.1000000000000E-01  6.2621903480595E-01  1.3677251428440E+00
    63  6.2000000000000E-01  4.6381453584820E-01  1.5336162713329E+00
    64  6.3000000000000E-01  3.0464652547839E-01  1.6915134026864E+00
    65  6.4000000000000E-01  1.5117733516104E-01  1.8377157524688E+00
    66  6.5000000000000E-01  5.6766543980786E-03  1.9688146426670E+00
    67  6.6000000000000E-01 -1.2982961019634E-01  2.0817811335007E+00
    68  6.7000000000000E-01 -2.5360177207954E-01  2.1740408510309E+00
    69  6.8000000000000E-01 -3.6421910641861E-01  2.2435341198115E+00
    70  6.9000000000000E-01 -4.6060225858923E-01  2.2887600299081E+00
    71  7.0000000000000E-01 -5.4202504588332E-01  2.3088036155720E+00
    72  7.1000000000000E-01 -6.0811573907610E-01  2.3033458790338E+00
    73  7.2000000000000E-01 -6.5884825433033E-01  2.2726569379885E+00
    74  7.3000000000000E-01 -6.9452400142442E-01  2.2175730911179E+00
    75  7.4000000000000E-01 -7.1574541101942E-01  2.1394590657902E+00
    76  7.5000000000000E-01 -7.2338239302713E-01  2.0401571216292E+00
    77  7.6000000000000E-01 -7.1853315345244E-01  1.9219250211750E+00
    78  7.7000000000000E-01 -7.0248091405500E-01  1.7873651357870E+00
    79  7.8000000000000E-01 -6.7664813581122E-01  1.6393471258617E+00
    80  7.9000000000000E-01 -6.4254984383161E-01  1.4809267172542E+00
    81  8.0000000000000E-01 -6.0174759077161E-01  1.3152630917549E+00
    82  8.1000000000000E-01 -5.5580548263226E-01  1.1455373228920E+00
    83  8.2000000000000E-01 -5.0624953180729E-01  9.7487412638601E-01
    84  8.3000000000000E-01 -4.5453140546526E-01  8.0626896687006E-01
    85  8.4000000000000E-01 -4.0199741218427E-01  6.4252228060799E-01
    86  8.5000000000000E-01 -3.4986332627257E-01  4.8618225090938E-01
    87  8.6000000000000E-01 -2.9919539782518E-01  3.3949722268192E-01
    88  8.7000000000000E-01 -2.5089764758810E-01  2.0437847927283E-01
    89  8.8000000000000E-01 -2.0570530891170E-01  8.2373742359535E-02
    90  8.9000000000000E-01 -1.6418406335411E-01 -2.5348592733014E-02
    91  9.0000000000000E-01 -1.2673452948087E-01 -1.1800479647958E-01
    92  9.1000000000000E-01 -9.3601312200980E-02 -1.9519131625961E-01
    93  9.2000000000000E-01 -6.4885806992412E-02 -2.5687129878150E-01
    94  9.3000000000000E-01 -4.0561882121504E-02 -3.0335315660559E-01
    95  9.4000000000000E-01 -2.0493533093722E-02 -3.3526235165333E-01
    96  9.5000000000000E-01 -4.4536158635449E-03 -3.5350765476179E-01
    97  9.6000000000000E-01  7.8571842064408E-03 -3.5924317398613E-01
    98  9.7000000000000E-01  1.6791906566115E-02 -3.5382742903817E-01
    99  9.8000000000000E-01  2.2740039917191E-02 -3.3878069035987E-01
   100  9.9000000000000E-01  2.6111931135891E-02 -3.1574170585675E-01
   101  1.0000000000000E+00  2.7325246800390E-02 -2.8642481433299E-01
   102  1.0100000000000E+00  2.6793703790619E-02 -2.5257830094700E-01
   103  1.0200000000000E+00  2.4918135993513E-02 -2.1594469546713E-01
   104  1.0300000000000E+00  2.2079858184277E-02 -1.7822360052180E-01
   105  1.0400000000000E+00  1.8635757871174E-02 -1.4103697052500E-01
   106  1.0500000000000E+00  1.4914850532635E-02 -1.0589714529207E-01
   107  1.0600000000000E+00  1.1047009868638E-02 -7.3963046892250E-02
   108  1.0700000000000E+00  7.2606904723593E-03 -4.6393576802999E-02
   109  1.0800000000000E+00  3.9742671301111E-03 -2.4443826708688E-02
   110  1.0900000000000E+00  1.5291813505586E-03 -9.1109327930197E-03
   111  1.1000000000000E+00  1.9668709120487E-04 -1.1405437485102E-03
   112  1.1100000000000E+00 -9.1866212170492E-06  5.2306772114655E-05
   113  1.1200000000000E+00 -5.2179337134472E-07  3.0340695565345E-06
   114  1.13  0.  0.
   115  1.14  0.  0.
   116  1.15  0.  0.
   117  1.16  0.  0.
   118  1.17  0.  0.
   119  1.18  0.  0.
   120  1.19  0.  0.
   121  1.20  0.  0.
   122  1.21  0.  0.
   123  1.22  0.  0.
   124  1.23  0.  0.
   125  1.24  0.  0.
   126  1.25  0.  0.
   127  1.26  0.  0.
   128  1.27  0.  0.
   129  1.28  0.  0.
   130  1.29  0.  0.
   131  1.30  0.  0.
   132  1.31  0.  0.
   133  1.32  0.  0.
   134  1.33  0.  0.
   135  1.34  0.  0.
   136  1.35  0.  0.
   137  1.36  0.  0.
   138  1.37  0.  0.
   139  1.38  0.  0.
   140  1.39  0.  0.
   141  1.40  0.  0.
   142  1.41  0.  0.
   143  1.42  0.  0.
   144  1.43  0.  0.
   145  1.44  0.  0.
   146  1.45  0.  0.
   147  1.46  0.  0.
   148  1.47  0.  0.
   149  1.48  0.  0.
   150  1.49  0.  0.
   151  1.50  0.  0.
   152  1.51  0.  0.
   153  1.52  0.  0.
   154  1.53  0.  0.
   155  1.54  0.  0.
   156  1.55  0.  0.
   157  1.56  0.  0.
   158  1.57  0.  0.
   159  1.58  0.  0.
   160  1.59  0.  0.
   161  1.60  0.  0.
   162  1.61  0.  0.
   163  1.62  0.  0.
   164  1.63  0.  0.
   165  1.64  0.  0.
   166  1.65  0.  0.
   167  1.66  0.  0.
   168  1.67  0.  0.
   169  1.68  0.  0.
   170  1.69  0.  0.
   171  1.70  0.  0.
   172  1.71  0.  0.
   173  1.72  0.  0.
   174  1.73  0.  0.
   175  1.74  0.  0.
   176  1.75  0.  0.
   177  1.76  0.  0.
   178  1.77  0.  0.
   179  1.78  0.  0.
   180  1.79  0.  0.
   181  1.80  0.  0.
   182  1.81  0.  0.
   183  1.82  0.  0.
   184  1.83  0.  0.
   185  1.84  0.  0.
   186  1.85  0.  0.
   187  1.86  0.  0.
   188  1.87  0.  0.
   189  1.88  0.  0.
   190  1.89  0.  0.
   191  1.90  0.  0.
   192  1.91  0.  0.
   193  1.92  0.  0.
   194  1.93  0.  0.
   195  1.94  0.  0.
   196  1.95  0.  0.
   197  1.96  0.  0.
   198  1.97  0.  0.
   199  1.98  0.  0.
   200  1.99  0.  0.
   201  2.00  0.  0.
   202  2.01  0.  0.
   203  2.02  0.  0.
   204  2.03  0.  0.
   205  2.04  0.  0.
   206  2.05  0.  0.
   207  2.06  0.  0.
   208  2.07  0.  0.
   209  2.08  0.  0.
   210  2.09  0.  0.
   211  2.10  0.  0.
   212  2.11  0.  0.
   213  2.12  0.  0.
   214  2.13  0.  0.
   215  2.14  0.  0.
   216  2.15  0.  0.
   217  2.16  0.  0.
   218  2.17  0.  0.
   219  2.18  0.  0.
   220  2.19  0.  0.
   221  2.20  0.  0.
   222  2.21  0.  0.
   223  2.22  0.  0.
   224  2.23  0.  0.
   225  2.24  0.  0.
   226  2.25  0.  0.
   227  2.26  0.  0.
   228  2.27  0.  0.
   229  2.28  0.  0.
   230  2.29  0.  0.
   231  2.30  0.  0.
   232  2.31  0.  0.
   233  2.32  0.  0.
   234  2.33  0.  0.
   235  2.34  0.  0.
   236  2.35  0.  0.
   237  2.36  0.  0.
   238  2.37  0.  0.
   239  2.38  0.  0.
   240  2.39  0.  0.
   241  2.40  0.  0.
   242  2.41  0.  0.
   243  2.42  0.  0.
   244  2.43  0.  0.
   245  2.44  0.  0.
   246  2.45  0.  0.
   247  2.46  0.  0.
   248  2.47  0.  0.
   249  2.48  0.  0.
   250  2.49  0.  0.
   251  2.50  0.  0.
   252  2.51  0.  0.
   253  2.52  0.  0.
   254  2.53  0.  0.
   255  2.54  0.  0.
   256  2.55  0.  0.
   257  2.56  0.  0.
   258  2.57  0.  0.
   259  2.58  0.  0.
   260  2.59  0.  0.
   261  2.60  0.  0.
   262  2.61  0.  0.
   263  2.62  0.  0.
   264  2.63  0.  0.
   265  2.64  0.  0.
   266  2.65  0.  0.
   267  2.66  0.  0.
   268  2.67  0.  0.
   269  2.68  0.  0.
   270  2.69  0.  0.
   271  2.70  0.  0.
   272  2.71  0.  0.
   273  2.72  0.  0.
   274  2.73  0.  0.
   275  2.74  0.  0.
   276  2.75  0.  0.
   277  2.76  0.  0.
   278  2.77  0.  0.
   279  2.78  0.  0.
   280  2.79  0.  0.
   281  2.80  0.  0.
   282  2.81  0.  0.
   283  2.82  0.  0.
   284  2.83  0.  0.
   285  2.84  0.  0.
   286  2.85  0.  0.
   287  2.86  0.  0.
   288  2.87  0.  0.
   289  2.88  0.  0.
   290  2.89  0.  0.
   291  2.90  0.  0.
   292  2.91  0.  0.
   293  2.92  0.  0.
   294  2.93  0.  0.
   295  2.94  0.  0.
   296  2.95  0.  0.
   297  2.96  0.  0.
   298  2.97  0.  0.
   299  2.98  0.  0.
   300  2.99  0.  0.
   301  3.00  0.  0.
   302  3.01  0.  0.
   303  3.02  0.  0.
   304  3.03  0.  0.
   305  3.04  0.  0.
   306  3.05  0.  0.
   307  3.06  0.  0.
   308  3.07  0.  0.
   309  3.08  0.  0.
   310  3.09  0.  0.
   311  3.10  0.  0.
   312  3.11  0.  0.
   313  3.12  0.  0.
   314  3.13  0.  0.
   315  3.14  0.  0.
   316  3.15  0.  0.
   317  3.16  0.  0.
   318  3.17  0.  0.
   319  3.18  0.  0.
   320  3.19  0.  0.
   321  3.20  0.  0.
   322  3.21  0.  0.
   323  3.22  0.  0.
   324  3.23  0.  0.
   325  3.24  0.  0.
   326  3.25  0.  0.
   327  3.26  0.  0.
   328  3.27  0.  0.
   329  3.28  0.  0.
   330  3.29  0.  0.
   331  3.30  0.  0.
   332  3.31  0.  0.
   333  3.32  0.  0.
   334  3.33  0.  0.
   335  3.34  0.  0.
   336  3.35  0.  0.
   337  3.36  0.  0.
   338  3.37  0.  0.
   339  3.38  0.  0.
   340  3.39  0.  0.
   341  3.40  0.  0.
   342  3.41  0.  0.
   343  3.42  0.  0.
   344  3.43  0.  0.
   345  3.44  0.  0.
   346  3.45  0.  0.
   347  3.46  0.  0.
   348  3.47  0.  0.
   349  3.48  0.  0.
   350  3.49  0.  0.
   351  3.50  0.  0.
   352  3.51  0.  0.
   353  3.52  0.  0.
   354  3.53  0.  0.
   355  3.54  0.  0.
   356  3.55  0.  0.
   357  3.56  0.  0.
   358  3.57  0.  0.
   359  3.58  0.  0.
   360  3.59  0.  0.
   361  3.60  0.  0.
   362  3.61  0.  0.
   363  3.62  0.  0.
   364  3.63  0.  0.
   365  3.64  0.  0.
   366  3.65  0.  0.
   367  3.66  0.  0.
   368  3.67  0.  0.
   369  3.68  0.  0.
   370  3.69  0.  0.
   371  3.70  0.  0.
   372  3.71  0.  0.
   373  3.72  0.  0.
   374  3.73  0.  0.
   375  3.74  0.  0.
   376  3.75  0.  0.
   377  3.76  0.  0.
   378  3.77  0.  0.
   379  3.78  0.  0.
   380  3.79  0.  0.
   381  3.80  0.  0.
   382  3.81  0.  0.
   383  3.82  0.  0.
   384  3.83  0.  0.
   385  3.84  0.  0.
   386  3.85  0.  0.
   387  3.86  0.  0.
   388  3.87  0.  0.
   389  3.88  0.  0.
   390  3.89  0.  0.
   391  3.90  0.  0.
   392  3.91  0.  0.
   393  3.92  0.  0.
   394  3.93  0.  0.
   395  3.94  0.  0.
   396  3.95  0.  0.
   397  3.96  0.  0.
   398  3.97  0.  0.
   399  3.98  0.  0.
   400  3.99  0.  0.
   4
     1  0.0000000000000E+00 -6.2685232619636E+00
     2  1.0000000000000E-02 -6.2678196211429E+00
     3  2.0000000000000E-02 -6.2657088473121E+00