Rh    ONCVPSP-4.0.1  r_core=   1.40667   1.40667   1.35707
     45.0000     17.0000      250217    zatom,zion,pspd
     8       2   2     4   600     0    pspcod,pspxc,lmax,lloc,mmax,r2well
  5.99000000  7.00000000  0.00000000    rchrg fchrg qchrg
     2     2     3     0    nproj
     3     1           extension_switch
     4     4     0    nprojso
   0                         1.5126787125357E+01  1.2837464883034E+00
     1  0.0000000000000E+00 -2.2376056563189E-10  1.1027130875085E-09
     2  1.0000000000000E-02  7.8092526994879E-02 -4.1206859475827E-02
     3  2.0000000000000E-02  1.5600232532106E-01 -8.2157191299823E-02
     4  3.0000000000000E-02  2.3354728367638E-01 -1.2259620920291E-01
     5  4.0000000000000E-02  3.1054652127204E-01 -1.6227259017467E-01
     6  5.0000000000000E-02  3.8682099259802E-01 -2.0094015761206E-01
     7  6.0000000000000E-02  4.6219407976144E-01 -2.3835950708906E-01
     8  7.0000000000000E-02  5.3649216852278E-01 -2.7429955693726E-01
     9  8.0000000000000E-02  6.0954520437895E-01 -3.0853900693022E-01
    10  9.0000000000000E-02  6.8118722531487E-01 -3.4086768971087E-01
    11  1.0000000000000E-01  7.5125686816273E-01 -3.7108780117064E-01
    12  1.1000000000000E-01  8.1959784586488E-01 -3.9901499775894E-01
    13  1.2000000000000E-01  8.8605939332718E-01 -4.2447935064248E-01
    14  1.3000000000000E-01  9.5049667996716E-01 -4.4732614871840E-01
    15  1.4000000000000E-01  1.0127711874998E+00 -4.6741654467983E-01
    16  1.5000000000000E-01  1.0727510519557E+00 -4.8462804060379E-01
    17  1.6000000000000E-01  1.1303113693824E+00 -4.9885481184478E-01
    18  1.7000000000000E-01  1.1853344651370E+00 -5.1000787033604E-01
    19  1.8000000000000E-01  1.2377101271233E+00 -5.1801507068911E-01
    20  1.9000000000000E-01  1.2873358037548E+00 -5.2282096470503E-01
    21  2.0000000000000E-01  1.3341167678330E+00 -5.2438651203157E-01
    22  2.1000000000000E-01  1.3779662479010E+00 -5.2268865668777E-01
    23  2.2000000000000E-01  1.4188055289724E+00 -5.1771978099761E-01
    24  2.3000000000000E-01  1.4565640248258E+00 -5.0948705009894E-01
    25  2.4000000000000E-01  1.4911793243032E+00 -4.9801166159739E-01
    26  2.5000000000000E-01  1.5225972142400E+00 -4.8332801609168E-01
    27  2.6000000000000E-01  1.5507716817922E+00 -4.6548282519107E-01
    28  2.7000000000000E-01  1.5756648990020E+00 -4.4453417425814E-01
    29  2.8000000000000E-01  1.5972471924608E+00 -4.2055055743264E-01
    30  2.9000000000000E-01  1.6154970008806E+00 -3.9360990251755E-01
    31  3.0000000000000E-01  1.6304008232846E+00 -3.6379860303269E-01
    32  3.1000000000000E-01  1.6419531603573E+00 -3.3121057417105E-01
    33  3.2000000000000E-01  1.6501564512765E+00 -2.9594634853208E-01
    34  3.3000000000000E-01  1.6550210080759E+00 -2.5811222636968E-01
    35  3.4000000000000E-01  1.6565649492610E+00 -2.1781949369604E-01
    36  3.5000000000000E-01  1.6548141340399E+00 -1.7518371994778E-01
    37  3.6000000000000E-01  1.6498020981234E+00 -1.3032414507267E-01
    38  3.7000000000000E-01  1.6415699916250E+00 -8.3363163864543E-02
    39  3.8000000000000E-01  1.6301665191303E+00 -3.4425913190953E-02
    40  3.9000000000000E-01  1.6156478815476E+00  1.6360034539859E-02
    41  4.0000000000000E-01  1.5980777188779E+00  6.8864870701917E-02
    42  4.1000000000000E-01  1.5775270525784E+00  1.2295664400659E-01
    43  4.2000000000000E-01  1.5540742257467E+00  1.7850125214420E-01
    44  4.3000000000000E-01  1.5278048389220E+00  2.3536233773083E-01
    45  4.4000000000000E-01  1.4988116789116E+00  2.9340109706020E-01
    46  4.5000000000000E-01  1.4671946376950E+00  3.5247601231277E-01
    47  4.6000000000000E-01  1.4330606181600E+00  4.1244251986068E-01
    48  4.7000000000000E-01  1.3965234231789E+00  4.7315262908969E-01
    49  4.8000000000000E-01  1.3577036243566E+00  5.3445450770334E-01
    50  4.9000000000000E-01  1.3167284066733E+00  5.9619205074776E-01
    51  5.0000000000000E-01  1.2737313852139E+00  6.5820445157185E-01
    52  5.1000000000000E-01  1.2288523902224E+00  7.2032579359197E-01
    53  5.2000000000000E-01  1.1822372168552E+00  7.8238468204579E-01
    54  5.3000000000000E-01  1.1340373362162E+00  8.4420393488179E-01
    55  5.4000000000000E-01  1.0844095645602E+00  9.0560035153346E-01
    56  5.5000000000000E-01  1.0335156879312E+00  9.6638457756615E-01
    57  5.6000000000000E-01  9.8152203996235E-01  1.0263610820658E+00
    58  5.7000000000000E-01  9.2859903110144E-01  1.0853282631721E+00
    59  5.8000000000000E-01  8.7492062813253E-01  1.1430786953580E+00
    60  5.9000000000000E-01  8.2066378353096E-01  1.1993995299488E+00
    61  6.0000000000000E-01  7.6600781491251E-01  1.2540730579808E+00
    62  6.1000000000000E-01  7.1113373560372E-01  1.3068774418550E+00
    63  6.2000000000000E-01  6.5622353816072E-01  1.3575876193878E+00
    64  6.3000000000000E-01  6.0145943348642E-01  1.4059763808340E+00
    65  6.4000000000000E-01  5.4702304902808E-01  1.4518156163039E+00
    66  6.5000000000000E-01  4.9309459036597E-01  1.4948777277746E+00
    67  6.6000000000000E-01  4.3985197131604E-01  1.5349371966417E+00
    68  6.7000000000000E-01  3.8746991845097E-01  1.5717722945359E+00
    69  6.8000000000000E-01  3.3611905668209E-01  1.6051669219939E+00
    70  6.9000000000000E-01  2.8596498322464E-01  1.6349125565673E+00
    71  7.0000000000000E-01  2.3716733787903E-01  1.6608102891444E+00
    72  7.1000000000000E-01  1.8987887808815E-01  1.6826729246894E+00
    73  7.2000000000000E-01  1.4424456766388E-01  1.7003271213228E+00
    74  7.3000000000000E-01  1.0040068840509E-01  1.7136155397228E+00
    75  7.4000000000000E-01  5.8473984044380E-02  1.7223989732609E+00
    76  7.5000000000000E-01  1.8580846055273E-02  1.7265584281280E+00
    77  7.6000000000000E-01 -1.9173449181355E-02  1.7259971219955E+00
    78  7.7000000000000E-01 -5.4695442517476E-02  1.7206423695117E+00
    79  7.8000000000000E-01 -8.7904124448233E-02  1.7104473231696E+00
    80  7.9000000000000E-01 -1.1873148918852E-01  1.6953925388181E+00
    81  8.0000000000000E-01 -1.4712300237653E-01  1.6754873363137E+00
    82  8.1000000000000E-01 -1.7303797505868E-01  1.6507709275318E+00
    83  8.2000000000000E-01 -1.9644983742715E-01  1.6213132861517E+00
    84  8.3000000000000E-01 -2.1734630671317E-01  1.5872157362807E+00
    85  8.4000000000000E-01 -2.3572944467738E-01  1.5486112400646E+00
    86  8.5000000000000E-01 -2.5161560126980E-01  1.5056643678998E+00
    87  8.6000000000000E-01 -2.6503524224509E-01  1.4585709386786E+00
    88  8.7000000000000E-01 -2.7603265979670E-01  1.4075573216160E+00
    89  8.8000000000000E-01 -2.8466556660176E-01  1.3528793955616E+00
    90  8.9000000000000E-01 -2.9100457502864E-01  1.2948211662383E+00
    91  9.0000000000000E-01 -2.9513256463300E-01  1.2336930465035E+00
    92  9.1000000000000E-01 -2.9714394243677E-01  1.1698298094334E+00
    93  9.2000000000000E-01 -2.9714380182867E-01  1.1035882287113E+00
    94  9.3000000000000E-01 -2.9524698722453E-01  1.0353444253896E+00
    95  9.4000000000000E-01 -2.9157707286184E-01  9.6549094452058E-01
    96  9.5000000000000E-01 -2.8626526525680E-01  8.9443358933936E-01
    97  9.6000000000000E-01 -2.7944923990514E-01  8.2258804456871E-01
    98  9.7000000000000E-01 -2.7127192374388E-01  7.5037632393522E-01
    99  9.8000000000000E-01 -2.6188023569294E-01  6.7822308007335E-01
   100  9.9000000000000E-01 -2.5142379825099E-01  6.0655181760075E-01
   101  1.0000000000000E+00 -2.4005363361481E-01  5.3578105222028E-01
   102  1.0100000000000E+00 -2.2792085811743E-01  4.6632046020175E-01
   103  1.0200000000000E+00 -2.1517538892793E-01  3.9856706348537E-01
   104  1.0300000000000E+00 -2.0196467692118E-01  3.3290149590523E-01
   105  1.0400000000000E+00 -1.8843247940455E-01  2.6968439563668E-01
   106  1.0500000000000E+00 -1.7471768598151E-01  2.0925296792213E-01
   107  1.0600000000000E+00 -1.6095321024163E-01  1.5191776042886E-01
   108  1.0700000000000E+00 -1.4726495919620E-01  9.7959691249008E-02
   109  1.0800000000000E+00 -1.3377089143982E-01  4.7627366599127E-02
   110  1.0900000000000E+00 -1.2058017391649E-01  1.1347217338463E-03
   111  1.1000000000000E+00 -1.0779244592162E-01 -4.1340985490520E-02
   112  1.1100000000000E+00 -9.5497197591449E-02 -7.9660803533718E-02
   113  1.1200000000000E+00 -8.3773268634681E-02 -1.1372531870927E-01
   114  1.1300000000000E+00 -7.2688471473529E-02 -1.4347547483420E-01
   115  1.1400000000000E+00 -6.2299341291352E-02 -1.6889297215443E-01
   116  1.1500000000000E+00 -5.2651013771423E-02 -1.9000024256154E-01
   117  1.1600000000000E+00 -4.3777229558099E-02 -2.0686000413784E-01
   118  1.1700000000000E+00 -3.5700462724337E-02 -2.1957440409616E-01
   119  1.1800000000000E+00 -2.8432168791104E-02 -2.2828376520379E-01
   120  1.1900000000000E+00 -2.1973146156100E-02 -2.3316495665097E-01
   121  1.2000000000000E+00 -1.6314003165274E-02 -2.3442941599119E-01
   122  1.2100000000000E+00 -1.1435721524418E-02 -2.3232085415854E-01
   123  1.2200000000000E+00 -7.3103053322041E-03 -2.2711268053869E-01
   124  1.2300000000000E+00 -3.9015037212952E-03 -2.1910518962940E-01
   125  1.2400000000000E+00 -1.1655939630582E-03 -2.0862255482074E-01
   126  1.2500000000000E+00  9.4778907893517E-04 -1.9600967826179E-01
   127  1.2600000000000E+00  2.4947920462275E-03 -1.8162894857015E-01
   128  1.2700000000000E+00  3.5364662205579E-03 -1.6585696023651E-01
   129  1.2800000000000E+00  4.1378906954411E-03 -1.4908125055784E-01
   130  1.2900000000000E+00  4.3673120703063E-03 -1.3169711197925E-01
   131  1.3000000000000E+00  4.2953067149307E-03 -1.1410448908169E-01
   132  1.3100000000000E+00  3.9938980831898E-03 -9.6704617683979E-02
   133  1.3200000000000E+00  3.5334799601907E-03 -7.9886367863346E-02
   134  1.3300000000000E+00  2.9789156142175E-03 -6.4008821825920E-02
   135  1.3400000000000E+00  2.3860186358667E-03 -4.9389224673395E-02
   136  1.3500000000000E+00  1.7903642354163E-03 -3.6266940081249E-02
   137  1.3600000000000E+00  1.2362170981822E-03 -2.4893635424652E-02
   138  1.3700000000000E+00  7.6232409842252E-04 -1.5490210117184E-02
   139  1.3800000000000E+00  3.9505900248353E-04 -8.2250371180983E-03
   140  1.3900000000000E+00  1.4810926962737E-04 -3.2123322463772E-03
   141  1.4000000000000E+00  2.2960788273913E-05 -5.2913976205614E-04
   142  1.4100000000000E+00 -1.6435957511668E-06  3.9883065662254E-05
   143  1.4200000000000E+00  4.7489507816974E-07 -1.1224603975493E-05
   144  1.43  0.  0.
   145  1.44  0.  0.
   146  1.45  0.  0.
   147  1.46  0.  0.
   148  1.47  0.  0.
   149  1.48  0.  0.
   150  1.49  0.  0.
   151  1.50  0.  0.
   152  1.51  0.  0.
   153  1.52  0.  0.
   154  1.53  0.  0.
   155  1.54  0.  0.
   156  1.55  0.  0.
   157  1.56  0.  0.
   158  1.57  0.  0.
   159  1.58  0.  0.
   160  1.59  0.  0.
   161  1.60  0.  0.
   162  1.61  0.  0.
   163  1.62  0.  0.
   164  1.63  0.  0.
   165  1.64  0.  0.
   166  1.65  0.  0.
   167  1.66  0.  0.
   168  1.67  0.  0.
   169  1.68  0.  0.
   170  1.69  0.  0.
   171  1.70  0.  0.
   172  1.71  0.  0.
   173  1.72  0.  0.
   174  1.73  0.  0.
   175  1.74  0.  0.
   176  1.75  0.  0.
   177  1.76  0.  0.
   178  1.77  0.  0.
   179  1.78  0.  0.
   180  1.79  0.  0.
   181  1.80  0.  0.
   182  1.81  0.  0.
   183  1.82  0.  0.
   184  1.83  0.  0.
   185  1.84  0.  0.
   186  1.85  0.  0.
   187  1.86  0.  0.
   188  1.87  0.  0.
   189  1.88  0.  0.
   190  1.89  0.  0.
   191  1.90  0.  0.
   192  1.91  0.  0.
   193  1.92  0.  0.
   194  1.93  0.  0.
   195  1.94  0.  0.
   196  1.95  0.  0.
   197  1.96  0.  0.
   198  1.97  0.  0.
   199  1.98  0.  0.
   200  1.99  0.  0.
   201  2.00  0.  0.
   202  2.01  0.  0.
   203  2.02  0.  0.
   204  2.03  0.  0.
   205  2.04  0.  0.
   206  2.05  0.  0.
   207  2.06  0.  0.
   208  2.07  0.  0.
   209  2.08  0.  0.
   210  2.09  0.  0.
   211  2.10  0.  0.
   212  2.11  0.  0.
   213  2.12  0.  0.
   214  2.13  0.  0.
   215  2.14  0.  0.
   216  2.15  0.  0.
   217  2.16  0.  0.
   218  2.17  0.  0.
   219  2.18  0.  0.
   220  2.19  0.  0.
   221  2.20  0.  0.
   222  2.21  0.  0.
   223  2.22  0.  0.
   224  2.23  0.  0.
   225  2.24  0.  0.
   226  2.25  0.  0.
   227  2.26  0.  0.
   228  2.27  0.  0.
   229  2.28  0.  0.
   230  2.29  0.  0.
   231  2.30  0.  0.
   232  2.31  0.  0.
   233  2.32  0.  0.
   234  2.33  0.  0.
   235  2.34  0.  0.
   236  2.35  0.  0.
   237  2.36  0.  0.
   238  2.37  0.  0.
   239  2.38  0.  0.
   240  2.39  0.  0.
   241  2.40  0.  0.
   242  2.41  0.  0.
   243  2.42  0.  0.
   244  2.43  0.  0.
   245  2.44  0.  0.
   246  2.45  0.  0.
   247  2.46  0.  0.
   248  2.47  0.  0.
   249  2.48  0.  0.
   250  2.49  0.  0.
   251  2.50  0.  0.
   252  2.51  0.  0.
   253  2.52  0.  0.
   254  2.53  0.  0.
   255  2.54  0.  0.
   256  2.55  0.  0.
   257  2.56  0.  0.
   258  2.57  0.  0.
   259  2.58  0.  0.
   260  2.59  0.  0.
   261  2.60  0.  0.
   262  2.61  0.  0.
   263  2.62  0.  0.
   264  2.63  0.  0.
   265  2.64  0.  0.
   266  2.65  0.  0.
   267  2.66  0.  0.
   268  2.67  0.  0.
   269  2.68  0.  0.
   270  2.69  0.  0.
   271  2.70  0.  0.
   272  2.71  0.  0.
   273  2.72  0.  0.
   274  2.73  0.  0.
   275  2.74  0.  0.
   276  2.75  0.  0.
   277  2.76  0.  0.
   278  2.77  0.  0.
   279  2.78  0.  0.
   280  2.79  0.  0.
   281  2.80  0.  0.
   282  2.81  0.  0.
   283  2.82  0.  0.
   284  2.83  0.  0.
   285  2.84  0.  0.
   286  2.85  0.  0.
   287  2.86  0.  0.
   288  2.87  0.  0.
   289  2.88  0.  0.
   290  2.89  0.  0.
   291  2.90  0.  0.
   292  2.91  0.  0.
   293  2.92  0.  0.
   294  2.93  0.  0.
   295  2.94  0.  0.
   296  2.95  0.  0.
   297  2.96  0.  0.
   298  2.97  0.  0.
   299  2.98  0.  0.
   300  2.99  0.  0.
   301  3.00  0.  0.
   302  3.01  0.  0.
   303  3.02  0.  0.
   304  3.03  0.  0.
   305  3.04  0.  0.
   306  3.05  0.  0.
   307  3.06  0.  0.
   308  3.07  0.  0.
   309  3.08  0.  0.
   310  3.09  0.  0.
   311  3.10  0.  0.
   312  3.11  0.  0.
   313  3.12  0.  0.
   314  3.13  0.  0.
   315  3.14  0.  0.
   316  3.15  0.  0.
   317  3.16  0.  0.
   318  3.17  0.  0.
   319  3.18  0.  0.
   320  3.19  0.  0.
   321  3.20  0.  0.
   322  3.21  0.  0.
   323  3.22  0.  0.
   324  3.23  0.  0.
   325  3.24  0.  0.
   326  3.25  0.  0.
   327  3.26  0.  0.
   328  3.27  0.  0.
   329  3.28  0.  0.
   330  3.29  0.  0.
   331  3.30  0.  0.
   332  3.31  0.  0.
   333  3.32  0.  0.
   334  3.33  0.  0.
   335  3.34  0.  0.
   336  3.35  0.  0.
   337  3.36  0.  0.
   338  3.37  0.  0.
   339  3.38  0.  0.
   340  3.39  0.  0.
   341  3.40  0.  0.
   342  3.41  0.  0.
   343  3.42  0.  0.
   344  3.43  0.  0.
   345  3.44  0.  0.
   346  3.45  0.  0.
   347  3.46  0.  0.
   348  3.47  0.  0.
   349  3.48  0.  0.
   350  3.49  0.  0.
   351  3.50  0.  0.
   352  3.51  0.  0.
   353  3.52  0.  0.
   354  3.53  0.  0.
   355  3.54  0.  0.
   356  3.55  0.  0.
   357  3.56  0.  0.
   358  3.57  0.  0.
   359  3.58  0.  0.
   360  3.59  0.  0.
   361  3.60  0.  0.
   362  3.61  0.  0.
   363  3.62  0.  0.
   364  3.63  0.  0.
   365  3.64  0.  0.
   366  3.65  0.  0.
   367  3.66  0.  0.
   368  3.67  0.  0.
   369  3.68  0.  0.
   370  3.69  0.  0.
   371  3.70  0.  0.
   372  3.71  0.  0.
   373  3.72  0.  0.
   374  3.73  0.  0.
   375  3.74  0.  0.
   376  3.75  0.  0.
   377  3.76  0.  0.
   378  3.77  0.  0.
   379  3.78  0.  0.
   380  3.79  0.  0.
   381  3.80  0.  0.
   382  3.81  0.  0.
   383  3.82  0.  0.
   384  3.83  0.  0.
   385  3.84  0.  0.
   386  3.85  0.  0.
   387  3.86  0.  0.
   388  3.87  0.  0.
   389  3.88  0.  0.
   390  3.89  0.  0.
   391  3.90  0.  0.
   392  3.91  0.  0.
   393  3.92  0.  0.
   394  3.93  0.  0.
   395  3.94  0.  0.
   396  3.95  0.  0.
   397  3.96  0.  0.
   398  3.97  0.  0.
   399  3.98  0.  0.
   400  3.99  0.  0.
   401  4.00  0.  0.
   402  4.01  0.  0.
   403  4.02  0.  0.
   404  4.03  0.  0.
   405  4.04  0.  0.
   406  4.05  0.  0.
   407  4.06  0.  0.
   408  4.07  0.  0.
   409  4.08  0.  0.
   410  4.09  0.  0.
   411  4.10  0.  0.
   412  4.11  0.  0.
   413  4.12  0.  0.
   414  4.13  0.  0.
   415  4.14  0.  0.
   416  4.15  0.  0.
   417  4.16  0.  0.
   418  4.17  0.  0.
   419  4.18  0.  0.
   420  4.19  0.  0.
   421  4.20  0.  0.
   422  4.21  0.  0.
   423  4.22  0.  0.
   424  4.23  0.  0.
   425  4.24  0.  0.
   426  4.25  0.  0.
   427  4.26  0.  0.
   428  4.27  0.  0.
   429  4.28  0.  0.
   430  4.29  0.  0.
   431  4.30  0.  0.
   432  4.31  0.  0.
   433  4.32  0.  0.
   434  4.33  0.  0.
   435  4.34  0.  0.
   436  4.35  0.  0.
   437  4.36  0.  0.
   438  4.37  0.  0.
   439  4.38  0.  0.
   440  4.39  0.  0.
   441  4.40  0.  0.
   442  4.41  0.  0.
   443  4.42  0.  0.
   444  4.43  0.  0.
   445  4.44  0.  0.
   446  4.45  0.  0.
   447  4.46  0.  0.
   448  4.47  0.  0.
   449  4.48  0.  0.
   450  4.49  0.  0.
   451  4.50  0.  0.
   452  4.51  0.  0.
   453  4.52  0.  0.
   454  4.53  0.  0.
   455  4.54  0.  0.
   456  4.55  0.  0.
   457  4.56  0.  0.
   458  4.57  0.  0.
   459  4.58  0.  0.
   460  4.59  0.  0.
   461  4.60  0.  0.
   462  4.61  0.  0.
   463  4.62  0.  0.
   464  4.63  0.  0.
   465  4.64  0.  0.
   466  4.65  0.  0.
   467  4.66  0.  0.
   468  4.67  0.  0.
   469  4.68  0.  0.
   470  4.69  0.  0.
   471  4.70  0.  0.
   472  4.71  0.  0.
   473  4.72  0.  0.
   474  4.73  0.  0.
   475  4.74  0.  0.
   476  4.75  0.  0.
   477  4.76  0.  0.
   478  4.77  0.  0.
   479  4.78  0.  0.
   480  4.79  0.  0.
   481  4.80  0.  0.
   482  4.81  0.  0.
   483  4.82  0.  0.
   484  4.83  0.  0.
   485  4.84  0.  0.
   486  4.85  0.  0.
   487  4.86  0.  0.
   488  4.87  0.  0.
   489  4.88  0.  0.
   490  4.89  0.  0.
   491  4.90  0.  0.
   492  4.91  0.  0.
   493  4.92  0.  0.
   494  4.93  0.  0.
   495  4.94  0.  0.
   496  4.95  0.  0.
   497  4.96  0.  0.
   498  4.97  0.  0.
   499  4.98  0.  0.
   500  4.99  0.  0.
   501  5.00  0.  0.
   502  5.01  0.  0.
   503  5.02  0.  0.
   504  5.03  0.  0.
   505  5.04  0.  0.
   506  5.05  0.  0.
   507  5.06  0.  0.
   508  5.07  0.  0.
   509  5.08  0.  0.
   510  5.09  0.  0.
   511  5.10  0.  0.
   512  5.11  0.  0.
   513  5.12  0.  0.
   514  5.13  0.  0.
   515  5.14  0.  0.
   516  5.15  0.  0.
   517  5.16  0.  0.
   518  5.17  0.  0.
   519  5.18  0.  0.
   520  5.19  0.  0.
   521  5.20  0.  0.
   522  5.21  0.  0.
   523  5.22  0.  0.
   524  5.23  0.  0.
   525  5.24  0.  0.
   526  5.25  0.  0.
   527  5.26  0.  0.
   528  5.27  0.  0.
   529  5.28  0.  0.
   530  5.29  0.  0.
   531  5.30  0.  0.
   532  5.31  0.  0.
   533  5.32  0.  0.
   534  5.33  0.  0.
   535  5.34  0.  0.
   536  5.35  0.  0.
   537  5.36  0.  0.
   538  5.37  0.  0.
   539  5.38  0.  0.
   540  5.39  0.  0.
   541  5.40  0.  0.
   542  5.41  0.  0.
   543  5.42  0.  0.
   544  5.43  0.  0.
   545  5.44  0.  0.
   546  5.45  0.  0.
   547  5.46  0.  0.
   548  5.47  0.  0.
   549  5.48  0.  0.
   550  5.49  0.  0.
   551  5.50  0.  0.
   552  5.51  0.  0.
   553  5.52  0.  0.
   554  5.53  0.  0.
   555  5.54  0.  0.
   556  5.55  0.  0.
   557  5.56  0.  0.
   558  5.57  0.  0.
   559  5.58  0.  0.
   560  5.59  0.  0.
   561  5.60  0.  0.
   562  5.61  0.  0.
   563  5.62  0.  0.
   564  5.63  0.  0.
   565  5.64  0.  0.
   566  5.65  0.  0.
   567  5.66  0.  0.
   568  5.67  0.  0.
   569  5.68  0.  0.
   570  5.69  0.  0.
   571  5.70  0.  0.
   572  5.71  0.  0.
   573  5.72  0.  0.
   574  5.73  0.  0.
   575  5.74  0.  0.
   576  5.75  0.  0.
   577  5.76  0.  0.
   578  5.77  0.  0.
   579  5.78  0.  0.
   580  5.79  0.  0.
   581  5.80  0.  0.
   582  5.81  0.  0.
   583  5.82  0.  0.
   584  5.83  0.  0.
   585  5.84  0.  0.
   586  5.85  0.  0.
   587  5.86  0.  0.
   588  5.87  0.  0.
   589  5.88  0.  0.
   590  5.89  0.  0.
   591  5.90  0.  0.
   592  5.91  0.  0.
   593  5.92  0.  0.
   594  5.93  0.  0.
   595  5.94  0.  0.
   596  5.95  0.  0.
   597  5.96  0.  0.
   598  5.97  0.  0.
   599  5.98  0.  0.
   600  5.99  0.  0.
   1                         7.1202520302246E+00  9.7446402124251E-01
     1  0.0000000000000E+00  2.6921673224045E-09 -6.9618138198724E-09
     2  1.0000000000000E-02  2.1640284800678E-03 -1.3167640165742E-03
     3  2.0000000000000E-02  8.6432949401407E-03 -5.2499704198619E-03
     4  3.0000000000000E-02  1.9399454731004E-02 -1.1748601438611E-02
     5  4.0000000000000E-02  3.4368972853615E-02 -2.0728420627014E-02
     6  5.0000000000000E-02  5.3463677670037E-02 -3.2073148508028E-02
     7  6.0000000000000E-02  7.6571525367167E-02 -4.5636080504894E-02
     8  7.0000000000000E-02  1.0355756466229E-01 -6.1242119798673E-02
     9  8.0000000000000E-02  1.3426508854723E-01 -7.8690190787774E-02
    10  9.0000000000000E-02  1.6851695740142E-01 -9.7755992484009E-02
    11  1.0000000000000E-01  2.0611707560450E-01 -1.1819504557306E-01
    12  1.1000000000000E-01  2.4685200188448E-01 -1.3974598209820E-01
    13  1.2000000000000E-01  2.9049267207853E-01 -1.6213402288025E-01
    14  1.3000000000000E-01  3.3679621178596E-01 -1.8507458493412E-01
    15  1.4000000000000E-01  3.8550781557719E-01 -2.0827695933547E-01
    16  1.5000000000000E-01  4.3636266899863E-01 -2.3144799926219E-01
    17  1.6000000000000E-01  4.8908788958943E-01 -2.5429575829861E-01
    18  1.7000000000000E-01  5.4340446349760E-01 -2.7653302053890E-01
    19  1.8000000000000E-01  5.9902915504295E-01 -2.9788066653393E-01
    20  1.9000000000000E-01  6.5567636770568E-01 -3.1807082264692E-01
    21  2.0000000000000E-01  7.1305993649976E-01 -3.3684974585334E-01
    22  2.1000000000000E-01  7.7089483349068E-01 -3.5398040135787E-01
    23  2.2000000000000E-01  8.2889877030240E-01 -3.6924469650682E-01
    24  2.3000000000000E-01  8.8679368378884E-01 -3.8244534123627E-01
    25  2.4000000000000E-01  9.4430709357560E-01 -3.9340731258888E-01
    26  2.5000000000000E-01  1.0011733228606E+00 -4.0197890851932E-01
    27  2.6000000000000E-01  1.0571345766459E+00 -4.0803238414730E-01
    28  2.7000000000000E-01  1.1119418744031E+00 -4.1146417165836E-01
    29  2.8000000000000E-01  1.1653558370019E+00 -4.1219469304429E-01
    30  2.9000000000000E-01  1.2171473304934E+00 -4.1016778266663E-01
    31  3.0000000000000E-01  1.2670979719928E+00 -4.0534974406804E-01
    32  3.1000000000000E-01  1.3150005053921E+00 -3.9772807240569E-01
    33  3.2000000000000E-01  1.3606590569089E+00 -3.8730988020263E-01
    34  3.3000000000000E-01  1.4038892824942E+00 -3.7412006968347E-01
    35  3.4000000000000E-01  1.4445184208470E+00 -3.5819929966936E-01
    36  3.5000000000000E-01  1.4823852671724E+00 -3.3960179875826E-01
    37  3.6000000000000E-01  1.5173400838612E+00 -3.1839307923206E-01
    38  3.7000000000000E-01  1.5492444649196E+00 -2.9464760775360E-01
    39  3.8000000000000E-01  1.5779711712501E+00 -2.6844648940391E-01
    40  3.9000000000000E-01  1.6034039537474E+00 -2.3987522094686E-01
    41  4.0000000000000E-01  1.6254373806472E+00 -2.0902156739746E-01
    42  4.1000000000000E-01  1.6439766846504E+00 -1.7597361303762E-01
    43  4.2000000000000E-01  1.6589376440604E+00 -1.4081803401738E-01
    44  4.3000000000000E-01  1.6702465105413E+00 -1.0363863466736E-01
    45  4.4000000000000E-01  1.6778399941613E+00 -6.4515183719650E-02
    46  4.5000000000000E-01  1.6816653141703E+00 -2.3522579895717E-02
    47  4.6000000000000E-01  1.6816803215084E+00  1.9269631104985E-02
    48  4.7000000000000E-01  1.6778536964154E+00  6.3797374154099E-02
    49  4.8000000000000E-01  1.6701652217512E+00  1.1000179108758E-01
    50  4.9000000000000E-01  1.6586061298115E+00  1.5782861885406E-01
    51  5.0000000000000E-01  1.6431795175803E+00  2.0722721100120E-01
    52  5.1000000000000E-01  1.6239008225744E+00  2.5814922265227E-01
    53  5.2000000000000E-01  1.6007983487492E+00  3.1054698741960E-01
    54  5.3000000000000E-01  1.5739138294287E+00  3.6437162255201E-01
    55  5.4000000000000E-01  1.5433030119334E+00  4.1957090585625E-01
    56  5.5000000000000E-01  1.5090362465745E+00  4.7608697441458E-01
    57  5.6000000000000E-01  1.4711990610088E+00  5.3385390069778E-01
    58  5.7000000000000E-01  1.4298926996420E+00  5.9279520622043E-01
    59  5.8000000000000E-01  1.3852346068758E+00  6.5282137629121E-01
    60  5.9000000000000E-01  1.3373588325410E+00  7.1382744158684E-01
    61  6.0000000000000E-01  1.2864163378658E+00  7.7569069315596E-01
    62  6.1000000000000E-01  1.2325751808137E+00  8.3826859699509E-01
    63  6.2000000000000E-01  1.1760205605861E+00  9.0139697251222E-01
    64  6.3000000000000E-01  1.1169547025259E+00  9.6488849601265E-01
    65  6.4000000000000E-01  1.0555965665531E+00  1.0285315858372E+00
    66  6.5000000000000E-01  9.9218136460242E-01  1.0920897200138E+00
    67  6.6000000000000E-01  9.2695987526869E-01  1.1553012303339E+00
    68  6.7000000000000E-01  8.6019754697168E-01  1.2178796087387E+00
    69  6.8000000000000E-01  7.9217338436782E-01  1.2795143529327E+00
    70  6.9000000000000E-01  7.2317861641090E-01  1.3398723683796E+00
    71  7.0000000000000E-01  6.5351514833435E-01  1.3985999334445E+00
    72  7.1000000000000E-01  5.8349380382478E-01  1.4553252236199E+00
    73  7.2000000000000E-01  5.1343236770936E-01  1.5096613796898E+00
    74  7.3000000000000E-01  4.4365344351282E-01  1.5612100935732E+00
    75  7.4000000000000E-01  3.7448214417782E-01  1.6095656746274E+00
    76  7.5000000000000E-01  3.0624363800748E-01  1.6543195486207E+00
    77  7.6000000000000E-01  2.3926057540859E-01  1.6950651315861E+00
    78  7.7000000000000E-01  1.7385042521241E-01  1.7314030115619E+00
    79  7.8000000000000E-01  1.1032275216326E-01  1.7629463629878E+00
    80  7.9000000000000E-01  4.8976469526851E-02  1.7893265114441E+00
    81  8.0000000000000E-01 -9.9028973720799E-03  1.8101985606425E+00
    82  8.1000000000000E-01 -6.6045899569746E-02  1.8252469892465E+00
    83  8.2000000000000E-01 -1.1920176701573E-01  1.8341911223277E+00
    84  8.3000000000000E-01 -1.6914088734158E-01  1.8367903811320E+00
    85  8.4000000000000E-01 -2.1565712347700E-01  1.8328492154039E+00
    86  8.5000000000000E-01 -2.5856993393879E-01  1.8222216248190E+00
    87  8.6000000000000E-01 -2.9772626145252E-01  1.8048151801001E+00
    88  8.7000000000000E-01 -3.3300215802697E-01  1.7805944601112E+00
    89  8.8000000000000E-01 -3.6430411765873E-01  1.7495838285660E+00
    90  8.9000000000000E-01 -3.9157009145931E-01  1.7118694828494E+00
    91  9.0000000000000E-01 -4.1477016412071E-01  1.6676007177195E+00
    92  9.1000000000000E-01 -4.3390687520633E-01  1.6169903581607E+00
    93  9.2000000000000E-01 -4.4901517370387E-01  1.5603143282296E+00
    94  9.3000000000000E-01 -4.6016199952762E-01  1.4979103361603E+00
    95  9.4000000000000E-01 -4.6744549112585E-01  1.4301756700618E+00
    96  9.5000000000000E-01 -4.7099382394234E-01  1.3575641129997E+00
    97  9.6000000000000E-01 -4.7096369011109E-01  1.2805820008679E+00
    98  9.7000000000000E-01 -4.6753843532752E-01  1.1997834609580E+00
    99  9.8000000000000E-01 -4.6092587424718E-01  1.1157648832777E+00
   100  9.9000000000000E-01 -4.5135581091416E-01  1.0291586901825E+00
   101  1.0000000000000E+00 -4.3907729552716E-01  9.4062648253682E-01
   102  1.0100000000000E+00 -4.2435565322136E-01  8.5085165215909E-01
   103  1.0200000000000E+00 -4.0746932439760E-01  7.6053156051704E-01
   104  1.0300000000000E+00 -3.8870655939205E-01  6.7036939231609E-01
   105  1.0400000000000E+00 -3.6836201288871E-01  5.8106579960289E-01
   106  1.0500000000000E+00 -3.4673328537261E-01  4.9331045711725E-01
   107  1.0600000000000E+00 -3.2411746006812E-01  4.0777365277235E-01
   108  1.0700000000000E+00 -3.0080768416863E-01  3.2509803822476E-01
   109  1.0800000000000E+00 -2.7708984272866E-01  2.4589066347385E-01
   110  1.0900000000000E+00 -2.5323937234982E-01  1.7071541628395E-01
   111  1.1000000000000E+00 -2.2951825976217E-01  1.0008598198065E-01
   112  1.1100000000000E+00 -2.0617226760819E-01  3.4459431905623E-02
   113  1.1200000000000E+00 -1.8342842620618E-01 -2.5769460410222E-02
   114  1.1300000000000E+00 -1.6149282587836E-01 -8.0273087279251E-02
   115  1.1400000000000E+00 -1.4054873960071E-01 -1.2879498369781E-01
   116  1.1500000000000E+00 -1.2075510039745E-01 -1.7115285162986E-01
   117  1.1600000000000E+00 -1.0224535207927E-01 -2.0724058570559E-01
   118  1.1700000000000E+00 -8.5126685781940E-02 -2.3702927050270E-01
   119  1.1800000000000E+00 -6.9479668325519E-02 -2.6056713655993E-01
   120  1.1900000000000E+00 -5.5358261854799E-02 -2.7797847959107E-01
   121  1.2000000000000E+00 -4.2790227610381E-02 -2.8946156483051E-01
   122  1.2100000000000E+00 -3.1777900127351E-02 -2.9528555575217E-01
   123  1.2200000000000E+00 -2.2299311825986E-02 -2.9578652313684E-01
   124  1.2300000000000E+00 -1.4309641861363E-02 -2.9136260657147E-01
   125  1.2400000000000E+00 -7.7429574542150E-03 -2.8246841537152E-01
   126  1.2500000000000E+00 -2.5142107368084E-03 -2.6960876961041E-01
   127  1.2600000000000E+00  1.4785504476539E-03 -2.5333189405353E-01
   128  1.2700000000000E+00  4.3518032655982E-03 -2.3422218808633E-01
   129  1.2800000000000E+00  6.2340509777018E-03 -2.1289270374463E-01
   130  1.2900000000000E+00  7.2632560558421E-03 -1.8997747167184E-01
   131  1.3000000000000E+00  7.5842445896944E-03 -1.6612376815622E-01
   132  1.3100000000000E+00  7.3460244148259E-03 -1.4198405104612E-01
   133  1.3200000000000E+00  6.6961733548642E-03 -1.1819720139408E-01
   134  1.3300000000000E+00  5.7740585917401E-03 -9.5365730524651E-02
   135  1.3400000000000E+00  4.7048839865112E-03 -7.4040877152155E-02
   136  1.3500000000000E+00  3.5843314814921E-03 -5.4690632935223E-02
   137  1.3600000000000E+00  2.5116427901254E-03 -3.7759534250350E-02
   138  1.3700000000000E+00  1.5722057160364E-03 -2.3635462382335E-02
   139  1.3800000000000E+00  8.2818966897714E-04 -1.2630338288572E-02
   140  1.3900000000000E+00  3.1706823663627E-04 -4.9754258422621E-03
   141  1.4000000000000E+00  5.2228948586833E-05 -8.4748026471566E-04