Rh    ONCVPSP-4.0.1  r_core=   1.40667   1.40667   1.35707
     45.0000     17.0000      250925    zatom,zion,pspd
     8   -1012   2     4   600     0    pspcod,pspxc,lmax,lloc,mmax,r2well
  5.99000000  7.00000000  0.00000000    rchrg fchrg qchrg
     2     2     3     0    nproj
     3     1           extension_switch
     4     4     0    nprojso
   0                         1.5125150552703E+01  1.2831165437861E+00
     1  0.0000000000000E+00 -2.2407820043924E-10  1.1043663761257E-09
     2  1.0000000000000E-02  7.8087837283691E-02 -4.1202524816133E-02
     3  2.0000000000000E-02  1.5599295537057E-01 -8.2148493185106E-02
     4  3.0000000000000E-02  2.3353325267953E-01 -1.2258309150004E-01
     5  4.0000000000000E-02  3.1052785863532E-01 -1.6225497229818E-01
     6  5.0000000000000E-02  3.8679773866595E-01 -2.0091793877879E-01
     7  6.0000000000000E-02  4.6216628675597E-01 -2.3833257185505E-01
     8  7.0000000000000E-02  5.3645990167548E-01 -2.7426778190348E-01
     9  8.0000000000000E-02  6.0950854322898E-01 -3.0850226847863E-01
    10  9.0000000000000E-02  6.8114626514132E-01 -3.4082587260975E-01
    11  1.0000000000000E-01  7.5121172151602E-01 -3.7104080786877E-01
    12  1.1000000000000E-01  8.1954864415868E-01 -3.9896275817085E-01
    13  1.2000000000000E-01  8.8600628844959E-01 -4.2442183221386E-01
    14  1.3000000000000E-01  9.5043984586800E-01 -4.4726336655077E-01
    15  1.4000000000000E-01  1.0127108217098E+00 -4.6734857148744E-01
    16  1.5000000000000E-01  1.0726873769924E+00 -4.8455501627356E-01
    17  1.6000000000000E-01  1.1302446339987E+00 -4.9877695237168E-01
    18  1.7000000000000E-01  1.1852649453693E+00 -5.0992547591212E-01
    19  1.8000000000000E-01  1.2376381270964E+00 -5.1792853273415E-01
    20  1.9000000000000E-01  1.2872616562064E+00 -5.2273077164002E-01
    21  2.0000000000000E-01  1.3340408343214E+00 -5.2429325361354E-01
    22  2.1000000000000E-01  1.3778889186647E+00 -5.2259302674493E-01
    23  2.2000000000000E-01  1.4187272224150E+00 -5.1762257842742E-01
    24  2.3000000000000E-01  1.4564851866048E+00 -5.0938917801828E-01
    25  2.4000000000000E-01  1.4911004260062E+00 -4.9791412456268E-01
    26  2.5000000000000E-01  1.5225187516395E+00 -4.8323191533787E-01
    27  2.6000000000000E-01  1.5506941726751E+00 -4.6538935187053E-01
    28  2.7000000000000E-01  1.5755888805775E+00 -4.4444460069385E-01
    29  2.8000000000000E-01  1.5971732183563E+00 -4.2046622643442E-01
    30  2.9000000000000E-01  1.6154256377439E+00 -3.9353221484308E-01
    31  3.0000000000000E-01  1.6303326470143E+00 -3.6372900310928E-01
    32  3.1000000000000E-01  1.6418887519924E+00 -3.3115053422562E-01
    33  3.2000000000000E-01  1.6500963925830E+00 -2.9589735130789E-01
    34  3.3000000000000E-01  1.6549658768699E+00 -2.5807574663660E-01
    35  3.4000000000000E-01  1.6565153145187E+00 -2.1779697878698E-01
    36  3.5000000000000E-01  1.6547705508450E+00 -1.7517656957694E-01
    37  3.6000000000000E-01  1.6497651025102E+00 -1.3033369071062E-01
    38  3.7000000000000E-01  1.6415400953758E+00 -8.3390647960524E-02
    39  3.8000000000000E-01  1.6301442045907E+00 -3.4472468544168E-02
    40  3.9000000000000E-01  1.6156335965245E+00  1.6293404950688E-02
    41  4.0000000000000E-01  1.5980718716839E+00  6.8777313119286E-02
    42  4.1000000000000E-01  1.5775300072906E+00  1.2284747221639E-01
    43  4.2000000000000E-01  1.5540862977417E+00  1.7836996441652E-01
    44  4.3000000000000E-01  1.5278262907517E+00  2.3520863208900E-01
    45  4.4000000000000E-01  1.4988427165785E+00  2.9322488460390E-01
    46  4.5000000000000E-01  1.4672354073837E+00  3.5227742834119E-01
    47  4.6000000000000E-01  1.4331112034758E+00  4.1222193256764E-01
    48  4.7000000000000E-01  1.3965838429406E+00  4.7291064563089E-01
    49  4.8000000000000E-01  1.3577738309831E+00  5.3419197746862E-01
    50  4.9000000000000E-01  1.3168082851974E+00  5.9591006570723E-01
    51  5.0000000000000E-01  1.2738207529495E+00  6.5790434360248E-01
    52  5.1000000000000E-01  1.2289509971033E+00  7.2000912873261E-01
    53  5.2000000000000E-01  1.1823447464554E+00  7.8205325166958E-01
    54  5.3000000000000E-01  1.1341534074532E+00  8.4385974381922E-01
    55  5.4000000000000E-01  1.0845337340750E+00  9.0524560322179E-01
    56  5.5000000000000E-01  1.0336474531277E+00  9.6602165634455E-01
    57  5.6000000000000E-01  9.8166084268335E-01  1.0259925327780E+00
    58  5.7000000000000E-01  9.2874426190770E-01  1.0849567682785E+00
    59  5.8000000000000E-01  8.7507163114437E-01  1.1427070497983E+00
    60  5.9000000000000E-01  8.2081986178408E-01  1.1990306140323E+00
    61  6.0000000000000E-01  7.6616823617264E-01  1.2537098086118E+00
    62  6.1000000000000E-01  7.1129773857839E-01  1.3065228224330E+00
    63  6.2000000000000E-01  6.5639033904072E-01  1.3572445887436E+00
    64  6.3000000000000E-01  6.0162823274490E-01  1.4056478615817E+00
    65  6.4000000000000E-01  5.4719303840123E-01  1.4515044630070E+00
    66  6.5000000000000E-01  4.9326495993652E-01  1.4945866953291E+00
    67  6.6000000000000E-01  4.4002191661878E-01  1.5346689092844E+00
    68  6.7000000000000E-01  3.8763864751898E-01  1.5715292158842E+00
    69  6.8000000000000E-01  3.3628579695236E-01  1.6049513265143E+00
    70  6.9000000000000E-01  2.8612898822351E-01  1.6347265028559E+00
    71  7.0000000000000E-01  2.3732789361010E-01  1.6606555953842E+00
    72  7.1000000000000E-01  1.9003530904887E-01  1.6825511466238E+00
    73  7.2000000000000E-01  1.4439624242180E-01  1.7002395330538E+00
    74  7.3000000000000E-01  1.0054702466987E-01  1.7135631176103E+00
    75  7.4000000000000E-01  5.8614453178225E-02  1.7223823831583E+00
    76  7.5000000000000E-01  1.8714976971686E-02  1.7265780161476E+00
    77  7.6000000000000E-01 -1.9046066773071E-02  1.7260529089522E+00
    78  7.7000000000000E-01 -5.4575155555808E-02  1.7207340491434E+00
    79  7.8000000000000E-01 -8.7791214676286E-02  1.7105742641855E+00
    80  7.9000000000000E-01 -1.1862617203996E-01  1.6955537907714E+00
    81  8.0000000000000E-01 -1.4702542659705E-01  1.6756816392473E+00
    82  8.1000000000000E-01 -1.7294822305991E-01  1.6509967252917E+00
    83  8.2000000000000E-01 -1.9636792636052E-01  1.6215687432130E+00
    84  8.3000000000000E-01 -2.1727219024189E-01  1.5874987578853E+00
    85  8.4000000000000E-01 -2.3566301541577E-01  1.5489194954207E+00
    86  8.5000000000000E-01 -2.5155669385093E-01  1.5059953161531E+00
    87  8.6000000000000E-01 -2.6498363696935E-01  1.4589218573256E+00
    88  8.7000000000000E-01 -2.7598808680722E-01  1.4079253369968E+00
    89  8.8000000000000E-01 -2.8462771052579E-01  1.3532615150390E+00
    90  8.9000000000000E-01 -2.9097308001865E-01  1.2952143116474E+00
    91  9.0000000000000E-01 -2.9510703973653E-01  1.2340940884391E+00
    92  9.1000000000000E-01 -2.9712396722076E-01  1.1702356019286E+00
    93  9.2000000000000E-01 -2.9712893218124E-01  1.1039956438576E+00
    94  9.3000000000000E-01 -2.9523676125597E-01  1.0357503874485E+00
    95  9.4000000000000E-01 -2.9157101682634E-01  9.6589246308514E-01
    96  9.5000000000000E-01 -2.8626289941719E-01  8.9482779111687E-01
    97  9.6000000000000E-01 -2.7945008426510E-01  8.2297220337702E-01
    98  9.7000000000000E-01 -2.7127550357483E-01  7.5074788852960E-01
    99  9.8000000000000E-01 -2.6188608678718E-01  6.7857969945316E-01
   100  9.9000000000000E-01 -2.5143147183759E-01  6.0689136348103E-01
   101  1.0000000000000E+00 -2.4006270088048E-01  5.3610163839388E-01
   102  1.0100000000000E+00 -2.2793091428144E-01  4.6662045856277E-01
   103  1.0200000000000E+00 -2.1518605682752E-01  3.9884511653210E-01
   104  1.0300000000000E+00 -2.0197561007159E-01  3.3315652559118E-01
   105  1.0400000000000E+00 -1.8844336450629E-01  2.6991560849034E-01
   106  1.0500000000000E+00 -1.7472824485602E-01  2.0945985640877E-01
   107  1.0600000000000E+00 -1.6096320118545E-01  1.5210010058101E-01
   108  1.0700000000000E+00 -1.4727417775234E-01  9.8117536644347E-02
   109  1.0800000000000E+00 -1.3377917059387E-01  4.7761038815301E-02
   110  1.0900000000000E+00 -1.2058738373366E-01  1.2447974584668E-03
   111  1.1000000000000E+00 -1.0779849264864E-01 -4.1253690471049E-02
   112  1.1100000000000E+00 -9.5502022255375E-02 -7.9595253201122E-02
   113  1.1200000000000E+00 -8.3776845177265E-02 -1.1368027823293E-01
   114  1.1300000000000E+00 -7.2690804466403E-02 -1.4344953420809E-01
   115  1.1400000000000E+00 -6.2300463282771E-02 -1.6888457168855E-01
   116  1.1500000000000E+00 -5.2650982319936E-02 -1.9000769984407E-01
   117  1.1600000000000E+00 -4.3776124012316E-02 -2.0688154206872E-01
   118  1.1700000000000E+00 -3.5698380810687E-02 -2.1960817958427E-01
   119  1.1800000000000E+00 -2.8429223073247E-02 -2.2832789811731E-01
   120  1.1900000000000E+00 -2.1969460430367E-02 -2.3321755861477E-01
   121  1.2000000000000E+00 -1.6309708856269E-02 -2.3448861863535E-01
   122  1.2100000000000E+00 -1.1430954143498E-02 -2.3238483643922E-01
   123  1.2200000000000E+00 -7.3052010594610E-03 -2.2717969477477E-01
   124  1.2300000000000E+00 -3.8961961683477E-03 -2.1917358592662E-01
   125  1.2400000000000E+00 -1.1602111700230E-03 -2.0869080358823E-01
   126  1.2500000000000E+00  9.5312736371828E-04 -1.9607639056364E-01
   127  1.2600000000000E+00  2.4999767605881E-03 -1.8169289409586E-01
   128  1.2700000000000E+00  3.5414010198794E-03 -1.6591708271922E-01
   129  1.2800000000000E+00  4.1424935903957E-03 -1.4913668051647E-01
   130  1.2900000000000E+00  4.3715166469659E-03 -1.3174717670991E-01
   131  1.3000000000000E+00  4.2990629212076E-03 -1.1414871985628E-01
   132  1.3100000000000E+00  3.9971725792752E-03 -9.6742754010761E-02
   133  1.3200000000000E+00  3.5362562100752E-03 -7.9918354865091E-02
   134  1.3300000000000E+00  2.9811937981031E-03 -6.4034799359622E-02
   135  1.3400000000000E+00  2.3878152455799E-03 -4.9409510114070E-02
   136  1.3500000000000E+00  1.7917113056360E-03 -3.6281994290116E-02
   137  1.3600000000000E+00  1.2371606854503E-03 -2.4904065420285E-02
   138  1.3700000000000E+00  7.6292298147794E-04 -1.5496753461441E-02
   139  1.3800000000000E+00  3.9538320290151E-04 -8.2285362229094E-03
   140  1.3900000000000E+00  1.4823829402436E-04 -3.2137070958184E-03
   141  1.4000000000000E+00  2.2982404944705E-05 -5.2936724528039E-04
   142  1.4100000000000E+00 -1.6452853848017E-06  3.9900415422156E-05
   143  1.4200000000000E+00  4.7536347060001E-07 -1.1229463823229E-05
   144  1.43  0.  0.
   145  1.44  0.  0.
   146  1.45  0.  0.
   147  1.46  0.  0.
   148  1.47  0.  0.
   149  1.48  0.  0.
   150  1.49  0.  0.
   151  1.50  0.  0.
   152  1.51  0.  0.
   153  1.52  0.  0.
   154  1.53  0.  0.
   155  1.54  0.  0.
   156  1.55  0.  0.
   157  1.56  0.  0.
   158  1.57  0.  0.
   159  1.58  0.  0.
   160  1.59  0.  0.
   161  1.60  0.  0.
   162  1.61  0.  0.
   163  1.62  0.  0.
   164  1.63  0.  0.
   165  1.64  0.  0.
   166  1.65  0.  0.
   167  1.66  0.  0.
   168  1.67  0.  0.
   169  1.68  0.  0.
   170  1.69  0.  0.
   171  1.70  0.  0.
   172  1.71  0.  0.
   173  1.72  0.  0.
   174  1.73  0.  0.
   175  1.74  0.  0.
   176  1.75  0.  0.
   177  1.76  0.  0.
   178  1.77  0.  0.
   179  1.78  0.  0.
   180  1.79  0.  0.
   181  1.80  0.  0.
   182  1.81  0.  0.
   183  1.82  0.  0.
   184  1.83  0.  0.
   185  1.84  0.  0.
   186  1.85  0.  0.
   187  1.86  0.  0.
   188  1.87  0.  0.
   189  1.88  0.  0.
   190  1.89  0.  0.
   191  1.90  0.  0.
   192  1.91  0.  0.
   193  1.92  0.  0.
   194  1.93  0.  0.
   195  1.94  0.  0.
   196  1.95  0.  0.
   197  1.96  0.  0.
   198  1.97  0.  0.
   199  1.98  0.  0.
   200  1.99  0.  0.
   201  2.00  0.  0.
   202  2.01  0.  0.
   203  2.02  0.  0.
   204  2.03  0.  0.
   205  2.04  0.  0.
   206  2.05  0.  0.
   207  2.06  0.  0.
   208  2.07  0.  0.
   209  2.08  0.  0.
   210  2.09  0.  0.
   211  2.10  0.  0.
   212  2.11  0.  0.
   213  2.12  0.  0.
   214  2.13  0.  0.
   215  2.14  0.  0.
   216  2.15  0.  0.
   217  2.16  0.  0.
   218  2.17  0.  0.
   219  2.18  0.  0.
   220  2.19  0.  0.
   221  2.20  0.  0.
   222  2.21  0.  0.
   223  2.22  0.  0.
   224  2.23  0.  0.
   225  2.24  0.  0.
   226  2.25  0.  0.
   227  2.26  0.  0.
   228  2.27  0.  0.
   229  2.28  0.  0.
   230  2.29  0.  0.
   231  2.30  0.  0.
   232  2.31  0.  0.
   233  2.32  0.  0.
   234  2.33  0.  0.
   235  2.34  0.  0.
   236  2.35  0.  0.
   237  2.36  0.  0.
   238  2.37  0.  0.
   239  2.38  0.  0.
   240  2.39  0.  0.
   241  2.40  0.  0.
   242  2.41  0.  0.
   243  2.42  0.  0.
   244  2.43  0.  0.
   245  2.44  0.  0.
   246  2.45  0.  0.
   247  2.46  0.  0.
   248  2.47  0.  0.
   249  2.48  0.  0.
   250  2.49  0.  0.
   251  2.50  0.  0.
   252  2.51  0.  0.
   253  2.52  0.  0.
   254  2.53  0.  0.
   255  2.54  0.  0.
   256  2.55  0.  0.
   257  2.56  0.  0.
   258  2.57  0.  0.
   259  2.58  0.  0.
   260  2.59  0.  0.
   261  2.60  0.  0.
   262  2.61  0.  0.
   263  2.62  0.  0.
   264  2.63  0.  0.
   265  2.64  0.  0.
   266  2.65  0.  0.
   267  2.66  0.  0.
   268  2.67  0.  0.
   269  2.68  0.  0.
   270  2.69  0.  0.
   271  2.70  0.  0.
   272  2.71  0.  0.
   273  2.72  0.  0.
   274  2.73  0.  0.
   275  2.74  0.  0.
   276  2.75  0.  0.
   277  2.76  0.  0.
   278  2.77  0.  0.
   279  2.78  0.  0.
   280  2.79  0.  0.
   281  2.80  0.  0.
   282  2.81  0.  0.
   283  2.82  0.  0.
   284  2.83  0.  0.
   285  2.84  0.  0.
   286  2.85  0.  0.
   287  2.86  0.  0.
   288  2.87  0.  0.
   289  2.88  0.  0.
   290  2.89  0.  0.
   291  2.90  0.  0.
   292  2.91  0.  0.
   293  2.92  0.  0.
   294  2.93  0.  0.
   295  2.94  0.  0.
   296  2.95  0.  0.
   297  2.96  0.  0.
   298  2.97  0.  0.
   299  2.98  0.  0.
   300  2.99  0.  0.
   301  3.00  0.  0.
   302  3.01  0.  0.
   303  3.02  0.  0.
   304  3.03  0.  0.
   305  3.04  0.  0.
   306  3.05  0.  0.
   307  3.06  0.  0.
   308  3.07  0.  0.
   309  3.08  0.  0.
   310  3.09  0.  0.
   311  3.10  0.  0.
   312  3.11  0.  0.
   313  3.12  0.  0.
   314  3.13  0.  0.
   315  3.14  0.  0.
   316  3.15  0.  0.
   317  3.16  0.  0.
   318  3.17  0.  0.
   319  3.18  0.  0.
   320  3.19  0.  0.
   321  3.20  0.  0.
   322  3.21  0.  0.
   323  3.22  0.  0.
   324  3.23  0.  0.
   325  3.24  0.  0.
   326  3.25  0.  0.
   327  3.26  0.  0.
   328  3.27  0.  0.
   329  3.28  0.  0.
   330  3.29  0.  0.
   331  3.30  0.  0.
   332  3.31  0.  0.
   333  3.32  0.  0.
   334  3.33  0.  0.
   335  3.34  0.  0.
   336  3.35  0.  0.
   337  3.36  0.  0.
   338  3.37  0.  0.
   339  3.38  0.  0.
   340  3.39  0.  0.
   341  3.40  0.  0.
   342  3.41  0.  0.
   343  3.42  0.  0.
   344  3.43  0.  0.
   345  3.44  0.  0.
   346  3.45  0.  0.
   347  3.46  0.  0.
   348  3.47  0.  0.
   349  3.48  0.  0.
   350  3.49  0.  0.
   351  3.50  0.  0.
   352  3.51  0.  0.
   353  3.52  0.  0.
   354  3.53  0.  0.
   355  3.54  0.  0.
   356  3.55  0.  0.
   357  3.56  0.  0.
   358  3.57  0.  0.
   359  3.58  0.  0.
   360  3.59  0.  0.
   361  3.60  0.  0.
   362  3.61  0.  0.
   363  3.62  0.  0.
   364  3.63  0.  0.
   365  3.64  0.  0.
   366  3.65  0.  0.
   367  3.66  0.  0.
   368  3.67  0.  0.
   369  3.68  0.  0.
   370  3.69  0.  0.
   371  3.70  0.  0.
   372  3.71  0.  0.
   373  3.72  0.  0.
   374  3.73  0.  0.
   375  3.74  0.  0.
   376  3.75  0.  0.
   377  3.76  0.  0.
   378  3.77  0.  0.
   379  3.78  0.  0.
   380  3.79  0.  0.
   381  3.80  0.  0.
   382  3.81  0.  0.
   383  3.82  0.  0.
   384  3.83  0.  0.
   385  3.84  0.  0.
   386  3.85  0.  0.
   387  3.86  0.  0.
   388  3.87  0.  0.
   389  3.88  0.  0.
   390  3.89  0.  0.
   391  3.90  0.  0.
   392  3.91  0.  0.
   393  3.92  0.  0.
   394  3.93  0.  0.
   395  3.94  0.  0.
   396  3.95  0.  0.
   397  3.96  0.  0.
   398  3.97  0.  0.
   399  3.98  0.  0.
   400  3.99  0.  0.
   401  4.00  0.  0.
   402  4.01  0.  0.
   403  4.02  0.  0.
   404  4.03  0.  0.
   405  4.04  0.  0.
   406  4.05  0.  0.
   407  4.06  0.  0.
   408  4.07  0.  0.
   409  4.08  0.  0.
   410  4.09  0.  0.
   411  4.10  0.  0.
   412  4.11  0.  0.
   413  4.12  0.  0.
   414  4.13  0.  0.
   415  4.14  0.  0.
   416  4.15  0.  0.
   417  4.16  0.  0.
   418  4.17  0.  0.
   419  4.18  0.  0.
   420  4.19  0.  0.
   421  4.20  0.  0.
   422  4.21  0.  0.
   423  4.22  0.  0.
   424  4.23  0.  0.
   425  4.24  0.  0.
   426  4.25  0.  0.
   427  4.26  0.  0.
   428  4.27  0.  0.
   429  4.28  0.  0.
   430  4.29  0.  0.
   431  4.30  0.  0.
   432  4.31  0.  0.
   433  4.32  0.  0.
   434  4.33  0.  0.
   435  4.34  0.  0.
   436  4.35  0.  0.
   437  4.36  0.  0.
   438  4.37  0.  0.
   439  4.38  0.  0.
   440  4.39  0.  0.
   441  4.40  0.  0.
   442  4.41  0.  0.
   443  4.42  0.  0.
   444  4.43  0.  0.
   445  4.44  0.  0.
   446  4.45  0.  0.
   447  4.46  0.  0.
   448  4.47  0.  0.
   449  4.48  0.  0.
   450  4.49  0.  0.
   451  4.50  0.  0.
   452  4.51  0.  0.
   453  4.52  0.  0.
   454  4.53  0.  0.
   455  4.54  0.  0.
   456  4.55  0.  0.
   457  4.56  0.  0.
   458  4.57  0.  0.
   459  4.58  0.  0.
   460  4.59  0.  0.
   461  4.60  0.  0.
   462  4.61  0.  0.
   463  4.62  0.  0.
   464  4.63  0.  0.
   465  4.64  0.  0.
   466  4.65  0.  0.
   467  4.66  0.  0.
   468  4.67  0.  0.
   469  4.68  0.  0.
   470  4.69  0.  0.
   471  4.70  0.  0.
   472  4.71  0.  0.
   473  4.72  0.  0.
   474  4.73  0.  0.
   475  4.74  0.  0.
   476  4.75  0.  0.
   477  4.76  0.  0.
   478  4.77  0.  0.
   479  4.78  0.  0.
   480  4.79  0.  0.
   481  4.80  0.  0.
   482  4.81  0.  0.
   483  4.82  0.  0.
   484  4.83  0.  0.
   485  4.84  0.  0.
   486  4.85  0.  0.
   487  4.86  0.  0.
   488  4.87  0.  0.
   489  4.88  0.  0.
   490  4.89  0.  0.
   491  4.90  0.  0.
   492  4.91  0.  0.
   493  4.92  0.  0.
   494  4.93  0.  0.
   495  4.94  0.  0.
   496  4.95  0.  0.
   497  4.96  0.  0.
   498  4.97  0.  0.
   499  4.98  0.  0.
   500  4.99  0.  0.
   501  5.00  0.  0.
   502  5.01  0.  0.
   503  5.02  0.  0.
   504  5.03  0.  0.
   505  5.04  0.  0.
   506  5.05  0.  0.
   507  5.06  0.  0.
   508  5.07  0.  0.
   509  5.08  0.  0.
   510  5.09  0.  0.
   511  5.10  0.  0.
   512  5.11  0.  0.
   513  5.12  0.  0.
   514  5.13  0.  0.
   515  5.14  0.  0.
   516  5.15  0.  0.
   517  5.16  0.  0.
   518  5.17  0.  0.
   519  5.18  0.  0.
   520  5.19  0.  0.
   521  5.20  0.  0.
   522  5.21  0.  0.
   523  5.22  0.  0.
   524  5.23  0.  0.
   525  5.24  0.  0.
   526  5.25  0.  0.
   527  5.26  0.  0.
   528  5.27  0.  0.
   529  5.28  0.  0.
   530  5.29  0.  0.
   531  5.30  0.  0.
   532  5.31  0.  0.
   533  5.32  0.  0.
   534  5.33  0.  0.
   535  5.34  0.  0.
   536  5.35  0.  0.
   537  5.36  0.  0.
   538  5.37  0.  0.
   539  5.38  0.  0.
   540  5.39  0.  0.
   541  5.40  0.  0.
   542  5.41  0.  0.
   543  5.42  0.  0.
   544  5.43  0.  0.
   545  5.44  0.  0.
   546  5.45  0.  0.
   547  5.46  0.  0.
   548  5.47  0.  0.
   549  5.48  0.  0.
   550  5.49  0.  0.
   551  5.50  0.  0.
   552  5.51  0.  0.
   553  5.52  0.  0.
   554  5.53  0.  0.
   555  5.54  0.  0.
   556  5.55  0.  0.
   557  5.56  0.  0.
   558  5.57  0.  0.
   559  5.58  0.  0.
   560  5.59  0.  0.
   561  5.60  0.  0.
   562  5.61  0.  0.
   563  5.62  0.  0.
   564  5.63  0.  0.
   565  5.64  0.  0.
   566  5.65  0.  0.
   567  5.66  0.  0.
   568  5.67  0.  0.
   569  5.68  0.  0.
   570  5.69  0.  0.
   571  5.70  0.  0.
   572  5.71  0.  0.
   573  5.72  0.  0.
   574  5.73  0.  0.
   575  5.74  0.  0.
   576  5.75  0.  0.
   577  5.76  0.  0.
   578  5.77  0.  0.
   579  5.78  0.  0.
   580  5.79  0.  0.
   581  5.80  0.  0.
   582  5.81  0.  0.
   583  5.82  0.  0.
   584  5.83  0.  0.
   585  5.84  0.  0.
   586  5.85  0.  0.
   587  5.86  0.  0.
   588  5.87  0.  0.
   589  5.88  0.  0.
   590  5.89  0.  0.
   591  5.90  0.  0.
   592  5.91  0.  0.
   593  5.92  0.  0.
   594  5.93  0.  0.
   595  5.94  0.  0.
   596  5.95  0.  0.
   597  5.96  0.  0.
   598  5.97  0.  0.
   599  5.98  0.  0.
   600  5.99  0.  0.
   1                         7.1197939752204E+00  9.7426343055858E-01
     1  0.0000000000000E+00  2.6931962771037E-09 -6.9656510559568E-09
     2  1.0000000000000E-02  2.1638850983792E-03 -1.3166316409290E-03
     3  2.0000000000000E-02  8.6427217684695E-03 -5.2494393998181E-03
     4  3.0000000000000E-02  1.9398166444330E-02 -1.1747401034679E-02
     5  4.0000000000000E-02  3.4366685991907E-02 -2.0726272918580E-02
     6  5.0000000000000E-02  5.3460111507487E-02 -3.2069766081281E-02
     7  6.0000000000000E-02  7.6566402900175E-02 -4.5631164684077E-02
     8  7.0000000000000E-02  1.0355061374397E-01 -6.1235359552377E-02
     9  8.0000000000000E-02  1.3425604319178E-01 -7.8681262424940E-02
    10  9.0000000000000E-02  1.6850555927616E-01 -9.7744560233739E-02
    11  1.0000000000000E-01  2.0610307572182E-01 -1.1818076312003E-01
    12  1.1000000000000E-01  2.4683516249912E-01 -1.3972849512031E-01
    13  1.2000000000000E-01  2.9047276878872E-01 -1.6211297260819E-01
    14  1.3000000000000E-01  3.3677303582993E-01 -1.8504961272547E-01
    15  1.4000000000000E-01  3.8548117630900E-01 -2.0824771222694E-01
    16  1.5000000000000E-01  4.3633239652014E-01 -2.3141413643600E-01
    17  1.6000000000000E-01  4.8905383750821E-01 -2.5425695837118E-01
    18  1.7000000000000E-01  5.4336651177370E-01 -2.7648898955402E-01
    19  1.8000000000000E-01  5.9898721288160E-01 -2.9783114651806E-01
    20  1.9000000000000E-01  6.5563037644719E-01 -3.1801560056256E-01
    21  2.0000000000000E-01  7.1300987245354E-01 -3.3678866276728E-01
    22  2.1000000000000E-01  7.7084071065635E-01 -3.5391336162569E-01
    23  2.2000000000000E-01  8.2884064291846E-01 -3.6917167676300E-01
    24  2.3000000000000E-01  8.8673164864769E-01 -3.8236639897192E-01
    25  2.4000000000000E-01  9.4424129204352E-01 -3.9332259409560E-01
    26  2.5000000000000E-01  1.0011039425422E+00 -4.0188865597896E-01
    27  2.6000000000000E-01  1.0570618526344E+00 -4.0793694165361E-01
    28  2.7000000000000E-01  1.1118660900622E+00 -4.1136398996661E-01
    29  2.8000000000000E-01  1.1652773242285E+00 -4.1209033286070E-01
    30  2.9000000000000E-01  1.2170664694171E+00 -4.1005991630829E-01
    31  3.0000000000000E-01  1.2670151900754E+00 -4.0523915534823E-01
    32  3.1000000000000E-01  1.3149162758974E+00 -3.9761565462640E-01
    33  3.2000000000000E-01  1.3605738967230E+00 -3.8719663216720E-01
    34  3.3000000000000E-01  1.4038037492862E+00 -3.7400708967549E-01
    35  3.4000000000000E-01  1.4444331095691E+00 -3.5808777738002E-01
    36  3.5000000000000E-01  1.4823008059119E+00 -3.3949300518150E-01
    37  3.6000000000000E-01  1.5172571290640E+00 -3.1828835458568E-01
    38  3.7000000000000E-01  1.5491636960206E+00 -2.9454834752268E-01
    39  3.8000000000000E-01  1.5778932847529E+00 -2.6835412864175E-01
    40  3.9000000000000E-01  1.6033296568083E+00 -2.3979121700517E-01
    41  4.0000000000000E-01  1.6253673842292E+00 -2.0894738129310E-01
    42  4.1000000000000E-01  1.6439116963206E+00 -1.7591068969585E-01
    43  4.2000000000000E-01  1.6588783605142E+00 -1.4076778166072E-01
    44  4.3000000000000E-01  1.6701936099433E+00 -1.0360240364497E-01
    45  4.4000000000000E-01  1.6777941284004E+00 -6.4494245093119E-02
    46  4.5000000000000E-01  1.6816271011291E+00 -2.3518104113455E-02
    47  4.6000000000000E-01  1.6816503374532E+00  1.9256595101934E-02
    48  4.7000000000000E-01  1.6778324686115E+00  6.3765919046473E-02
    49  4.8000000000000E-01  1.6701532214126E+00  1.0995117016523E-01
    50  4.9000000000000E-01  1.6586037654874E+00  1.5775826353532E-01
    51  5.0000000000000E-01  1.6431871290828E+00  2.0713674655648E-01
    52  5.1000000000000E-01  1.6239186755417E+00  2.5803848182258E-01
    53  5.2000000000000E-01  1.6008266299364E+00  3.1041602164553E-01
    54  5.3000000000000E-01  1.5739526428073E+00  3.6422071055833E-01
    55  5.4000000000000E-01  1.5433523756709E+00  4.1940055937306E-01
    56  5.5000000000000E-01  1.5090960909569E+00  4.7589794085483E-01
    57  5.6000000000000E-01  1.4712692273533E+00  5.3364716265551E-01
    58  5.7000000000000E-01  1.4299729402362E+00  5.9257197770079E-01
    59  5.8000000000000E-01  1.3853245859650E+00  6.5258309563277E-01
    60  5.9000000000000E-01  1.3374581283697E+00  7.1357576108858E-01
    61  6.0000000000000E-01  1.2865244457659E+00  7.7542746547366E-01
    62  6.1000000000000E-01  1.2326915173154E+00  8.3799585842406E-01
    63  6.2000000000000E-01  1.1761444685134E+00  9.0111692332522E-01
    64  6.3000000000000E-01  1.1170854570226E+00  9.6460347807187E-01
    65  6.4000000000000E-01  1.0557333819736E+00  1.0282440577462E+00
    66  6.5000000000000E-01  9.9232340218419E-01  1.0918022301198E+00
    67  6.6000000000000E-01  9.2710625149562E-01  1.1550163879298E+00
    68  6.7000000000000E-01  8.6034734252341E-01  1.2176000538489E+00
    69  6.8000000000000E-01  7.9232565354194E-01  1.2792427250977E+00
    70  6.9000000000000E-01  7.2333239689677E-01  1.3396112748731E+00
    71  7.0000000000000E-01  6.5366947121134E-01  1.3983519173778E+00
    72  7.1000000000000E-01  5.8364770365349E-01  1.4550927323925E+00
    73  7.2000000000000E-01  5.1358489258217E-01  1.5094467342514E+00
    74  7.3000000000000E-01  4.4380366493009E-01  1.5610154589517E+00
    75  7.4000000000000E-01  3.7462916661777E-01  1.6093930321690E+00
    76  7.5000000000000E-01  3.0638660806198E-01  1.6541706703629E+00
    77  7.6000000000000E-01  2.3939869036276E-01  1.6949415571606E+00
    78  7.7000000000000E-01  1.7398294095404E-01  1.7313060279868E+00
    79  7.8000000000000E-01  1.1044899031743E-01  1.7628769876701E+00
    80  7.9000000000000E-01  4.9095823722712E-02  1.7892854786659E+00
    81  8.0000000000000E-01 -9.7909561830029E-03  1.8101863117527E+00
    82  8.1000000000000E-01 -6.5941818809976E-02  1.8252636667263E+00
    83  8.2000000000000E-01 -1.1910590924445E-01  1.8342365678377E+00
    84  8.3000000000000E-01 -1.6905352811885E-01  1.8368641375895E+00
    85  8.4000000000000E-01 -2.1557845034877E-01  1.8329505330759E+00
    86  8.5000000000000E-01 -2.5850004654491E-01  1.8223494713549E+00
    87  8.6000000000000E-01 -2.9766517274362E-01  1.8049682543662E+00
    88  8.7000000000000E-01 -3.3294979655932E-01  1.7807712096307E+00
    89  8.8000000000000E-01 -3.6426033092054E-01  1.7497824703100E+00
    90  8.9000000000000E-01 -3.9153465016670E-01  1.7120880270728E+00
    91  9.0000000000000E-01 -4.1474276740771E-01  1.6678369944874E+00
    92  9.1000000000000E-01 -4.3388715662021E-01  1.6172420461684E+00
    93  9.2000000000000E-01 -4.4900270790626E-01  1.5605789854832E+00
    94  9.3000000000000E-01 -4.6015630959198E-01  1.4981854320559E+00
    95  9.4000000000000E-01 -4.6744605631411E-01  1.4304586183805E+00
    96  9.5000000000000E-01 -4.7100008783804E-01  1.3578523053201E+00
    97  9.6000000000000E-01 -4.7097506898206E-01  1.2808728398939E+00
    98  9.7000000000000E-01 -4.6755432659005E-01  1.2000743932625E+00
    99  9.8000000000000E-01 -4.6094566490365E-01  1.1160534309725E+00
   100  9.9000000000000E-01 -4.5137888583890E-01  1.0294424810450E+00
   101  1.0000000000000E+00 -4.3910304547975E-01  9.4090327815050E-01
   102  1.0100000000000E+00 -4.2438348247320E-01  8.5111937365875E-01
   103  1.0200000000000E+00 -4.0749865786598E-01  7.6078831157111E-01
   104  1.0300000000000E+00 -3.8873684918579E-01  6.7061347902479E-01
   105  1.0400000000000E+00 -3.6839274418118E-01  5.8129574704328E-01
   106  1.0500000000000E+00 -3.4676398153052E-01  4.9352502232274E-01
   107  1.0600000000000E+00 -3.2414768697838E-01  4.0797183399375E-01
   108  1.0700000000000E+00 -3.0083705372016E-01  3.2527908038212E-01
   109  1.0800000000000E+00 -2.7711801542104E-01  2.4605405977157E-01
   110  1.0900000000000E+00 -2.5326605901620E-01  1.7086090602470E-01
   111  1.1000000000000E+00 -2.2954322240902E-01  1.0021354467634E-01
   112  1.1100000000000E+00 -2.0619531938956E-01  3.4569277843173E-02
   113  1.1200000000000E+00 -1.8344943056469E-01 -2.5676902932945E-02
   114  1.1300000000000E+00 -1.6151169489862E-01 -8.0197187779702E-02
   115  1.1400000000000E+00 -1.4056543163363E-01 -1.2873492808174E-01
   116  1.1500000000000E+00 -1.2076961702502E-01 -1.7110766315370E-01
   117  1.1600000000000E+00 -1.0225773449953E-01 -2.0720914793627E-01
   118  1.1700000000000E+00 -8.5137010701702E-02 -2.3701035185475E-01
   119  1.1800000000000E+00 -6.9488043455270E-02 -2.6055941596987E-01
   120  1.1900000000000E+00 -5.5364821104467E-02 -2.7798057287760E-01
   121  1.2000000000000E+00 -4.2795126087646E-02 -2.8947205128437E-01
   122  1.2100000000000E+00 -3.1781309040587E-02 -2.9530300450569E-01
   123  1.2200000000000E+00 -2.2301413393077E-02 -2.9580951887454E-01
   124  1.2300000000000E+00 -1.4310624322231E-02 -2.9138977416509E-01
   125  1.2400000000000E+00 -7.7430102802151E-03 -2.8249844305055E-01
   126  1.2500000000000E+00 -2.5135201234441E-03 -2.6964043031478E-01
   127  1.2600000000000E+00  1.4798057263241E-03 -2.5336406465651E-01
   128  1.2700000000000E+00  4.3534555720179E-03 -2.3425386622310E-01
   129  1.2800000000000E+00  6.2359470371513E-03 -2.1292302203360E-01
   130  1.2900000000000E+00  7.2652596474214E-03 -1.9000570917153E-01
   131  1.3000000000000E+00  7.5862386677334E-03 -1.6614935894942E-01
   132  1.3100000000000E+00  7.3479126392839E-03 -1.4200658982200E-01
   133  1.3200000000000E+00  6.6978810276876E-03 -1.1821644394240E-01
   134  1.3300000000000E+00  5.7755329651937E-03 -9.5381588315155E-02
   135  1.3400000000000E+00  4.7060941908918E-03 -7.4053407930389E-02
   136  1.3500000000000E+00  3.5852687720210E-03 -5.4700025202339E-02
   137  1.3600000000000E+00  2.5123168585838E-03 -3.7766096581845E-02
   138  1.3700000000000E+00  1.5726426133672E-03 -2.3639608481671E-02
   139  1.3800000000000E+00  8.2843000373807E-04 -1.2632568444393E-02
   140  1.3900000000000E+00  3.1716489783904E-04 -4.9763064856903E-03
   141  1.4000000000000E+00  5.2245017735239E-05 -8.4762718028497E-04