Rh    ONCVPSP-4.0.1  r_core=   1.40667   1.40667   1.35707
     45.0000     17.0000      231019    zatom,zion,pspd
     8       2   2     4   600     0    pspcod,pspxc,lmax,lloc,mmax,r2well
  5.99000000  7.00000000  0.00000000    rchrg fchrg qchrg
     2     2     2     0     0    nproj
     1     1           extension_switch
   0                         1.5126013067600E+01  1.2854954938784E+00
     1  0.0000000000000E+00 -2.2446078329352E-10  1.1039112401967E-09
     2  1.0000000000000E-02  7.8141364308328E-02 -4.1207475046106E-02
     3  2.0000000000000E-02  1.5609969468495E-01 -8.2158131312534E-02
     4  3.0000000000000E-02  2.3369257646312E-01 -1.2259689428208E-01
     5  4.0000000000000E-02  3.1073882927036E-01 -1.6227215842822E-01
     6  5.0000000000000E-02  3.8705911364516E-01 -2.0093747316145E-01
     7  6.0000000000000E-02  4.6247652517962E-01 -2.3835317131549E-01
     8  7.0000000000000E-02  5.3681717229861E-01 -2.7428792233755E-01
     9  8.0000000000000E-02  6.0991073401026E-01 -3.0852019345100E-01
    10  9.0000000000000E-02  6.8159099423607E-01 -3.4083960340654E-01
    11  1.0000000000000E-01  7.5169634964778E-01 -3.7104815500926E-01
    12  1.1000000000000E-01  8.2007028829569E-01 -3.9896133438041E-01
    13  1.2000000000000E-01  8.8656183670547E-01 -4.2440906685605E-01
    14  1.3000000000000E-01  9.5102597353914E-01 -4.4723652151128E-01
    15  1.4000000000000E-01  1.0133240083562E+00 -4.6730475849574E-01
    16  1.5000000000000E-01  1.0733239244632E+00 -4.8449121564022E-01
    17  1.6000000000000E-01  1.1309006853001E+00 -4.9869003310976E-01
    18  1.7000000000000E-01  1.1859365042669E+00 -5.0981221720050E-01
    19  1.8000000000000E-01  1.2383210783439E+00 -5.1778564666851E-01
    20  1.9000000000000E-01  1.2879517862877E+00 -5.2255492720427E-01
    21  2.0000000000000E-01  1.3347338525937E+00 -5.2408110179040E-01
    22  2.1000000000000E-01  1.3785804787887E+00 -5.2234122666958E-01
    23  2.2000000000000E-01  1.4194129439591E+00 -5.1732782447243E-01
    24  2.3000000000000E-01  1.4571606767103E+00 -5.0904822768246E-01
    25  2.4000000000000E-01  1.4917613010027E+00 -4.9752382701998E-01
    26  2.5000000000000E-01  1.5231606585024E+00 -4.8278924048680E-01
    27  2.6000000000000E-01  1.5513128102180E+00 -4.6489141970861E-01
    28  2.7000000000000E-01  1.5761800202792E+00 -4.4388871082667E-01
    29  2.8000000000000E-01  1.5977327247214E+00 -4.1984988751450E-01
    30  2.9000000000000E-01  1.6159494881053E+00 -3.9285317372074E-01
    31  3.0000000000000E-01  1.6308169506865E+00 -3.6298527346608E-01
    32  3.1000000000000E-01  1.6423297686927E+00 -3.3034042445104E-01
    33  3.2000000000000E-01  1.6504905500402E+00 -2.9501949137187E-01
    34  3.3000000000000E-01  1.6553097875494E+00 -2.5712911370480E-01
    35  3.4000000000000E-01  1.6568057913944E+00 -2.1678092132249E-01
    36  3.5000000000000E-01  1.6550046221575E+00 -1.7409082967114E-01
    37  3.6000000000000E-01  1.6499400254557E+00 -1.2917842438809E-01
    38  3.7000000000000E-01  1.6416533686748E+00 -8.2166443207999E-02
    39  3.8000000000000E-01  1.6301935798936E+00 -3.3180360821527E-02
    40  3.9000000000000E-01  1.6156170886148E+00  1.7651919948611E-02
    41  4.0000000000000E-01  1.5979877674483E+00  7.0200269666738E-02
    42  4.1000000000000E-01  1.5773768734258E+00  1.2433242792604E-01
    43  4.2000000000000E-01  1.5538629871794E+00  1.7991399695357E-01
    44  4.3000000000000E-01  1.5275319477831E+00  2.3680833938601E-01
    45  4.4000000000000E-01  1.4984767806671E+00  2.9487638870630E-01
    46  4.5000000000000E-01  1.4667976156602E+00  3.5397638298556E-01
    47  4.6000000000000E-01  1.4326015919115E+00  4.1396353456310E-01
    48  4.7000000000000E-01  1.3960027462028E+00  4.7468965008199E-01
    49  4.8000000000000E-01  1.3571218809770E+00  5.3600271684294E-01
    50  4.9000000000000E-01  1.3160864083067E+00  5.9774647271513E-01
    51  5.0000000000000E-01  1.2730301659877E+00  6.5975997781973E-01
    52  5.1000000000000E-01  1.2280932019957E+00  7.2187720685851E-01
    53  5.2000000000000E-01  1.1814215236721E+00  7.8392668127628E-01
    54  5.3000000000000E-01  1.1331668082188E+00  8.4573116040963E-01
    55  5.4000000000000E-01  1.0834860713842E+00  9.0710741037732E-01
    56  5.5000000000000E-01  1.0325412915990E+00  9.6786606870826E-01
    57  5.6000000000000E-01  9.8049898728716E-01  1.0278116215844E+00
    58  5.7000000000000E-01  9.2752974560897E-01  1.0867425091101E+00
    59  5.8000000000000E-01  8.7380770150337E-01  1.1444513722191E+00
    60  5.9000000000000E-01  8.1950996656294E-01  1.2007254527214E+00
    61  6.0000000000000E-01  7.6481600799937E-01  1.2553471555991E+00
    62  6.1000000000000E-01  7.0990697872393E-01  1.3080947800171E+00
    63  6.2000000000000E-01  6.5496500036927E-01  1.3587434226572E+00
    64  6.3000000000000E-01  6.0017240190161E-01  1.4070660539603E+00
    65  6.4000000000000E-01  5.4571091730618E-01  1.4528347647058E+00
    66  6.5000000000000E-01  4.9176084665810E-01  1.4958221771355E+00
    67  6.6000000000000E-01  4.3850018570445E-01  1.5358030115711E+00
    68  6.7000000000000E-01  3.8610372986577E-01  1.5725557962599E+00
    69  6.8000000000000E-01  3.3474215930404E-01  1.6058647050367E+00
    70  6.9000000000000E-01  2.8458111238595E-01  1.6355215043914E+00
    71  7.0000000000000E-01  2.3578025548043E-01  1.6613275887197E+00
    72  7.1000000000000E-01  1.8849235755853E-01  1.6830960799593E+00
    73  7.2000000000000E-01  1.4286237849700E-01  1.7006539655388E+00
    74  7.3000000000000E-01  9.9026580316810E-02  1.7138442466174E+00
    75  7.4000000000000E-01  5.7111670803426E-02  1.7225280670263E+00
    76  7.5000000000000E-01  1.7233989050279E-02  1.7265867921670E+00
    77  7.6000000000000E-01 -2.0501257566112E-02  1.7259240064098E+00
    78  7.7000000000000E-01 -5.6000695635157E-02  1.7204673972880E+00
    79  7.8000000000000E-01 -8.9183418139617E-02  1.7101704950232E+00
    80  7.9000000000000E-01 -1.1998153844835E-01  1.6950142366502E+00
    81  8.0000000000000E-01 -1.4834065782664E-01  1.6750083252368E+00
    82  8.1000000000000E-01 -1.7422023911120E-01  1.6501923564158E+00
    83  8.2000000000000E-01 -1.9759388001420E-01  1.6206366866410E+00
    84  8.3000000000000E-01 -2.1844948045458E-01  1.5864430202346E+00
    85  8.4000000000000E-01 -2.3678929935368E-01  1.5477446953712E+00
    86  8.5000000000000E-01 -2.5262989746547E-01  1.5047066526171E+00
    87  8.6000000000000E-01 -2.6600196402638E-01  1.4575250734583E+00
    88  8.7000000000000E-01 -2.7695002628916E-01  1.4064266803705E+00
    89  8.8000000000000E-01 -2.8553204233563E-01  1.3516676943395E+00
    90  8.9000000000000E-01 -2.9181887892484E-01  1.2935324502815E+00
    91  9.0000000000000E-01 -2.9589367750918E-01  1.2323316754667E+00
    92  9.1000000000000E-01 -2.9785111292147E-01  1.1684004407579E+00
    93  9.2000000000000E-01 -2.9779655058200E-01  1.1020957991552E+00
    94  9.3000000000000E-01 -2.9584510937598E-01  1.0337941307304E+00
    95  9.4000000000000E-01 -2.9212063859009E-01  9.6388821745971E-01
    96  9.5000000000000E-01 -2.8675461845148E-01  8.9278407565359E-01
    97  9.6000000000000E-01 -2.7988499486797E-01  8.2089757757040E-01
    98  9.7000000000000E-01 -2.7165495990436E-01  7.4865089731916E-01
    99  9.8000000000000E-01 -2.6221169033352E-01  6.7646881924714E-01
   100  9.9000000000000E-01 -2.5170505725634E-01  6.0477494961316E-01
   101  1.0000000000000E+00 -2.4028632028077E-01  5.3398787442061E-01
   102  1.0100000000000E+00 -2.2810682007591E-01  4.6451730778169E-01
   103  1.0200000000000E+00 -2.1531668326521E-01  3.9676027607256E-01
   104  1.0300000000000E+00 -2.0206355358766E-01  3.3109738339536E-01
   105  1.0400000000000E+00 -1.8849136303415E-01  2.6788920346743E-01
   106  1.0500000000000E+00 -1.7473915625823E-01  2.0747284200720E-01
   107  1.0600000000000E+00 -1.6093998096908E-01  1.5015871198479E-01
   108  1.0700000000000E+00 -1.4721985624242E-01  9.6227561759214E-02
   109  1.0800000000000E+00 -1.3369682974503E-01  4.5927793169934E-02
   110  1.0900000000000E+00 -1.2048013376459E-01 -5.2689689430133E-04
   111  1.1000000000000E+00 -1.0766944868703E-01 -4.2959522008037E-02
   112  1.1100000000000E+00 -9.5354281182111E-02 -8.1231433930796E-02
   113  1.1200000000000E+00 -8.3613462857693E-02 -1.1524355267602E-01
   114  1.1300000000000E+00 -7.2514773553850E-02 -1.4493718442120E-01
   115  1.1400000000000E+00 -6.2114691774751E-02 -1.7029441842746E-01
   116  1.1500000000000E+00 -5.2458273040814E-02 -1.9133809999227E-01
   117  1.1600000000000E+00 -4.3579155187706E-02 -2.0813138248216E-01
   118  1.1700000000000E+00 -3.5499687888539E-02 -2.2077686752488E-01
   119  1.1800000000000E+00 -2.8231181934349E-02 -2.2941534846648E-01
   120  1.1900000000000E+00 -2.1774272117372E-02 -2.3422417807120E-01
   121  1.2000000000000E+00 -1.6119385934989E-02 -2.3541528711200E-01
   122  1.2100000000000E+00 -1.1247308793627E-02 -2.3323288587970E-01
   123  1.2200000000000E+00 -7.1298349740401E-03 -2.2795088561075E-01
   124  1.2300000000000E+00 -3.7304923224180E-03 -2.1987008139601E-01
   125  1.2400000000000E+00 -1.0053274993242E-03 -2.0931514212691E-01
   126  1.2500000000000E+00  1.0962623535093E-03 -1.9663145647421E-01
   127  1.2600000000000E+00  2.6306664541761E-03 -1.8218188668352E-01
   128  1.2700000000000E+00  3.6591812431367E-03 -1.6634348406845E-01
   129  1.2800000000000E+00  4.2471312934461E-03 -1.4950422206331E-01
   130  1.2900000000000E+00  4.4630067824826E-03 -1.3205980474249E-01
   131  1.3000000000000E+00  4.3776235860173E-03 -1.1441056007779E-01
   132  1.3100000000000E+00  4.0632383782948E-03 -9.6958075474639E-02
   133  1.3200000000000E+00  3.5904666320061E-03 -8.0091538865403E-02
   134  1.3300000000000E+00  3.0243756378332E-03 -6.4170316273995E-02
   135  1.3400000000000E+00  2.4209611454284E-03 -4.9511901272737E-02
   136  1.3500000000000E+00  1.8159489315335E-03 -3.6355871920932E-02
   137  1.3600000000000E+00  1.2537470219996E-03 -2.4954076504386E-02
   138  1.3700000000000E+00  7.7322398121640E-04 -1.5527554300273E-02
   139  1.3800000000000E+00  4.0084746235623E-04 -8.2447770205090E-03
   140  1.3900000000000E+00  1.5037069343300E-04 -3.2200189365452E-03
   141  1.4000000000000E+00  2.3329814026996E-05 -5.3038653497442E-04
   142  1.4100000000000E+00 -1.6750532572886E-06  3.9994444044525E-05
   143  1.4200000000000E+00  4.8332155900521E-07 -1.1253902996227E-05
   144  1.43 -0.  0.
   145  1.44 -0. -0.
   146  1.45  0.  0.
   147  1.46  0.  0.
   148  1.47  0.  0.
   149  1.48  0.  0.
   150  1.49  0.  0.
   151  1.50  0.  0.
   152  1.51  0.  0.
   153  1.52  0.  0.
   154  1.53  0.  0.
   155  1.54  0.  0.
   156  1.55  0.  0.
   157  1.56  0.  0.
   158  1.57  0.  0.
   159  1.58  0.  0.
   160  1.59  0.  0.
   161  1.60  0.  0.
   162  1.61  0.  0.
   163  1.62  0.  0.
   164  1.63  0.  0.
   165  1.64  0.  0.
   166  1.65  0.  0.
   167  1.66  0.  0.
   168  1.67  0.  0.
   169  1.68  0.  0.
   170  1.69  0.  0.
   171  1.70  0.  0.
   172  1.71  0.  0.
   173  1.72  0.  0.
   174  1.73  0.  0.
   175  1.74  0.  0.
   176  1.75  0.  0.
   177  1.76  0.  0.
   178  1.77  0.  0.
   179  1.78  0.  0.
   180  1.79  0.  0.
   181  1.80  0.  0.
   182  1.81  0.  0.
   183  1.82  0.  0.
   184  1.83  0.  0.
   185  1.84  0.  0.
   186  1.85  0.  0.
   187  1.86  0.  0.
   188  1.87  0.  0.
   189  1.88  0.  0.
   190  1.89  0.  0.
   191  1.90  0.  0.
   192  1.91  0.  0.
   193  1.92  0.  0.
   194  1.93  0.  0.
   195  1.94  0.  0.
   196  1.95  0.  0.
   197  1.96  0.  0.
   198  1.97  0.  0.
   199  1.98  0.  0.
   200  1.99  0.  0.
   201  2.00  0.  0.
   202  2.01  0.  0.
   203  2.02  0.  0.
   204  2.03  0.  0.
   205  2.04  0.  0.
   206  2.05  0.  0.
   207  2.06  0.  0.
   208  2.07  0.  0.
   209  2.08  0.  0.
   210  2.09  0.  0.
   211  2.10  0.  0.
   212  2.11  0.  0.
   213  2.12  0.  0.
   214  2.13  0.  0.
   215  2.14  0.  0.
   216  2.15  0.  0.
   217  2.16  0.  0.
   218  2.17  0.  0.
   219  2.18  0.  0.
   220  2.19  0.  0.
   221  2.20  0.  0.
   222  2.21  0.  0.
   223  2.22  0.  0.
   224  2.23  0.  0.
   225  2.24  0.  0.
   226  2.25  0.  0.
   227  2.26  0.  0.
   228  2.27  0.  0.
   229  2.28  0.  0.
   230  2.29  0.  0.
   231  2.30  0.  0.
   232  2.31  0.  0.
   233  2.32  0.  0.
   234  2.33  0.  0.
   235  2.34  0.  0.
   236  2.35  0.  0.
   237  2.36  0.  0.
   238  2.37  0.  0.
   239  2.38  0.  0.
   240  2.39  0.  0.
   241  2.40  0.  0.
   242  2.41  0.  0.
   243  2.42  0.  0.
   244  2.43  0.  0.
   245  2.44  0.  0.
   246  2.45  0.  0.
   247  2.46  0.  0.
   248  2.47  0.  0.
   249  2.48  0.  0.
   250  2.49  0.  0.
   251  2.50  0.  0.
   252  2.51  0.  0.
   253  2.52  0.  0.
   254  2.53  0.  0.
   255  2.54  0.  0.
   256  2.55  0.  0.
   257  2.56  0.  0.
   258  2.57  0.  0.
   259  2.58  0.  0.
   260  2.59  0.  0.
   261  2.60  0.  0.
   262  2.61  0.  0.
   263  2.62  0.  0.
   264  2.63  0.  0.
   265  2.64  0.  0.
   266  2.65  0.  0.
   267  2.66  0.  0.
   268  2.67  0.  0.
   269  2.68  0.  0.
   270  2.69  0.  0.
   271  2.70  0.  0.
   272  2.71  0.  0.
   273  2.72  0.  0.
   274  2.73  0.  0.
   275  2.74  0.  0.
   276  2.75  0.  0.
   277  2.76  0.  0.
   278  2.77  0.  0.
   279  2.78  0.  0.
   280  2.79  0.  0.
   281  2.80  0.  0.
   282  2.81  0.  0.
   283  2.82  0.  0.
   284  2.83  0.  0.
   285  2.84  0.  0.
   286  2.85  0.  0.
   287  2.86  0.  0.
   288  2.87  0.  0.
   289  2.88  0.  0.
   290  2.89  0.  0.
   291  2.90  0.  0.
   292  2.91  0.  0.
   293  2.92  0.  0.
   294  2.93  0.  0.
   295  2.94  0.  0.
   296  2.95  0.  0.
   297  2.96  0.  0.
   298  2.97  0.  0.
   299  2.98  0.  0.
   300  2.99  0.  0.
   301  3.00  0.  0.
   302  3.01  0.  0.
   303  3.02  0.  0.
   304  3.03  0.  0.
   305  3.04  0.  0.
   306  3.05  0.  0.
   307  3.06  0.  0.
   308  3.07  0.  0.
   309  3.08  0.  0.
   310  3.09  0.  0.
   311  3.10  0.  0.
   312  3.11  0.  0.
   313  3.12  0.  0.
   314  3.13  0.  0.
   315  3.14  0.  0.
   316  3.15  0.  0.
   317  3.16  0.  0.
   318  3.17  0.  0.
   319  3.18  0.  0.
   320  3.19  0.  0.
   321  3.20  0.  0.
   322  3.21  0.  0.
   323  3.22  0.  0.
   324  3.23  0.  0.
   325  3.24  0.  0.
   326  3.25  0.  0.
   327  3.26  0.  0.
   328  3.27  0.  0.
   329  3.28  0.  0.
   330  3.29  0.  0.
   331  3.30  0.  0.
   332  3.31  0.  0.
   333  3.32  0.  0.
   334  3.33  0.  0.
   335  3.34  0.  0.
   336  3.35  0.  0.
   337  3.36  0.  0.
   338  3.37  0.  0.
   339  3.38  0.  0.
   340  3.39  0.  0.
   341  3.40  0.  0.
   342  3.41  0.  0.
   343  3.42  0.  0.
   344  3.43  0.  0.
   345  3.44  0.  0.
   346  3.45  0.  0.
   347  3.46  0.  0.
   348  3.47  0.  0.
   349  3.48  0.  0.
   350  3.49  0.  0.
   351  3.50  0.  0.
   352  3.51  0.  0.
   353  3.52  0.  0.
   354  3.53  0.  0.
   355  3.54  0.  0.
   356  3.55  0.  0.
   357  3.56  0.  0.
   358  3.57  0.  0.
   359  3.58  0.  0.
   360  3.59  0.  0.
   361  3.60  0.  0.
   362  3.61  0.  0.
   363  3.62  0.  0.
   364  3.63  0.  0.
   365  3.64  0.  0.
   366  3.65  0.  0.
   367  3.66  0.  0.
   368  3.67  0.  0.
   369  3.68  0.  0.
   370  3.69  0.  0.
   371  3.70  0.  0.
   372  3.71  0.  0.
   373  3.72  0.  0.
   374  3.73  0.  0.
   375  3.74  0.  0.
   376  3.75  0.  0.
   377  3.76  0.  0.
   378  3.77  0.  0.
   379  3.78  0.  0.
   380  3.79  0.  0.
   381  3.80  0.  0.
   382  3.81  0.  0.
   383  3.82  0.  0.
   384  3.83  0.  0.
   385  3.84  0.  0.
   386  3.85  0.  0.
   387  3.86  0.  0.
   388  3.87  0.  0.
   389  3.88  0.  0.
   390  3.89  0.  0.
   391  3.90  0.  0.
   392  3.91  0.  0.
   393  3.92  0.  0.
   394  3.93  0.  0.
   395  3.94  0.  0.
   396  3.95  0.  0.
   397  3.96  0.  0.
   398  3.97  0.  0.
   399  3.98  0.  0.
   400  3.99  0.  0.
   401  4.00  0.  0.
   402  4.01  0.  0.
   403  4.02  0.  0.
   404  4.03  0.  0.
   405  4.04  0.  0.
   406  4.05  0.  0.
   407  4.06  0.  0.
   408  4.07  0.  0.
   409  4.08  0.  0.
   410  4.09  0.  0.
   411  4.10  0.  0.
   412  4.11  0.  0.
   413  4.12  0.  0.
   414  4.13  0.  0.
   415  4.14  0.  0.
   416  4.15  0.  0.
   417  4.16  0.  0.
   418  4.17  0.  0.
   419  4.18  0.  0.
   420  4.19  0.  0.
   421  4.20  0.  0.
   422  4.21  0.  0.
   423  4.22  0.  0.
   424  4.23  0.  0.
   425  4.24  0.  0.
   426  4.25  0.  0.
   427  4.26  0.  0.
   428  4.27  0.  0.
   429  4.28  0.  0.
   430  4.29  0.  0.
   431  4.30  0.  0.
   432  4.31  0.  0.
   433  4.32  0.  0.
   434  4.33  0.  0.
   435  4.34  0.  0.
   436  4.35  0.  0.
   437  4.36  0.  0.
   438  4.37  0.  0.
   439  4.38  0.  0.
   440  4.39  0.  0.
   441  4.40  0.  0.
   442  4.41  0.  0.
   443  4.42  0.  0.
   444  4.43  0.  0.
   445  4.44  0.  0.
   446  4.45  0.  0.
   447  4.46  0.  0.
   448  4.47  0.  0.
   449  4.48  0.  0.
   450  4.49  0.  0.
   451  4.50  0.  0.
   452  4.51  0.  0.
   453  4.52  0.  0.
   454  4.53  0.  0.
   455  4.54  0.  0.
   456  4.55  0.  0.
   457  4.56  0.  0.
   458  4.57  0.  0.
   459  4.58  0.  0.
   460  4.59  0.  0.
   461  4.60  0.  0.
   462  4.61  0.  0.
   463  4.62  0.  0.
   464  4.63  0.  0.
   465  4.64  0.  0.
   466  4.65  0.  0.
   467  4.66  0.  0.
   468  4.67  0.  0.
   469  4.68  0.  0.
   470  4.69  0.  0.
   471  4.70  0.  0.
   472  4.71  0.  0.
   473  4.72  0.  0.
   474  4.73  0.  0.
   475  4.74  0.  0.
   476  4.75  0.  0.
   477  4.76  0.  0.
   478  4.77  0.  0.
   479  4.78  0.  0.
   480  4.79  0.  0.
   481  4.80  0.  0.
   482  4.81  0.  0.
   483  4.82  0.  0.
   484  4.83  0.  0.
   485  4.84  0.  0.
   486  4.85  0.  0.
   487  4.86  0.  0.
   488  4.87  0.  0.
   489  4.88  0.  0.
   490  4.89  0.  0.
   491  4.90  0.  0.
   492  4.91  0.  0.
   493  4.92  0.  0.
   494  4.93  0.  0.
   495  4.94  0.  0.
   496  4.95  0.  0.
   497  4.96  0.  0.
   498  4.97  0.  0.
   499  4.98  0.  0.
   500  4.99  0.  0.
   501  5.00  0.  0.
   502  5.01  0.  0.
   503  5.02  0.  0.
   504  5.03  0.  0.
   505  5.04  0.  0.
   506  5.05  0.  0.
   507  5.06  0.  0.
   508  5.07  0.  0.
   509  5.08  0.  0.
   510  5.09  0.  0.
   511  5.10  0.  0.
   512  5.11  0.  0.
   513  5.12  0.  0.
   514  5.13  0.  0.
   515  5.14  0.  0.
   516  5.15  0.  0.
   517  5.16  0.  0.
   518  5.17  0.  0.
   519  5.18  0.  0.
   520  5.19  0.  0.
   521  5.20  0.  0.
   522  5.21  0.  0.
   523  5.22  0.  0.
   524  5.23  0.  0.
   525  5.24  0.  0.
   526  5.25  0.  0.
   527  5.26  0.  0.
   528  5.27  0.  0.
   529  5.28  0.  0.
   530  5.29  0.  0.
   531  5.30  0.  0.
   532  5.31  0.  0.
   533  5.32  0.  0.
   534  5.33  0.  0.
   535  5.34  0.  0.
   536  5.35  0.  0.
   537  5.36  0.  0.
   538  5.37  0.  0.
   539  5.38  0.  0.
   540  5.39  0.  0.
   541  5.40  0.  0.
   542  5.41  0.  0.
   543  5.42  0.  0.
   544  5.43  0.  0.
   545  5.44  0.  0.
   546  5.45  0.  0.
   547  5.46  0.  0.
   548  5.47  0.  0.
   549  5.48  0.  0.
   550  5.49  0.  0.
   551  5.50  0.  0.
   552  5.51  0.  0.
   553  5.52  0.  0.
   554  5.53  0.  0.
   555  5.54  0.  0.
   556  5.55  0.  0.
   557  5.56  0.  0.
   558  5.57  0.  0.
   559  5.58  0.  0.
   560  5.59  0.  0.
   561  5.60  0.  0.
   562  5.61  0.  0.
   563  5.62  0.  0.
   564  5.63  0.  0.
   565  5.64  0.  0.
   566  5.65  0.  0.
   567  5.66  0.  0.
   568  5.67  0.  0.
   569  5.68  0.  0.
   570  5.69  0.  0.
   571  5.70  0.  0.
   572  5.71  0.  0.
   573  5.72  0.  0.
   574  5.73  0.  0.
   575  5.74  0.  0.
   576  5.75  0.  0.
   577  5.76  0.  0.
   578  5.77  0.  0.
   579  5.78  0.  0.
   580  5.79  0.  0.
   581  5.80  0.  0.
   582  5.81  0.  0.
   583  5.82  0.  0.
   584  5.83  0.  0.
   585  5.84  0.  0.
   586  5.85  0.  0.
   587  5.86  0.  0.
   588  5.87  0.  0.
   589  5.88  0.  0.
   590  5.89  0.  0.
   591  5.90  0.  0.
   592  5.91  0.  0.
   593  5.92  0.  0.
   594  5.93  0.  0.
   595  5.94  0.  0.
   596  5.95  0.  0.
   597  5.96  0.  0.
   598  5.97  0.  0.
   599  5.98  0.  0.
   600  5.99  0.  0.
   1                         7.1268852538988E+00  9.7194383638533E-01
     1  0.0000000000000E+00  2.6950186804431E-09 -6.9503615224287E-09
     2  1.0000000000000E-02  2.1644223061536E-03 -1.3135089183000E-03
     3  2.0000000000000E-02  8.6448641733111E-03 -5.2369861637932E-03
     4  3.0000000000000E-02  1.9402962834870E-02 -1.1719521925242E-02
     5  4.0000000000000E-02  3.4375153414888E-02 -2.0677058193184E-02
     6  5.0000000000000E-02  5.3473223111270E-02 -3.1993562180520E-02
     7  6.0000000000000E-02  7.6585076308930E-02 -4.5522641187090E-02
     8  7.0000000000000E-02  1.0357570010051E-01 -6.1089571590278E-02
     9  8.0000000000000E-02  1.3428831699720E-01 -7.8493707693325E-02
    10  9.0000000000000E-02  1.6854570914277E-01 -9.7511229831607E-02
    11  1.0000000000000E-01  2.0615169614224E-01 -1.1789818554047E-01
    12  1.1000000000000E-01  2.4689274671981E-01 -1.3939377282723E-01
    13  1.2000000000000E-01  2.9053970285998E-01 -1.6172381075075E-01
    14  1.3000000000000E-01  3.3684959388753E-01 -1.8460433966543E-01
    15  1.4000000000000E-01  3.8556751712489E-01 -2.0774529168303E-01
    16  1.5000000000000E-01  4.3642856134175E-01 -2.3085417117963E-01
    17  1.6000000000000E-01  4.8915974918767E-01 -2.5363968553899E-01
    18  1.7000000000000E-01  5.4348197517058E-01 -2.7581526777120E-01
    19  1.8000000000000E-01  5.9911191650524E-01 -2.9710243515115E-01
    20  1.9000000000000E-01  6.5576389528830E-01 -3.1723393153815E-01
    21  2.0000000000000E-01  7.1315167193917E-01 -3.3595660550311E-01
    22  2.1000000000000E-01  7.7099015164817E-01 -3.5303398172016E-01
    23  2.2000000000000E-01  8.2899698766152E-01 -3.6824848917689E-01
    24  2.3000000000000E-01  8.8689406756611E-01 -3.8140331651107E-01
    25  2.4000000000000E-01  9.4440887127033E-01 -3.9232387206303E-01
    26  2.5000000000000E-01  1.0012756920636E+00 -4.0085883391059E-01
    27  2.6000000000000E-01  1.0572367149240E+00 -4.0688078307985E-01
    28  2.7000000000000E-01  1.1120429490775E+00 -4.1028642115542E-01
    29  2.8000000000000E-01  1.1654550146426E+00 -4.1099638149323E-01
    30  2.9000000000000E-01  1.2172437859588E+00 -4.0895465101863E-01
    31  3.0000000000000E-01  1.2671908968556E+00 -4.0412762702224E-01
    32  3.1000000000000E-01  1.3150891156060E+00 -3.9650284030447E-01
    33  3.2000000000000E-01  1.3607425995868E+00 -3.8608738233023E-01
    34  3.3000000000000E-01  1.4039670416892E+00 -3.7290607961638E-01
    35  3.4000000000000E-01  1.4445897222470E+00 -3.5699946327391E-01
    36  3.5000000000000E-01  1.4824494816448E+00 -3.3842158537024E-01
    37  3.6000000000000E-01  1.5173966298055E+00 -3.1723773648580E-01
    38  3.7000000000000E-01  1.5492928094146E+00 -2.9352212045523E-01
    39  3.8000000000000E-01  1.5780108300049E+00 -2.6735554276715E-01
    40  3.9000000000000E-01  1.6034344898927E+00 -2.3882316843028E-01
    41  4.0000000000000E-01  1.6254584024286E+00 -2.0801240330213E-01
    42  4.1000000000000E-01  1.6439878421084E+00 -1.7501094994430E-01
    43  4.2000000000000E-01  1.6589386248045E+00 -1.3990508506422E-01
    44  4.3000000000000E-01  1.6702370347461E+00 -1.0277820059422E-01
    45  4.4000000000000E-01  1.6778198089299E+00 -6.3709644534893E-02
    46  4.5000000000000E-01  1.6816341874260E+00 -2.2773890956291E-02
    47  4.6000000000000E-01  1.6816380355869E+00  1.9959938867632E-02
    48  4.7000000000000E-01  1.6778000415382E+00  6.4428190179896E-02
    49  4.8000000000000E-01  1.6700999895668E+00  1.1057241766598E-01
    50  4.9000000000000E-01  1.6585291071902E+00  1.5833876052780E-01
    51  5.0000000000000E-01  1.6430904808477E+00  2.0767696131350E-01
    52  5.1000000000000E-01  1.6237995323599E+00  2.5853904866929E-01
    53  5.2000000000000E-01  1.6006845456174E+00  3.1087771246574E-01
    54  5.3000000000000E-01  1.5737872304459E+00  3.6464440759041E-01
    55  5.4000000000000E-01  1.5431633083045E+00  4.1978722993409E-01
    56  5.5000000000000E-01  1.5088831024657E+00  4.7624861457044E-01
    57  5.6000000000000E-01  1.4710321136464E+00  5.3396291169887E-01
    58  5.7000000000000E-01  1.4297115607531E+00  5.9285390046074E-01
    59  5.8000000000000E-01  1.3850388655080E+00  6.5283230413872E-01
    60  5.9000000000000E-01  1.3371480592699E+00  7.1379337242090E-01
    61  6.0000000000000E-01  1.2861900903684E+00  7.7561459728414E-01
    62  6.1000000000000E-01  1.2323330107543E+00  8.3815362858535E-01
    63  6.2000000000000E-01  1.1757620217341E+00  9.0124645362126E-01
    64  6.3000000000000E-01  1.1166793599921E+00  9.6470590173652E-01
    65  6.4000000000000E-01  1.0553040070057E+00  1.0283205305568E+00
    66  6.5000000000000E-01  9.9187120729635E-01  1.0918539446572E+00
    67  6.6000000000000E-01  9.2663178370002E-01  1.1550445905308E+00
    68  6.7000000000000E-01  8.5985124094766E-01  1.2176060636994E+00
    69  6.8000000000000E-01  7.9180865226645E-01  1.2792279548501E+00
    70  6.9000000000000E-01  7.2279532739125E-01  1.3395772521208E+00
    71  7.0000000000000E-01  6.5311326425027E-01  1.3983003062795E+00
    72  7.1000000000000E-01  5.8307339059049E-01  1.4550253547188E+00
    73  7.2000000000000E-01  5.1299360586604E-01  1.5093655891177E+00
    74  7.3000000000000E-01  4.4319663775099E-01  1.5609227405115E+00
    75  7.4000000000000E-01  3.7400773158006E-01  1.6092911445662E+00
    76  7.5000000000000E-01  3.0575219479180E-01  1.6540622392840E+00
    77  7.6000000000000E-01  2.3875282197168E-01  1.6948294373822E+00
    78  7.7000000000000E-01  1.7332722929638E-01  1.7311933063848E+00
    79  7.8000000000000E-01  1.0978512999716E-01  1.7627669812411E+00
    80  7.9000000000000E-01  4.8425584825934E-02  1.7891817272033E+00
    81  8.0000000000000E-01 -1.0465736631938E-02  1.8100925649275E+00
    82  8.1000000000000E-01 -6.6619246647903E-02  1.8251838654319E+00
    83  8.2000000000000E-01 -1.1978404417942E-01  1.8341748197765E+00
    84  8.3000000000000E-01 -1.6973039588156E-01  1.8368246872000E+00
    85  8.4000000000000E-01 -2.1625205589178E-01  1.8329377260212E+00
    86  8.5000000000000E-01 -2.5916838817249E-01  1.8223677139121E+00
    87  8.6000000000000E-01 -2.9832625703175E-01  1.8050219681755E+00
    88  8.7000000000000E-01 -3.3360165390443E-01  1.7808647823711E+00
    89  8.8000000000000E-01 -3.6490103153566E-01  1.7499202029705E+00
    90  8.9000000000000E-01 -3.9216232032661E-01  1.7122740785820E+00
    91  9.0000000000000E-01 -4.1535560573000E-01  1.6680753245400E+00
    92  9.1000000000000E-01 -4.3448345015817E-01  1.6175363571537E+00
    93  9.2000000000000E-01 -4.4958084782085E-01  1.5609326644703E+00
    94  9.3000000000000E-01 -4.6071480616652E-01  1.4986014938210E+00
    95  9.4000000000000E-01 -4.6798355307450E-01  1.4309396504780E+00
    96  9.5000000000000E-01 -4.7151537454529E-01  1.3584004161948E+00
    97  9.6000000000000E-01 -4.7146709327170E-01  1.2814896110099E+00
    98  9.7000000000000E-01 -4.6802220404510E-01  1.2007608361852E+00
    99  9.8000000000000E-01 -4.6138868736415E-01  1.1168099502807E+00
   100  9.9000000000000E-01 -4.5179652777111E-01  1.0302688438779E+00
   101  1.0000000000000E+00 -4.3949496825240E-01  9.4179859110268E-01
   102  1.0100000000000E+00 -4.2474953641570E-01  8.5208206763291E-01
   103  1.0200000000000E+00 -4.0783888201443E-01  7.6181613508185E-01
   104  1.0300000000000E+00 -3.8905146865642E-01  6.7170350032033E-01
   105  1.0400000000000E+00 -3.6868216514682E-01  5.8244436527753E-01
   106  1.0500000000000E+00 -3.4702878381384E-01  4.9472798787035E-01
   107  1.0600000000000E+00 -3.2438861431483E-01  4.0922427785769E-01
   108  1.0700000000000E+00 -3.0105500178381E-01  3.2657555250078E-01
   109  1.0800000000000E+00 -2.7731401774654E-01  2.4738857589124E-01
   110  1.0900000000000E+00 -2.5344127098998E-01  1.7222700266830E-01
   111  1.1000000000000E+00 -2.2969890354157E-01  1.0160434161103E-01
   112  1.1100000000000E+00 -2.0633281411759E-01  3.5977547332336E-02
   113  1.1200000000000E+00 -1.8357014786653E-01 -2.4258660913576E-02
   114  1.1300000000000E+00 -1.6161708703828E-01 -7.8776665272111E-02
   115  1.1400000000000E+00 -1.4065697237720E-01 -1.2731992480680E-01
   116  1.1500000000000E+00 -1.2084877969776E-01 -1.6970599914460E-01
   117  1.1600000000000E+00 -1.0232597027202E-01 -2.0582857422254E-01
   118  1.1700000000000E+00 -8.5195727509350E-02 -2.3565846029262E-01
   119  1.1800000000000E+00 -6.9538585965698E-02 -2.5924354931173E-01
   120  1.1900000000000E+00 -5.5408452153129E-02 -2.7670773614897E-01
   121  1.2000000000000E+00 -4.2833010001851E-02 -2.8824882549388E-01
   122  1.2100000000000E+00 -3.1814497267221E-02 -2.9413546364902E-01
   123  1.2200000000000E+00 -2.2330832834668E-02 -2.9470315111185E-01
   124  1.2300000000000E+00 -1.4337068770434E-02 -2.9034940795201E-01
   125  1.2400000000000E+00 -7.7671353154236E-03 -2.8152817888764E-01
   126  1.2500000000000E+00 -2.5358418237889E-03 -2.6874357865294E-01
   127  1.2600000000000E+00  1.4589079524656E-03 -2.5254309035577E-01
   128  1.2700000000000E+00  4.3337317491688E-03 -2.3351033981447E-01
   129  1.2800000000000E+00  6.2172647366467E-03 -2.1225757787834E-01
   130  1.2900000000000E+00  7.2475872447961E-03 -1.8941801045143E-01
   131  1.3000000000000E+00  7.5696236124072E-03 -1.6563806934799E-01
   132  1.3100000000000E+00  7.3324549493363E-03 -1.4156935233337E-01
   133  1.3200000000000E+00  6.6837097672565E-03 -1.1784988546879E-01
   134  1.3300000000000E+00  5.7627893597371E-03 -9.5081354954246E-02
   135  1.3400000000000E+00  4.6949110110798E-03 -7.3814225172499E-02
   136  1.3500000000000E+00  3.5757267938495E-03 -5.4515808359843E-02
   137  1.3600000000000E+00  2.5044492239912E-03 -3.7629883875847E-02
   138  1.3700000000000E+00  1.5664182772902E-03 -2.3543610506201E-02
   139  1.3800000000000E+00  8.2372092946931E-04 -1.2568247012443E-02
   140  1.3900000000000E+00  3.1371383247661E-04 -4.9344630092282E-03
   141  1.4000000000000E+00  4.9509140157683E-05 -8.1709245841257E-04