I     ONCVPSP-4.0.1  r_core=   2.00980   2.15938   2.25172
     53.0000      7.0000      250217    zatom,zion,pspd
     8       2   2     4   600     0    pspcod,pspxc,lmax,lloc,mmax,r2well
  5.99000000  4.00000000  0.00000000    rchrg fchrg qchrg
     2     3     2     0    nproj
     3     1           extension_switch
     4     4     0    nprojso
   0                         6.0590089719493E+00  8.6600874453489E-01
     1  0.0000000000000E+00 -3.7453762313788E-11  5.7457150148821E-11
     2  1.0000000000000E-02  2.0951572220422E-02  9.7948895487843E-03
     3  2.0000000000000E-02  4.1888714489768E-02  1.9545782006387E-02
     4  3.0000000000000E-02  6.2797127141418E-02  2.9208724950983E-02
     5  4.0000000000000E-02  8.3662769853975E-02  3.8739856448983E-02
     6  5.0000000000000E-02  1.0447198827420E-01  4.8095453158283E-02
     7  6.0000000000000E-02  1.2521163700694E-01  5.7231981821467E-02
     8  7.0000000000000E-02  1.4586919780528E-01  6.6106155211044E-02
     9  8.0000000000000E-02  1.6643289183136E-01  7.4674993531326E-02
    10  9.0000000000000E-02  1.8689178490503E-01  8.2895892210750E-02
    11  1.0000000000000E-01  2.0723588471185E-01  9.0726696934820E-02
    12  1.1000000000000E-01  2.2745622900525E-01  9.8125786674288E-02
    13  1.2000000000000E-01  2.4754496390812E-01  1.0505216535640E-01
    14  1.3000000000000E-01  2.6749541149703E-01  1.1146556271012E-01
    15  1.4000000000000E-01  2.8730212593657E-01  1.1732654469020E-01
    16  1.5000000000000E-01  3.0696093752175E-01  1.2259663375086E-01
    17  1.6000000000000E-01  3.2646898408225E-01  1.2723843909911E-01
    18  1.7000000000000E-01  3.4582472930255E-01  1.3121579691149E-01
    19  1.8000000000000E-01  3.6502796761654E-01  1.3449392034750E-01
    20  1.9000000000000E-01  3.8407981544251E-01  1.3703955904018E-01
    21  2.0000000000000E-01  4.0298268863447E-01  1.3882116758957E-01
    22  2.1000000000000E-01  4.2174026613728E-01  1.3980908243107E-01
    23  2.2000000000000E-01  4.4035743994511E-01  1.3997570629779E-01
    24  2.3000000000000E-01  4.5884025157537E-01  1.3929569934689E-01
    25  2.4000000000000E-01  4.7719581538114E-01  1.3774617587506E-01
    26  2.5000000000000E-01  4.9543222913530E-01  1.3530690540972E-01
    27  2.6000000000000E-01  5.1355847242626E-01  1.3196051683102E-01
    28  2.7000000000000E-01  5.3158429350933E-01  1.2769270405764E-01
    29  2.8000000000000E-01  5.4952008535753E-01  1.2249243171680E-01
    30  2.9000000000000E-01  5.6737675175041E-01  1.1635213911840E-01
    31  3.0000000000000E-01  5.8516556432910E-01  1.0926794076429E-01
    32  3.1000000000000E-01  6.0289801162875E-01  1.0123982154951E-01
    33  3.2000000000000E-01  6.2058564117609E-01  9.2271824751584E-02
    34  3.3000000000000E-01  6.3823989580829E-01  8.2372230859693E-02
    35  3.4000000000000E-01  6.5587194543054E-01  7.1553725266588E-02
    36  3.5000000000000E-01  6.7349251548179E-01  5.9833552834582E-02
    37  3.6000000000000E-01  6.9111171342159E-01  4.7233657352399E-02
    38  3.7000000000000E-01  7.0873885458503E-01  3.3780803922895E-02
    39  3.8000000000000E-01  7.2638228877717E-01  1.9506682362776E-02
    40  3.9000000000000E-01  7.4404922899314E-01  4.4479897544907E-03
    41  4.0000000000000E-01  7.6174558365435E-01 -1.1353509632557E-02
    42  4.1000000000000E-01  7.7947579374614E-01 -2.7850948739686E-02
    43  4.2000000000000E-01  7.9724267622595E-01 -4.4992348011648E-02
    44  4.3000000000000E-01  8.1504727504577E-01 -6.2720633031841E-02
    45  4.4000000000000E-01  8.3288872109646E-01 -8.0973680802342E-02
    46  4.5000000000000E-01  8.5076410233598E-01 -9.9684395810792E-02
    47  4.6000000000000E-01  8.6866834530840E-01 -1.1878081685133E-01
    48  4.7000000000000E-01  8.8659410919594E-01 -1.3818625537847E-01
    49  4.8000000000000E-01  9.0453169347303E-01 -1.5781946597227E-01
    50  4.9000000000000E-01  9.2246896014983E-01 -1.7759484928200E-01
    51  5.0000000000000E-01  9.4039127150258E-01 -1.9742268759417E-01
    52  5.1000000000000E-01  9.5828144409170E-01 -2.1720941294233E-01
    53  5.2000000000000E-01  9.7611971976472E-01 -2.3685790744021E-01
    54  5.3000000000000E-01  9.9388375423143E-01 -2.5626783528011E-01
    55  5.4000000000000E-01  1.0115486236839E+00 -2.7533600559497E-01
    56  5.5000000000000E-01  1.0290868498148E+00 -2.9395676513863E-01
    57  5.6000000000000E-01  1.0464684434634E+00 -3.1202241949475E-01
    58  5.7000000000000E-01  1.0636609669945E+00 -3.2942368128404E-01
    59  5.8000000000000E-01  1.0806296153855E+00 -3.4605014360242E-01
    60  5.9000000000000E-01  1.0973373158689E+00 -3.6179077669249E-01
    61  6.0000000000000E-01  1.1137448458484E+00 -3.7653444562792E-01
    62  6.1000000000000E-01  1.1298109686764E+00 -3.9017044657865E-01
    63  6.2000000000000E-01  1.1454925867564E+00 -4.0258905902321E-01
    64  6.3000000000000E-01  1.1607449113061E+00 -4.1368211108844E-01
    65  6.4000000000000E-01  1.1755216479973E+00 -4.2334355502429E-01
    66  6.5000000000000E-01  1.1897751975723E+00 -4.3147004966615E-01
    67  6.6000000000000E-01  1.2034568704211E+00 -4.3796154660119E-01
    68  6.7000000000000E-01  1.2165171140027E+00 -4.4272187663670E-01
    69  6.8000000000000E-01  1.2289057518881E+00 -4.4565933307334E-01
    70  6.9000000000000E-01  1.2405722331160E+00 -4.4668724821104E-01
    71  7.0000000000000E-01  1.2514658904626E+00 -4.4572455946469E-01
    72  7.1000000000000E-01  1.2615362061569E+00 -4.4269636143888E-01
    73  7.2000000000000E-01  1.2707330835014E+00 -4.3753444030836E-01
    74  7.3000000000000E-01  1.2790071228047E+00 -4.3017778687332E-01
    75  7.4000000000000E-01  1.2863098999850E+00 -4.2057308470527E-01
    76  7.5000000000000E-01  1.2925942461688E+00 -4.0867516987349E-01
    77  7.6000000000000E-01  1.2978145265819E+00 -3.9444745883947E-01
    78  7.7000000000000E-01  1.3019269170186E+00 -3.7786234123127E-01
    79  7.8000000000000E-01  1.3048896761712E+00 -3.5890153435801E-01
    80  7.9000000000000E-01  1.3066634121117E+00 -3.3755639649765E-01
    81  8.0000000000000E-01  1.3072113412362E+00 -3.1382819618741E-01
    82  8.1000000000000E-01  1.3064995380163E+00 -2.8772833496555E-01
    83  8.2000000000000E-01  1.3044971739439E+00 -2.5927852125284E-01
    84  8.3000000000000E-01  1.3011767441078E+00 -2.2851089332278E-01
    85  8.4000000000000E-01  1.2965142799078E+00 -1.9546808958866E-01
    86  8.5000000000000E-01  1.2904895464838E+00 -1.6020326473104E-01
    87  8.6000000000000E-01  1.2830862235236E+00 -1.2278005050087E-01
    88  8.7000000000000E-01  1.2742920682055E+00 -8.3272460357450E-02
    89  8.8000000000000E-01  1.2640990591346E+00 -4.1764737436488E-02
    90  8.9000000000000E-01  1.2525035202417E+00  1.6488543120413E-03
    91  9.0000000000000E-01  1.2395062237306E+00  4.6864295624589E-02
    92  9.1000000000000E-01  1.2251124712856E+00  9.3768133515424E-02
    93  9.2000000000000E-01  1.2093321528766E+00  1.4223785805267E-01
    94  9.3000000000000E-01  1.1921797826394E+00  1.9214233305446E-01
    95  9.4000000000000E-01  1.1736745114416E+00  2.4334227908571E-01
    96  9.5000000000000E-01  1.1538401158896E+00  2.9569080678517E-01
    97  9.6000000000000E-01  1.1327049636750E+00  3.4903399821070E-01
    98  9.7000000000000E-01  1.1103019553016E+00  4.0321153355768E-01
    99  9.8000000000000E-01  1.0866684423821E+00  4.5805736028611E-01
   100  9.9000000000000E-01  1.0618461228347E+00  5.1340040138681E-01
   101  1.0000000000000E+00  1.0358809134531E+00  5.6906529923009E-01
   102  1.0100000000000E+00  1.0088228004629E+00  6.2487319117104E-01
   103  1.0200000000000E+00  9.8072566881315E-01  6.8064251284010E-01
   104  1.0300000000000E+00  9.5164711108094E-01  7.3618982482353E-01
   105  1.0400000000000E+00  9.2164821699554E-01  7.9133065824073E-01
   106  1.0500000000000E+00  8.9079334470417E-01  8.4588037455446E-01
   107  1.0600000000000E+00  8.5914987501560E-01  8.9965503480753E-01
   108  1.0700000000000E+00  8.2678794996057E-01  9.5247227336648E-01
   109  1.0800000000000E+00  7.9378019710325E-01  1.0041521711714E+00
   110  1.0900000000000E+00  7.6020144112377E-01  1.0545181234407E+00
   111  1.1000000000000E+00  7.2612840426785E-01  1.1033976967615E+00
   112  1.1100000000000E+00  6.9163939732469E-01  1.1506234705135E+00
   113  1.1200000000000E+00  6.5681400284902E-01  1.1960338576204E+00
   114  1.1300000000000E+00  6.2173275238660E-01  1.2394738997070E+00
   115  1.1400000000000E+00  5.8647679949418E-01  1.2807960318541E+00
   116  1.1500000000000E+00  5.5112759036494E-01  1.3198608122901E+00
   117  1.1600000000000E+00  5.1576653387903E-01  1.3565376125401E+00
   118  1.1700000000000E+00  4.8047467289494E-01  1.3907052637608E+00
   119  1.1800000000000E+00  4.4533235858213E-01  1.4222526552329E+00
   120  1.1900000000000E+00  4.1041892956842E-01  1.4510792812483E+00
   121  1.2000000000000E+00  3.7581239763683E-01  1.4770957329288E+00
   122  1.2100000000000E+00  3.4158914165700E-01  1.5002241318316E+00
   123  1.2200000000000E+00  3.0782361137595E-01  1.5203985025410E+00
   124  1.2300000000000E+00  2.7458804262170E-01  1.5375650818136E+00
   125  1.2400000000000E+00  2.4195218539320E-01  1.5516825622255E+00
   126  1.2500000000000E+00  2.0998304621957E-01  1.5627222686707E+00
   127  1.2600000000000E+00  1.7874464607373E-01  1.5706682664763E+00
   128  1.2700000000000E+00  1.4829779501913E-01  1.5755174003210E+00
   129  1.2800000000000E+00  1.1869988465465E-01  1.5772792635806E+00
   130  1.2900000000000E+00  9.0004699304134E-02  1.5759760981577E+00
   131  1.3000000000000E+00  6.2262246771231E-02  1.5716426252984E+00
   132  1.3100000000000E+00  3.5518609351438E-02  1.5643258083325E+00
   133  1.3200000000000E+00  9.8158156605126E-03  1.5540845487156E+00
   134  1.3300000000000E+00 -1.4808266297081E-02  1.5409893171740E+00
   135  1.3400000000000E+00 -3.8320014532941E-02  1.5251217221783E+00
   136  1.3500000000000E+00 -6.0690116803502E-02  1.5065740183730E+00
   137  1.3600000000000E+00 -8.1893612650281E-02  1.4854485579833E+00
   138  1.3700000000000E+00 -1.0190991387535E-01  1.4618571885899E+00
   139  1.3800000000000E+00 -1.2072280370892E-01  1.4359206010150E+00
   140  1.3900000000000E+00 -1.3832041505610E-01  1.4077676313905E+00
   141  1.4000000000000E+00 -1.5469518833557E-01  1.3775345217772E+00
   142  1.4100000000000E+00 -1.6984380954421E-01  1.3453641439808E+00
   143  1.4200000000000E+00 -1.8376712929637E-01  1.3114051914493E+00
   144  1.4300000000000E+00 -1.9647006369486E-01  1.2758113443491E+00
   145  1.4400000000000E+00 -2.0796147799149E-01  1.2387404130916E+00
   146  1.4500000000000E+00 -2.1825405408780E-01  1.2003534657235E+00
   147  1.4600000000000E+00 -2.2736414301048E-01  1.1608139446993E+00
   148  1.4700000000000E+00 -2.3531160357111E-01  1.1202867786206E+00
   149  1.4800000000000E+00 -2.4211962848428E-01  1.0789374945580E+00
   150  1.4900000000000E+00 -2.4781455927372E-01  1.0369313365592E+00
   151  1.5000000000000E+00 -2.5242569133998E-01  9.9443239590397E-01
   152  1.5100000000000E+00 -2.5598507059745E-01  9.5160275857608E-01
   153  1.5200000000000E+00 -2.5852728311122E-01  9.0860167530339E-01
   154  1.5300000000000E+00 -2.6008923917643E-01  8.6558475935336E-01
   155  1.5400000000000E+00 -2.6070995328436E-01  8.2270321707656E-01
   156  1.5500000000000E+00 -2.6043032140950E-01  7.8010311595849E-01
   157  1.5600000000000E+00 -2.5929289703223E-01  7.3792469467548E-01
   158  1.5700000000000E+00 -2.5734166728124E-01  6.9630171935401E-01
   159  1.5800000000000E+00 -2.5462183053936E-01  6.5536088990677E-01
   160  1.5900000000000E+00 -2.5117957680706E-01  6.1522129996547E-01
   161  1.6000000000000E+00 -2.4706187205867E-01  5.7599395355207E-01
   162  1.6100000000000E+00 -2.4231624775914E-01  5.3778134122924E-01
   163  1.6200000000000E+00 -2.3699059663432E-01  5.0067707805087E-01
   164  1.6300000000000E+00 -2.3113297570489E-01  4.6476560519599E-01
   165  1.6400000000000E+00 -2.2479141750606E-01  4.3012195671955E-01
   166  1.6500000000000E+00 -2.1801375032019E-01  3.9681159239162E-01
   167  1.6600000000000E+00 -2.1084742815088E-01  3.6489029712941E-01
   168  1.6700000000000E+00 -2.0333937106380E-01  3.3440414705358E-01
   169  1.6800000000000E+00 -1.9553581641341E-01  3.0538954172819E-01
   170  1.6900000000000E+00 -1.8748218136667E-01  2.7787330167404E-01
   171  1.7000000000000E+00 -1.7922293702522E-01  2.5187282978153E-01
   172  1.7100000000000E+00 -1.7080149433790E-01  2.2739633479535E-01
   173  1.7200000000000E+00 -1.6226010188633E-01  2.0444311460278E-01
   174  1.7300000000000E+00 -1.5363975551849E-01  1.8300389663153E-01
   175  1.7400000000000E+00 -1.4498011970056E-01  1.6306123225867E-01
   176  1.7500000000000E+00 -1.3631946035485E-01  1.4458994174705E-01
   177  1.7600000000000E+00 -1.2769458885430E-01  1.2755760586777E-01
   178  1.7700000000000E+00 -1.1914081675110E-01  1.1192510003571E-01
   179  1.7800000000000E+00 -1.1069192072979E-01  9.7647166483805E-02
   180  1.7900000000000E+00 -1.0238011719460E-01  8.4673019732788E-02
   181  1.8000000000000E+00 -9.4236045826901E-02  7.2946980378047E-02
   182  1.8100000000000E+00 -8.6288761382621E-02  6.2409132016452E-02
   183  1.8200000000000E+00 -7.8565732941442E-02  5.2995995974580E-02
   184  1.8300000000000E+00 -7.1092849770101E-02  4.4641218376637E-02
   185  1.8400000000000E+00 -6.3894432921700E-02  3.7276264007614E-02
   186  1.8500000000000E+00 -5.6993251661621E-02  3.0831111384205E-02
   187  1.8600000000000E+00 -5.0410543788708E-02  2.5234943443652E-02
   188  1.8700000000000E+00 -4.4166038908261E-02  2.0416828299443E-02
   189  1.8800000000000E+00 -3.8277982555869E-02  1.6306382052494E-02
   190  1.8900000000000E+00 -3.2763173931408E-02  1.2834438351913E-02
   191  1.9000000000000E+00 -2.7636953716064E-02  9.9335828934865E-03
   192  1.9100000000000E+00 -2.2913377049399E-02  7.5390601858419E-03
   193  1.9200000000000E+00 -1.8607093276645E-02  5.5934263021931E-03
   194  1.9300000000000E+00 -1.4730884543047E-02  4.0416163125608E-03
   195  1.9400000000000E+00 -1.1293561498982E-02  2.8267187740715E-03
   196  1.9500000000000E+00 -8.3027953636954E-03  1.8965557303249E-03
   197  1.9600000000000E+00 -5.7648834020492E-03  1.2035176821396E-03
   198  1.9700000000000E+00 -3.6848368789784E-03  7.0505912394019E-04
   199  1.9800000000000E+00 -2.0671797870501E-03  3.6413523696712E-04
   200  1.9900000000000E+00 -9.0836158315188E-04  1.4841759250232E-04
   201  2.0000000000000E+00 -2.2964509962559E-04  3.5116348268820E-05
   202  2.0100000000000E+00  1.4957980592405E-06 -4.4625945097437E-08
   203  2.0200000000000E+00  5.3787713261843E-06 -7.1863808229538E-07
   204  2.03  0.  0.
   205  2.04  0.  0.
   206  2.05  0.  0.
   207  2.06  0.  0.
   208  2.07  0.  0.
   209  2.08  0.  0.
   210  2.09  0.  0.
   211  2.10  0.  0.
   212  2.11  0.  0.
   213  2.12  0.  0.
   214  2.13  0.  0.
   215  2.14  0.  0.
   216  2.15  0.  0.
   217  2.16  0.  0.
   218  2.17  0.  0.
   219  2.18  0.  0.
   220  2.19  0.  0.
   221  2.20  0.  0.
   222  2.21  0.  0.
   223  2.22  0.  0.
   224  2.23  0.  0.
   225  2.24  0.  0.
   226  2.25  0.  0.
   227  2.26  0.  0.
   228  2.27  0.  0.
   229  2.28  0.  0.
   230  2.29  0.  0.
   231  2.30  0.  0.
   232  2.31  0.  0.
   233  2.32  0.  0.
   234  2.33  0.  0.
   235  2.34  0.  0.
   236  2.35  0.  0.
   237  2.36  0.  0.
   238  2.37  0.  0.
   239  2.38  0.  0.
   240  2.39  0.  0.
   241  2.40  0.  0.
   242  2.41  0.  0.
   243  2.42  0.  0.
   244  2.43  0.  0.
   245  2.44  0.  0.
   246  2.45  0.  0.
   247  2.46  0.  0.
   248  2.47  0.  0.
   249  2.48  0.  0.
   250  2.49  0.  0.
   251  2.50  0.  0.
   252  2.51  0.  0.
   253  2.52  0.  0.
   254  2.53  0.  0.
   255  2.54  0.  0.
   256  2.55  0.  0.
   257  2.56  0.  0.
   258  2.57  0.  0.
   259  2.58  0.  0.
   260  2.59  0.  0.
   261  2.60  0.  0.
   262  2.61  0.  0.
   263  2.62  0.  0.
   264  2.63  0.  0.
   265  2.64  0.  0.
   266  2.65  0.  0.
   267  2.66  0.  0.
   268  2.67  0.  0.
   269  2.68  0.  0.
   270  2.69  0.  0.
   271  2.70  0.  0.
   272  2.71  0.  0.
   273  2.72  0.  0.
   274  2.73  0.  0.
   275  2.74  0.  0.
   276  2.75  0.  0.
   277  2.76  0.  0.
   278  2.77  0.  0.
   279  2.78  0.  0.
   280  2.79  0.  0.
   281  2.80  0.  0.
   282  2.81  0.  0.
   283  2.82  0.  0.
   284  2.83  0.  0.
   285  2.84  0.  0.
   286  2.85  0.  0.
   287  2.86  0.  0.
   288  2.87  0.  0.
   289  2.88  0.  0.
   290  2.89  0.  0.
   291  2.90  0.  0.
   292  2.91  0.  0.
   293  2.92  0.  0.
   294  2.93  0.  0.
   295  2.94  0.  0.
   296  2.95  0.  0.
   297  2.96  0.  0.
   298  2.97  0.  0.
   299  2.98  0.  0.
   300  2.99  0.  0.
   301  3.00  0.  0.
   302  3.01  0.  0.
   303  3.02  0.  0.
   304  3.03  0.  0.
   305  3.04  0.  0.
   306  3.05  0.  0.
   307  3.06  0.  0.
   308  3.07  0.  0.
   309  3.08  0.  0.
   310  3.09  0.  0.
   311  3.10  0.  0.
   312  3.11  0.  0.
   313  3.12  0.  0.
   314  3.13  0.  0.
   315  3.14  0.  0.
   316  3.15  0.  0.
   317  3.16  0.  0.
   318  3.17  0.  0.
   319  3.18  0.  0.
   320  3.19  0.  0.
   321  3.20  0.  0.
   322  3.21  0.  0.
   323  3.22  0.  0.
   324  3.23  0.  0.
   325  3.24  0.  0.
   326  3.25  0.  0.
   327  3.26  0.  0.
   328  3.27  0.  0.
   329  3.28  0.  0.
   330  3.29  0.  0.
   331  3.30  0.  0.
   332  3.31  0.  0.
   333  3.32  0.  0.
   334  3.33  0.  0.
   335  3.34  0.  0.
   336  3.35  0.  0.
   337  3.36  0.  0.
   338  3.37  0.  0.
   339  3.38  0.  0.
   340  3.39  0.  0.
   341  3.40  0.  0.
   342  3.41  0.  0.
   343  3.42  0.  0.
   344  3.43  0.  0.
   345  3.44  0.  0.
   346  3.45  0.  0.
   347  3.46  0.  0.
   348  3.47  0.  0.
   349  3.48  0.  0.
   350  3.49  0.  0.
   351  3.50  0.  0.
   352  3.51  0.  0.
   353  3.52  0.  0.
   354  3.53  0.  0.
   355  3.54  0.  0.
   356  3.55  0.  0.
   357  3.56  0.  0.
   358  3.57  0.  0.
   359  3.58  0.  0.
   360  3.59  0.  0.
   361  3.60  0.  0.
   362  3.61  0.  0.
   363  3.62  0.  0.
   364  3.63  0.  0.
   365  3.64  0.  0.
   366  3.65  0.  0.
   367  3.66  0.  0.
   368  3.67  0.  0.
   369  3.68  0.  0.
   370  3.69  0.  0.
   371  3.70  0.  0.
   372  3.71  0.  0.
   373  3.72  0.  0.
   374  3.73  0.  0.
   375  3.74  0.  0.
   376  3.75  0.  0.
   377  3.76  0.  0.
   378  3.77  0.  0.
   379  3.78  0.  0.
   380  3.79  0.  0.
   381  3.80  0.  0.
   382  3.81  0.  0.
   383  3.82  0.  0.
   384  3.83  0.  0.
   385  3.84  0.  0.
   386  3.85  0.  0.
   387  3.86  0.  0.
   388  3.87  0.  0.
   389  3.88  0.  0.
   390  3.89  0.  0.
   391  3.90  0.  0.
   392  3.91  0.  0.
   393  3.92  0.  0.
   394  3.93  0.  0.
   395  3.94  0.  0.
   396  3.95  0.  0.
   397  3.96  0.  0.
   398  3.97  0.  0.
   399  3.98  0.  0.
   400  3.99  0.  0.
   401  4.00  0.  0.
   402  4.01  0.  0.
   403  4.02  0.  0.
   404  4.03  0.  0.
   405  4.04  0.  0.
   406  4.05  0.  0.
   407  4.06  0.  0.
   408  4.07  0.  0.
   409  4.08  0.  0.
   410  4.09  0.  0.
   411  4.10  0.  0.
   412  4.11  0.  0.
   413  4.12  0.  0.
   414  4.13  0.  0.
   415  4.14  0.  0.
   416  4.15  0.  0.
   417  4.16  0.  0.
   418  4.17  0.  0.
   419  4.18  0.  0.
   420  4.19  0.  0.
   421  4.20  0.  0.
   422  4.21  0.  0.
   423  4.22  0.  0.
   424  4.23  0.  0.
   425  4.24  0.  0.
   426  4.25  0.  0.
   427  4.26  0.  0.
   428  4.27  0.  0.
   429  4.28  0.  0.
   430  4.29  0.  0.
   431  4.30  0.  0.
   432  4.31  0.  0.
   433  4.32  0.  0.
   434  4.33  0.  0.
   435  4.34  0.  0.
   436  4.35  0.  0.
   437  4.36  0.  0.
   438  4.37  0.  0.
   439  4.38  0.  0.
   440  4.39  0.  0.
   441  4.40  0.  0.
   442  4.41  0.  0.
   443  4.42  0.  0.
   444  4.43  0.  0.
   445  4.44  0.  0.
   446  4.45  0.  0.
   447  4.46  0.  0.
   448  4.47  0.  0.
   449  4.48  0.  0.
   450  4.49  0.  0.
   451  4.50  0.  0.
   452  4.51  0.  0.
   453  4.52  0.  0.
   454  4.53  0.  0.
   455  4.54  0.  0.
   456  4.55  0.  0.
   457  4.56  0.  0.
   458  4.57  0.  0.
   459  4.58  0.  0.
   460  4.59  0.  0.
   461  4.60  0.  0.
   462  4.61  0.  0.
   463  4.62  0.  0.
   464  4.63  0.  0.
   465  4.64  0.  0.
   466  4.65  0.  0.
   467  4.66  0.  0.
   468  4.67  0.  0.
   469  4.68  0.  0.
   470  4.69  0.  0.
   471  4.70  0.  0.
   472  4.71  0.  0.
   473  4.72  0.  0.
   474  4.73  0.  0.
   475  4.74  0.  0.
   476  4.75  0.  0.
   477  4.76  0.  0.
   478  4.77  0.  0.
   479  4.78  0.  0.
   480  4.79  0.  0.
   481  4.80  0.  0.
   482  4.81  0.  0.
   483  4.82  0.  0.
   484  4.83  0.  0.
   485  4.84  0.  0.
   486  4.85  0.  0.
   487  4.86  0.  0.
   488  4.87  0.  0.
   489  4.88  0.  0.
   490  4.89  0.  0.
   491  4.90  0.  0.
   492  4.91  0.  0.
   493  4.92  0.  0.
   494  4.93  0.  0.
   495  4.94  0.  0.
   496  4.95  0.  0.
   497  4.96  0.  0.
   498  4.97  0.  0.
   499  4.98  0.  0.
   500  4.99  0.  0.
   501  5.00  0.  0.
   502  5.01  0.  0.
   503  5.02  0.  0.
   504  5.03  0.  0.
   505  5.04  0.  0.
   506  5.05  0.  0.
   507  5.06  0.  0.
   508  5.07  0.  0.
   509  5.08  0.  0.
   510  5.09  0.  0.
   511  5.10  0.  0.
   512  5.11  0.  0.
   513  5.12  0.  0.
   514  5.13  0.  0.
   515  5.14  0.  0.
   516  5.15  0.  0.
   517  5.16  0.  0.
   518  5.17  0.  0.
   519  5.18  0.  0.
   520  5.19  0.  0.
   521  5.20  0.  0.
   522  5.21  0.  0.
   523  5.22  0.  0.
   524  5.23  0.  0.
   525  5.24  0.  0.
   526  5.25  0.  0.
   527  5.26  0.  0.
   528  5.27  0.  0.
   529  5.28  0.  0.
   530  5.29  0.  0.
   531  5.30  0.  0.
   532  5.31  0.  0.
   533  5.32  0.  0.
   534  5.33  0.  0.
   535  5.34  0.  0.
   536  5.35  0.  0.
   537  5.36  0.  0.
   538  5.37  0.  0.
   539  5.38  0.  0.
   540  5.39  0.  0.
   541  5.40  0.  0.
   542  5.41  0.  0.
   543  5.42  0.  0.
   544  5.43  0.  0.
   545  5.44  0.  0.
   546  5.45  0.  0.
   547  5.46  0.  0.
   548  5.47  0.  0.
   549  5.48  0.  0.
   550  5.49  0.  0.
   551  5.50  0.  0.
   552  5.51  0.  0.
   553  5.52  0.  0.
   554  5.53  0.  0.
   555  5.54  0.  0.
   556  5.55  0.  0.
   557  5.56  0.  0.
   558  5.57  0.  0.
   559  5.58  0.  0.
   560  5.59  0.  0.
   561  5.60  0.  0.
   562  5.61  0.  0.
   563  5.62  0.  0.
   564  5.63  0.  0.
   565  5.64  0.  0.
   566  5.65  0.  0.
   567  5.66  0.  0.
   568  5.67  0.  0.
   569  5.68  0.  0.
   570  5.69  0.  0.
   571  5.70  0.  0.
   572  5.71  0.  0.
   573  5.72  0.  0.
   574  5.73  0.  0.
   575  5.74  0.  0.
   576  5.75  0.  0.
   577  5.76  0.  0.
   578  5.77  0.  0.
   579  5.78  0.  0.
   580  5.79  0.  0.
   581  5.80  0.  0.
   582  5.81  0.  0.
   583  5.82  0.  0.
   584  5.83  0.  0.
   585  5.84  0.  0.
   586  5.85  0.  0.
   587  5.86  0.  0.
   588  5.87  0.  0.
   589  5.88  0.  0.
   590  5.89  0.  0.
   591  5.90  0.  0.
   592  5.91  0.  0.
   593  5.92  0.  0.
   594  5.93  0.  0.
   595  5.94  0.  0.
   596  5.95  0.  0.
   597  5.96  0.  0.
   598  5.97  0.  0.
   599  5.98  0.  0.
   600  5.99  0.  0.
   1                         4.0952005875760E+00  7.1860825588509E-01  5.9184671803948E-03
     1  0.0000000000000E+00  1.1543153585758E-10 -1.4283714835917E-10  1.6000676339445E-09
     2  1.0000000000000E-02  4.2129709676838E-04 -6.8688574702683E-05  1.3689496817552E-03
     3  2.0000000000000E-02  1.6839701765807E-03 -2.7429251686875E-04  5.4629931521540E-03
     4  3.0000000000000E-02  3.7843725541007E-03 -6.1543329512788E-04  1.2243820825734E-02
     5  4.0000000000000E-02  6.7164528462108E-03 -1.0898359950363E-03  2.1647939672095E-02
     6  5.0000000000000E-02  1.0471794396292E-02 -1.6943630068993E-03  3.3587204661667E-02
     7  6.0000000000000E-02  1.5039670041139E-02 -2.4250606534399E-03  4.7949556867896E-02
     8  7.0000000000000E-02  2.0407111797247E-02 -3.2772182278886E-03  6.4599962359068E-02
     9  8.0000000000000E-02  2.6558994927769E-02 -4.2454387702377E-03  8.3381544413010E-02
    10  9.0000000000000E-02  3.3478135740020E-02 -5.3237207726713E-03  1.0411690004698E-01
    11  1.0000000000000E-01  4.1145402356850E-02 -6.5055498759980E-03  1.2660959038129E-01
    12  1.1000000000000E-01  4.9539837604370E-02 -7.7839994983069E-03  1.5064579296331E-01
    13  1.2000000000000E-01  5.8638793064109E-02 -9.1518392263648E-03  1.7599610287692E-01
    14  1.3000000000000E-01  6.8418073250433E-02 -1.0601649700364E-02  2.0241746826172E-01
    15  1.4000000000000E-01  7.8852088794653E-02 -1.2125942634596E-02  2.2965524477721E-01
    16  1.5000000000000E-01  8.9914017446269E-02 -1.3717284541313E-02  2.5744535257546E-01
    17  1.6000000000000E-01  1.0157597163982E-01 -1.5368422663180E-02  2.8551651850178E-01
    18  1.7000000000000E-01  1.1380917132327E-01 -1.7072411571973E-02  3.1359258553163E-01
    19  1.8000000000000E-01  1.2658412070122E-01 -1.8822738858202E-02  3.4139487087958E-01
    20  1.9000000000000E-01  1.3987078751378E-01 -2.0613448318280E-02  3.6864455378721E-01
    21  2.0000000000000E-01  1.5363878345016E-01 -2.2439259043374E-02  3.9506507371518E-01
    22  2.1000000000000E-01  1.6785754428442E-01 -2.4295678826935E-02  4.2038451953250E-01
    23  2.2000000000000E-01  1.8249650832080E-01 -2.6179110336480E-02  4.4433799031413E-01
    24  2.3000000000000E-01  1.9752529174605E-01 -2.8086948539136E-02  4.6666990852835E-01
    25  2.4000000000000E-01  2.1291385950750E-01 -3.0017667929685E-02  4.8713626671463E-01
    26  2.5000000000000E-01  2.2863269036735E-01 -3.1970898183866E-02  5.0550678922074E-01
    27  2.6000000000000E-01  2.4465293482588E-01 -3.3947486948158E-02  5.2156699118072E-01
    28  2.7000000000000E-01  2.6094656465869E-01 -3.5949548579410E-02  5.3512011766811E-01
    29  2.8000000000000E-01  2.7748651287537E-01 -3.7980497762824E-02  5.4598894684819E-01
    30  2.9000000000000E-01  2.9424680297851E-01 -4.0045067064147E-02  5.5401744196966E-01
    31  3.0000000000000E-01  3.1120266648259E-01 -4.2149307610371E-02  5.5907223817518E-01
    32  3.1000000000000E-01  3.2833064774081E-01 -4.4300572241815E-02  5.6104395136239E-01
    33  3.2000000000000E-01  3.4560869522485E-01 -4.6507480635954E-02  5.5984829768251E-01
    34  3.3000000000000E-01  3.6301623850570E-01 -4.8779866068577E-02  5.5542701371331E-01
    35  3.4000000000000E-01  3.8053425029346E-01 -5.1128703649298E-02  5.4774856887635E-01
    36  3.5000000000000E-01  3.9814529300955E-01 -5.3566020044956E-02  5.3680866327252E-01
    37  3.6000000000000E-01  4.1583354948417E-01 -5.6104784884350E-02  5.2263050577421E-01
    38  3.7000000000000E-01  4.3358483749575E-01 -5.8758784219660E-02  5.0526486892347E-01
    39  3.8000000000000E-01  4.5138660799552E-01 -6.1542476602257E-02  4.8478991893126E-01
    40  3.9000000000000E-01  4.6922792698863E-01 -6.4470832511842E-02  4.6131082083892E-01
    41  4.0000000000000E-01  4.8709944117265E-01 -6.7559158056398E-02  4.3495912067716E-01
    42  4.1000000000000E-01  5.0499332756361E-01 -7.0822904034696E-02  4.0589190822597E-01
    43  4.2000000000000E-01  5.2290322746821E-01 -7.4277461621594E-02  3.7429076572607E-01
    44  4.3000000000000E-01  5.4082416528741E-01 -7.7937946097497E-02  3.4036050960947E-01
    45  4.4000000000000E-01  5.5875245275987E-01 -8.1818970195658E-02  3.0432773398343E-01
    46  4.5000000000000E-01  5.7668557937423E-01 -8.5934408783089E-02  2.6643916621327E-01
    47  4.6000000000000E-01  5.9462208979363E-01 -9.0297156721263E-02  2.2695984648526E-01
    48  4.7000000000000E-01  6.1256144924603E-01 -9.4918881870379E-02  1.8617114468512E-01
    49  4.8000000000000E-01  6.3050389793652E-01 -9.9809775304320E-02  1.4436862928445E-01
    50  4.9000000000000E-01  6.4845029563407E-01 -1.0497830089169E-01  1.0185980417832E-01
    51  5.0000000000000E-01  6.6640195767262E-01 -1.1043094647024E-01  5.8961730551149E-02
    52  5.1000000000000E-01  6.8436048368601E-01 -1.1617197889691E-01  1.5998551856321E-02
    53  5.2000000000000E-01  7.0232758046558E-01 -1.2220320529263E-01 -2.6701059131823E-02
    54  5.3000000000000E-01  7.2030488038961E-01 -1.2852374281960E-01 -6.8806511503700E-02
    55  5.4000000000000E-01  7.3829375692282E-01 -1.3512979932828E-01 -1.0998794536370E-01
    56  5.5000000000000E-01  7.5629513872303E-01 -1.4201446719145E-01 -1.4991889824021E-01
    57  5.6000000000000E-01  7.7430932391928E-01 -1.4916753260347E-01 -1.8827896778101E-01
    58  5.7000000000000E-01  7.9233579614153E-01 -1.5657530256388E-01 -2.2475644964727E-01
    59  5.8000000000000E-01  8.1037304388645E-01 -1.6422045168634E-01 -2.5905092957160E-01
    60  5.9000000000000E-01  8.2841838479572E-01 -1.7208189087609E-01 -2.9087580875890E-01
    61  6.0000000000000E-01  8.4646779640425E-01 -1.8013465980318E-01 -3.1996074218622E-01
    62  6.1000000000000E-01  8.6451575488405E-01 -1.8834984496405E-01 -3.4605396989510E-01
    63  6.2000000000000E-01  8.8255508326676E-01 -1.9669452497234E-01 -3.6892452206453E-01
    64  6.3000000000000E-01  9.0057681057349E-01 -2.0513174455111E-01 -3.8836427950004E-01
    65  6.4000000000000E-01  9.1857004321517E-01 -2.1362051851498E-01 -4.0418987217041E-01
    66  6.5000000000000E-01  9.3652184995061E-01 -2.2211586683212E-01 -4.1624439955842E-01
    67  6.6000000000000E-01  9.5441716160294E-01 -2.3056888164453E-01 -4.2439895786204E-01
    68  6.7000000000000E-01  9.7223868663945E-01 -2.3892682690208E-01 -4.2855396047419E-01
    69  6.8000000000000E-01  9.8996684361462E-01 -2.4713327103237E-01 -4.2864023967793E-01
    70  6.9000000000000E-01  1.0075797113628E+00 -2.5512825282660E-01 -4.2461991910293E-01
    71  7.0000000000000E-01  1.0250529977062E+00 -2.6284848047301E-01 -4.1648704819231E-01
    72  7.1000000000000E-01  1.0423600273168E+00 -2.7022756341599E-01 -4.0426799171052E-01
    73  7.2000000000000E-01  1.0594717492355E+00 -2.7719627646173E-01 -3.8802156917010E-01
    74  7.3000000000000E-01  1.0763567644156E+00 -2.8368285529371E-01 -3.6783894095577E-01
    75  7.4000000000000E-01  1.0929813735151E+00 -2.8961332230356E-01 -3.4384323986281E-01
    76  7.5000000000000E-01  1.1093096450139E+00 -2.9491184138853E-01 -3.1618894872807E-01