I     ONCVPSP-4.0.1  r_core=   2.00980   2.15938   2.25172
     53.0000      7.0000      231019    zatom,zion,pspd
     8       2   2     4   600     0    pspcod,pspxc,lmax,lloc,mmax,r2well
  5.99000000  4.00000000  0.00000000    rchrg fchrg qchrg
     2     2     2     0     0    nproj
     1     1           extension_switch
   0                         6.0619223297988E+00  8.6851399641914E-01
     1  0.0000000000000E+00 -3.7987335499423E-11  5.8587537599131E-11
     2  1.0000000000000E-02  2.1003664126921E-02  9.7379452094139E-03
     3  2.0000000000000E-02  4.1992590981632E-02  1.9432534525360E-02
     4  3.0000000000000E-02  6.2952175933147E-02  2.9040451639066E-02
     5  4.0000000000000E-02  8.3868078390889E-02  3.8518460599768E-02
     6  5.0000000000000E-02  1.0472635072946E-01  4.7823448950275E-02
     7  6.0000000000000E-02  1.2551356352589E-01  5.6912474368596E-02
     8  7.0000000000000E-02  1.4621692592501E-01  6.5742815915036E-02
     9  8.0000000000000E-02  1.6682439998655E-01  7.4272030925590E-02
    10  9.0000000000000E-02  1.8732480791457E-01  8.2458018520165E-02
    11  1.0000000000000E-01  2.0770793112541E-01  9.0259090608946E-02
    12  1.1000000000000E-01  2.2796460017431E-01  9.7634051182637E-02
    13  1.2000000000000E-01  2.4808677463227E-01  1.0454228456341E-01
    14  1.3000000000000E-01  2.6806761208406E-01  1.1094385317408E-01
    15  1.4000000000000E-01  2.8790152550337E-01  1.1679960525436E-01
    16  1.5000000000000E-01  3.0758422835346E-01  1.2207129281624E-01
    17  1.6000000000000E-01  3.2711276685809E-01  1.2672169998679E-01
    18  1.7000000000000E-01  3.4648553899010E-01  1.3071478173738E-01
    19  1.8000000000000E-01  3.6570229983026E-01  1.3401581284475E-01
    20  1.9000000000000E-01  3.8476415305855E-01  1.3659154677289E-01
    21  2.0000000000000E-01  4.0367352845110E-01  1.3841038400716E-01
    22  2.1000000000000E-01  4.2243414536954E-01  1.3944254921435E-01
    23  2.2000000000000E-01  4.4105096234307E-01  1.3966027644655E-01
    24  2.3000000000000E-01  4.5953011295766E-01  1.3903800145383E-01
    25  2.4000000000000E-01  4.7787882837945E-01  1.3755256002273E-01
    26  2.5000000000000E-01  4.9610534695109E-01  1.3518339111538E-01
    27  2.6000000000000E-01  5.1421881140793E-01  1.3191274344966E-01
    28  2.7000000000000E-01  5.3222915436692E-01  1.2772588403517E-01
    29  2.8000000000000E-01  5.5014697284163E-01  1.2261130706470E-01
    30  2.9000000000000E-01  5.6798339263374E-01  1.1656094145677E-01
    31  3.0000000000000E-01  5.8574992354153E-01  1.0957035525411E-01
    32  3.1000000000000E-01  6.0345830641067E-01  1.0163895500528E-01
    33  3.2000000000000E-01  6.2112035312957E-01  9.2770178194554E-02
    34  3.3000000000000E-01  6.3874778074182E-01  8.2971676738080E-02
    35  3.4000000000000E-01  6.5635204090955E-01  7.2255489533874E-02
    36  3.5000000000000E-01  6.7394414601474E-01  6.0638202040338E-02
    37  3.6000000000000E-01  6.9153449322969E-01  4.8141090861565E-02
    38  3.7000000000000E-01  7.0913268792201E-01  3.4790251340455E-02
    39  3.8000000000000E-01  7.2674736778467E-01  2.0616706200850E-02
    40  3.9000000000000E-01  7.4438602909622E-01  5.6564933383949E-03
    41  4.0000000000000E-01  7.6205485652105E-01 -1.0049269063036E-02
    42  4.1000000000000E-01  7.7975855785384E-01 -2.6454341817900E-02
    43  4.2000000000000E-01  7.9750020509650E-01 -4.3507350044505E-02
    44  4.3000000000000E-01  8.1528108322957E-01 -6.1151795975798E-02
    45  4.4000000000000E-01  8.3310054800386E-01 -7.9326100615870E-02
    46  4.5000000000000E-01  8.5095589403160E-01 -9.7963675420533E-02
    47  4.6000000000000E-01  8.6884223440065E-01 -1.1699302500422E-01
    48  4.7000000000000E-01  8.8675239296952E-01 -1.3633788168482E-01
    49  4.8000000000000E-01  9.0467681042711E-01 -1.5591737247596E-01
    50  4.9000000000000E-01  9.2260346511759E-01 -1.7564621892182E-01
    51  5.0000000000000E-01  9.4051780954063E-01 -1.9543496994644E-01
    52  5.1000000000000E-01  9.5840272333824E-01 -2.1519026765753E-01
    53  5.2000000000000E-01  9.7623848347505E-01 -2.3481514580629E-01
    54  5.3000000000000E-01  9.9400275220722E-01 -2.5420936036178E-01
    55  5.4000000000000E-01  1.0116705833190E+00 -2.7326975141142E-01
    56  5.5000000000000E-01  1.0292144469848E+00 -2.9189063535201E-01
    57  5.6000000000000E-01  1.0466042734900E+00 -3.0996422608809E-01
    58  5.7000000000000E-01  1.0638075159156E+00 -3.2738108370982E-01
    59  5.8000000000000E-01  1.0807892317630E+00 -3.4403058888205E-01
    60  5.9000000000000E-01  1.0975121833624E+00 -3.5980144094227E-01
    61  6.0000000000000E-01  1.1139369567809E+00 -3.7458217747879E-01
    62  6.1000000000000E-01  1.1300220988110E+00 -3.8826171294502E-01
    63  6.2000000000000E-01  1.1457242714958E+00 -4.0072989366092E-01
    64  6.3000000000000E-01  1.1609984235180E+00 -4.1187806636272E-01
    65  6.4000000000000E-01  1.1757979776594E+00 -4.2159965728654E-01
    66  6.5000000000000E-01  1.1900750334148E+00 -4.2979075861312E-01
    67  6.6000000000000E-01  1.2037805837366E+00 -4.3635071896141E-01
    68  6.7000000000000E-01  1.2168647447727E+00 -4.4118273449828E-01
    69  6.8000000000000E-01  1.2292769973638E+00 -4.4419443713318E-01
    70  6.9000000000000E-01  1.2409664389702E+00 -4.4529847618954E-01
    71  7.0000000000000E-01  1.2518820446150E+00 -4.4441308989192E-01
    72  7.1000000000000E-01  1.2619729353521E+00 -4.4146266297809E-01
    73  7.2000000000000E-01  1.2711886527008E+00 -4.3637826674146E-01
    74  7.3000000000000E-01  1.2794794374343E+00 -4.2909817782974E-01
    75  7.4000000000000E-01  1.2867965110571E+00 -4.1956837217276E-01
    76  7.5000000000000E-01  1.2930923582768E+00 -4.0774299048439E-01
    77  7.6000000000000E-01  1.2983210087442E+00 -3.9358477188233E-01
    78  7.7000000000000E-01  1.3024383163281E+00 -3.7706545229281E-01
    79  7.8000000000000E-01  1.3054022341838E+00 -3.5816612445658E-01
    80  7.9000000000000E-01  1.3071730838868E+00 -3.3687755652641E-01
    81  8.0000000000000E-01  1.3077138169224E+00 -3.1320046644305E-01
    82  8.1000000000000E-01  1.3069902668549E+00 -2.8714574949782E-01
    83  8.2000000000000E-01  1.3049713905439E+00 -2.5873465673113E-01
    84  8.3000000000000E-01  1.3016294968284E+00 -2.2799892207905E-01
    85  8.4000000000000E-01  1.2969404611667E+00 -1.9498083646134E-01
    86  8.5000000000000E-01  1.2908839247941E+00 -1.5973326730252E-01
    87  8.6000000000000E-01  1.2834434770481E+00 -1.2231962229192E-01
    88  8.7000000000000E-01  1.2746068196027E+00 -8.2813756515941E-02
    89  8.8000000000000E-01  1.2643659114611E+00 -4.1299822434614E-02
    90  8.9000000000000E-01  1.2527170936634E+00  2.1279374766360E-03
    91  9.0000000000000E-01  1.2396611927903E+00  4.7365455244405E-02
    92  9.1000000000000E-01  1.2252036024641E+00  9.4299158537887E-02
    93  9.2000000000000E-01  1.2093543421840E+00  1.4280634753423E-01
    94  9.3000000000000E-01  1.1921280929674E+00  1.9275562624822E-01
    95  9.4000000000000E-01  1.1735442094091E+00  2.4400738670658E-01
    96  9.5000000000000E-01  1.1536267079141E+00  2.9641434399237E-01
    97  9.6000000000000E-01  1.1324042310062E+00  3.4982211983887E-01
    98  9.7000000000000E-01  1.1099099877582E+00  4.0406987211559E-01
    99  9.8000000000000E-01  1.0861816705401E+00  4.5899096722557E-01
   100  9.9000000000000E-01  1.0612613484247E+00  5.1441369212402E-01
   101  1.0000000000000E+00  1.0351953377349E+00  5.7016200237737E-01
   102  1.0100000000000E+00  1.0080340503580E+00  6.2605630240965E-01
   103  1.0200000000000E+00  9.7983182058978E-01  6.8191425383327E-01
   104  1.0300000000000E+00  9.5064671140311E-01  7.3755160753453E-01
   105  1.0400000000000E+00  9.2054030116360E-01  7.9278305498363E-01
   106  1.0500000000000E+00  8.8957745193380E-01  8.4742309406487E-01
   107  1.0600000000000E+00  8.5782606062190E-01  9.0128690457803E-01
   108  1.0700000000000E+00  8.2535679433465E-01  9.5419122844712E-01
   109  1.0800000000000E+00  7.9224281139095E-01  1.0059552495883E+00
   110  1.0900000000000E+00  7.5855946953862E-01  1.0564014683384E+00
   111  1.1000000000000E+00  7.2438402299373E-01  1.1053565653255E+00
   112  1.1100000000000E+00  6.8979530998749E-01  1.1526522496781E+00
   113  1.1200000000000E+00  6.5487343256073E-01  1.1981260865190E+00
   114  1.1300000000000E+00  6.1969943038929E-01  1.2416222987688E+00
   115  1.1400000000000E+00  5.8435495045546E-01  1.2829925384021E+00
   116  1.1500000000000E+00  5.4892191440067E-01  1.3220966224469E+00
   117  1.1600000000000E+00  5.1348218540214E-01  1.3588032291973E+00
   118  1.1700000000000E+00  4.7811723641228E-01  1.3929905503230E+00
   119  1.1800000000000E+00  4.4290782158346E-01  1.4245468947998E+00
   120  1.1900000000000E+00  4.0793365267278E-01  1.4533712408584E+00
   121  1.2000000000000E+00  3.7327308218153E-01  1.4793737324440E+00
   122  1.2100000000000E+00  3.3900279493370E-01  1.5024761170073E+00
   123  1.2200000000000E+00  3.0519750973533E-01  1.5226121217903E+00
   124  1.2300000000000E+00  2.7192969268474E-01  1.5397277661429E+00
   125  1.2400000000000E+00  2.3926928362092E-01  1.5537816077905E+00
   126  1.2500000000000E+00  2.0728343710615E-01  1.5647449213805E+00
   127  1.2600000000000E+00  1.7603627923830E-01  1.5726018080502E+00
   128  1.2700000000000E+00  1.4558868148063E-01  1.5773492351897E+00
   129  1.2800000000000E+00  1.1599805258086E-01  1.5789970060111E+00
   130  1.2900000000000E+00  8.7318149530577E-02  1.5775676589754E+00
   131  1.3000000000000E+00  5.9598908388497E-02  1.5730962975765E+00
   132  1.3100000000000E+00  3.2886295659880E-02  1.5656303514235E+00
   133  1.3200000000000E+00  7.2221807895677E-03  1.5552292700047E+00
   134  1.3300000000000E+00 -1.7355769811490E-02  1.5419641509476E+00
   135  1.3400000000000E+00 -4.0814176925362E-02  1.5259173050158E+00
   136  1.3500000000000E+00 -6.3124010730832E-02  1.5071817604933E+00
   137  1.3600000000000E+00 -8.4260631049026E-02  1.4858607099985E+00
   138  1.3700000000000E+00 -1.0420380576703E-01  1.4620669031519E+00
   139  1.3800000000000E+00 -1.2293770771013E-01  1.4359219888731E+00
   140  1.3900000000000E+00 -1.4045089036545E-01  1.4075558114122E+00
   141  1.4000000000000E+00 -1.5673624298741E-01  1.3771056645290E+00
   142  1.4100000000000E+00 -1.7179092573774E-01  1.3447155085072E+00
   143  1.4200000000000E+00 -1.8561628562931E-01  1.3105351549352E+00
   144  1.4300000000000E+00 -1.9821775415256E-01  1.2747194244005E+00
   145  1.4400000000000E+00 -2.0960472756521E-01  1.2374272824203E+00
   146  1.4500000000000E+00 -2.1979043091956E-01  1.1988209590758E+00
   147  1.4600000000000E+00 -2.2879176698671E-01  1.1590650579228E+00
   148  1.4700000000000E+00 -2.3662915131227E-01  1.1183256598196E+00
   149  1.4800000000000E+00 -2.4332633470351E-01  1.0767694273438E+00
   150  1.4900000000000E+00 -2.4891021450328E-01  1.0345627154607E+00
   151  1.5000000000000E+00 -2.5341063605024E-01  9.9187069405770E-01
   152  1.5100000000000E+00 -2.5686018575897E-01  9.4885648787357E-01
   153  1.5200000000000E+00 -2.5929397727589E-01  9.0568033922777E-01
   154  1.5300000000000E+00 -2.6074943217868E-01  8.6249879879147E-01
   155  1.5400000000000E+00 -2.6126605668754E-01  8.1946394944454E-01
   156  1.5500000000000E+00 -2.6088521584593E-01  7.7672266802908E-01
   157  1.5600000000000E+00 -2.5964990660783E-01  7.3441592954255E-01
   158  1.5700000000000E+00 -2.5760453123643E-01  6.9267815801399E-01
   159  1.5800000000000E+00 -2.5479467237791E-01  6.5163662797829E-01
   160  1.5900000000000E+00 -2.5126687112250E-01  6.1141092010572E-01
   161  1.6000000000000E+00 -2.4706840930433E-01  5.7211243416237E-01
   162  1.6100000000000E+00 -2.4224709722276E-01  5.3384396207188E-01
   163  1.6200000000000E+00 -2.3685106789062E-01  4.9669932342439E-01
   164  1.6300000000000E+00 -2.3092857883057E-01  4.6076306533711E-01
   165  1.6400000000000E+00 -2.2452782235008E-01  4.2611022811540E-01
   166  1.6500000000000E+00 -2.1769674512890E-01  3.9280617769754E-01
   167  1.6600000000000E+00 -2.1048287785176E-01  3.6090650539327E-01
   168  1.6700000000000E+00 -2.0293317551360E-01  3.3045699494890E-01
   169  1.6800000000000E+00 -1.9509386891637E-01  3.0149365649436E-01
   170  1.6900000000000E+00 -1.8701032776599E-01  2.7404282645262E-01
   171  1.7000000000000E+00 -1.7872693566618E-01  2.4812133202399E-01
   172  1.7100000000000E+00 -1.7028697719422E-01  2.2373671839845E-01
   173  1.7200000000000E+00 -1.6173253713207E-01  2.0088753640393E-01
   174  1.7300000000000E+00 -1.5310441181690E-01  1.7956368786848E-01
   175  1.7400000000000E+00 -1.4444203246779E-01  1.5974682556464E-01
   176  1.7500000000000E+00 -1.3578340024144E-01  1.4141080421573E-01
   177  1.7600000000000E+00 -1.2716503267044E-01  1.2452217868153E-01
   178  1.7700000000000E+00 -1.1862192104302E-01  1.0904074510573E-01
   179  1.7800000000000E+00 -1.1018749819444E-01  9.4920120502810E-02
   180  1.7900000000000E+00 -1.0189361609833E-01  8.2108355990273E-02
   181  1.8000000000000E+00 -9.3770532570915E-02  7.0548578634100E-02
   182  1.8100000000000E+00 -8.5846906334293E-02  6.0179656674451E-02
   183  1.8200000000000E+00 -7.8149799625715E-02  5.0936882735343E-02
   184  1.8300000000000E+00 -7.0704687489879E-02  4.2752669497561E-02
   185  1.8400000000000E+00 -6.3535472850125E-02  3.5557252230031E-02
   186  1.8500000000000E+00 -5.6664506422903E-02  2.9279392531537E-02
   187  1.8600000000000E+00 -5.0112610517836E-02  2.3847077632206E-02
   188  1.8700000000000E+00 -4.3899105753626E-02  1.9188209643091E-02
   189  1.8800000000000E+00 -3.8041838559063E-02  1.5231276680651E-02
   190  1.8900000000000E+00 -3.2557222240270E-02  1.1906030532068E-02
   191  1.9000000000000E+00 -2.7460227823597E-02  9.1440288103785E-03
   192  1.9100000000000E+00 -2.2764560712555E-02  6.8795497283764E-03
   193  1.9200000000000E+00 -1.8484548767002E-02  5.0542541280615E-03
   194  1.9300000000000E+00 -1.4632675055363E-02  3.6122540291534E-03
   195  1.9400000000000E+00 -1.1217469977390E-02  2.4958909089548E-03
   196  1.9500000000000E+00 -8.2463558592495E-03  1.6523285228892E-03
   197  1.9600000000000E+00 -5.7254133317134E-03  1.0333917460390E-03
   198  1.9700000000000E+00 -3.6594712373559E-03  5.9606641470840E-04
   199  1.9800000000000E+00 -2.0529016077553E-03  3.0291701288782E-04
   200  1.9900000000000E+00 -9.0208561324994E-04  1.2152877480739E-04
   201  2.0000000000000E+00 -2.2807843621577E-04  2.8367713296110E-05
   202  2.0100000000000E+00  1.4580604675248E-06  6.1051229136687E-08
   203  2.0200000000000E+00  5.3376669870862E-06 -5.5082362517605E-07
   204  2.03 -0.  0.
   205  2.04  0. -0.
   206  2.05  0. -0.
   207  2.06  0.  0.
   208  2.07  0.  0.
   209  2.08  0.  0.
   210  2.09  0.  0.
   211  2.10  0.  0.
   212  2.11  0.  0.
   213  2.12  0.  0.
   214  2.13  0.  0.
   215  2.14  0.  0.
   216  2.15  0.  0.
   217  2.16  0.  0.
   218  2.17  0.  0.
   219  2.18  0.  0.
   220  2.19  0.  0.
   221  2.20  0.  0.
   222  2.21  0.  0.
   223  2.22  0.  0.
   224  2.23  0.  0.
   225  2.24  0.  0.
   226  2.25  0.  0.
   227  2.26  0.  0.
   228  2.27  0.  0.
   229  2.28  0.  0.
   230  2.29  0.  0.
   231  2.30  0.  0.
   232  2.31  0.  0.
   233  2.32  0.  0.
   234  2.33  0.  0.
   235  2.34  0.  0.
   236  2.35  0.  0.
   237  2.36  0.  0.
   238  2.37  0.  0.
   239  2.38  0.  0.
   240  2.39  0.  0.
   241  2.40  0.  0.
   242  2.41  0.  0.
   243  2.42  0.  0.
   244  2.43  0.  0.
   245  2.44  0.  0.
   246  2.45  0.  0.
   247  2.46  0.  0.
   248  2.47  0.  0.
   249  2.48  0.  0.
   250  2.49  0.  0.
   251  2.50  0.  0.
   252  2.51  0.  0.
   253  2.52  0.  0.
   254  2.53  0.  0.
   255  2.54  0.  0.
   256  2.55  0.  0.
   257  2.56  0.  0.
   258  2.57  0.  0.
   259  2.58  0.  0.
   260  2.59  0.  0.
   261  2.60  0.  0.
   262  2.61  0.  0.
   263  2.62  0.  0.
   264  2.63  0.  0.
   265  2.64  0.  0.
   266  2.65  0.  0.
   267  2.66  0.  0.
   268  2.67  0.  0.
   269  2.68  0.  0.
   270  2.69  0.  0.
   271  2.70  0.  0.
   272  2.71  0.  0.
   273  2.72  0.  0.
   274  2.73  0.  0.
   275  2.74  0.  0.
   276  2.75  0.  0.
   277  2.76  0.  0.
   278  2.77  0.  0.
   279  2.78  0.  0.
   280  2.79  0.  0.
   281  2.80  0.  0.
   282  2.81  0.  0.
   283  2.82  0.  0.
   284  2.83  0.  0.
   285  2.84  0.  0.
   286  2.85  0.  0.
   287  2.86  0.  0.
   288  2.87  0.  0.
   289  2.88  0.  0.
   290  2.89  0.  0.
   291  2.90  0.  0.
   292  2.91  0.  0.
   293  2.92  0.  0.
   294  2.93  0.  0.
   295  2.94  0.  0.
   296  2.95  0.  0.
   297  2.96  0.  0.
   298  2.97  0.  0.
   299  2.98  0.  0.
   300  2.99  0.  0.
   301  3.00  0.  0.
   302  3.01  0.  0.
   303  3.02  0.  0.
   304  3.03  0.  0.
   305  3.04  0.  0.
   306  3.05  0.  0.
   307  3.06  0.  0.
   308  3.07  0.  0.
   309  3.08  0.  0.
   310  3.09  0.  0.
   311  3.10  0.  0.
   312  3.11  0.  0.
   313  3.12  0.  0.
   314  3.13  0.  0.
   315  3.14  0.  0.
   316  3.15  0.  0.
   317  3.16  0.  0.
   318  3.17  0.  0.
   319  3.18  0.  0.
   320  3.19  0.  0.
   321  3.20  0.  0.
   322  3.21  0.  0.
   323  3.22  0.  0.
   324  3.23  0.  0.
   325  3.24  0.  0.
   326  3.25  0.  0.
   327  3.26  0.  0.
   328  3.27  0.  0.
   329  3.28  0.  0.
   330  3.29  0.  0.
   331  3.30  0.  0.
   332  3.31  0.  0.
   333  3.32  0.  0.
   334  3.33  0.  0.
   335  3.34  0.  0.
   336  3.35  0.  0.
   337  3.36  0.  0.
   338  3.37  0.  0.
   339  3.38  0.  0.
   340  3.39  0.  0.
   341  3.40  0.  0.
   342  3.41  0.  0.
   343  3.42  0.  0.
   344  3.43  0.  0.
   345  3.44  0.  0.
   346  3.45  0.  0.
   347  3.46  0.  0.
   348  3.47  0.  0.
   349  3.48  0.  0.
   350  3.49  0.  0.
   351  3.50  0.  0.
   352  3.51  0.  0.
   353  3.52  0.  0.
   354  3.53  0.  0.
   355  3.54  0.  0.
   356  3.55  0.  0.
   357  3.56  0.  0.
   358  3.57  0.  0.
   359  3.58  0.  0.
   360  3.59  0.  0.
   361  3.60  0.  0.
   362  3.61  0.  0.
   363  3.62  0.  0.
   364  3.63  0.  0.
   365  3.64  0.  0.
   366  3.65  0.  0.
   367  3.66  0.  0.
   368  3.67  0.  0.
   369  3.68  0.  0.
   370  3.69  0.  0.
   371  3.70  0.  0.
   372  3.71  0.  0.
   373  3.72  0.  0.
   374  3.73  0.  0.
   375  3.74  0.  0.
   376  3.75  0.  0.
   377  3.76  0.  0.
   378  3.77  0.  0.
   379  3.78  0.  0.
   380  3.79  0.  0.
   381  3.80  0.  0.
   382  3.81  0.  0.
   383  3.82  0.  0.
   384  3.83  0.  0.
   385  3.84  0.  0.
   386  3.85  0.  0.
   387  3.86  0.  0.
   388  3.87  0.  0.
   389  3.88  0.  0.
   390  3.89  0.  0.
   391  3.90  0.  0.
   392  3.91  0.  0.
   393  3.92  0.  0.
   394  3.93  0.  0.
   395  3.94  0.  0.
   396  3.95  0.  0.
   397  3.96  0.  0.
   398  3.97  0.  0.
   399  3.98  0.  0.
   400  3.99  0.  0.
   401  4.00  0.  0.
   402  4.01  0.  0.
   403  4.02  0.  0.
   404  4.03  0.  0.
   405  4.04  0.  0.
   406  4.05  0.  0.
   407  4.06  0.  0.
   408  4.07  0.  0.
   409  4.08  0.  0.
   410  4.09  0.  0.
   411  4.10  0.  0.
   412  4.11  0.  0.
   413  4.12  0.  0.
   414  4.13  0.  0.
   415  4.14  0.  0.
   416  4.15  0.  0.
   417  4.16  0.  0.
   418  4.17  0.  0.
   419  4.18  0.  0.
   420  4.19  0.  0.
   421  4.20  0.  0.
   422  4.21  0.  0.
   423  4.22  0.  0.
   424  4.23  0.  0.
   425  4.24  0.  0.
   426  4.25  0.  0.
   427  4.26  0.  0.
   428  4.27  0.  0.
   429  4.28  0.  0.
   430  4.29  0.  0.
   431  4.30  0.  0.
   432  4.31  0.  0.
   433  4.32  0.  0.
   434  4.33  0.  0.
   435  4.34  0.  0.
   436  4.35  0.  0.
   437  4.36  0.  0.
   438  4.37  0.  0.
   439  4.38  0.  0.
   440  4.39  0.  0.
   441  4.40  0.  0.
   442  4.41  0.  0.
   443  4.42  0.  0.
   444  4.43  0.  0.
   445  4.44  0.  0.
   446  4.45  0.  0.
   447  4.46  0.  0.
   448  4.47  0.  0.
   449  4.48  0.  0.
   450  4.49  0.  0.
   451  4.50  0.  0.
   452  4.51  0.  0.
   453  4.52  0.  0.
   454  4.53  0.  0.
   455  4.54  0.  0.
   456  4.55  0.  0.
   457  4.56  0.  0.
   458  4.57  0.  0.
   459  4.58  0.  0.
   460  4.59  0.  0.
   461  4.60  0.  0.
   462  4.61  0.  0.
   463  4.62  0.  0.
   464  4.63  0.  0.
   465  4.64  0.  0.
   466  4.65  0.  0.
   467  4.66  0.  0.
   468  4.67  0.  0.
   469  4.68  0.  0.
   470  4.69  0.  0.
   471  4.70  0.  0.
   472  4.71  0.  0.
   473  4.72  0.  0.
   474  4.73  0.  0.
   475  4.74  0.  0.
   476  4.75  0.  0.
   477  4.76  0.  0.
   478  4.77  0.  0.
   479  4.78  0.  0.
   480  4.79  0.  0.
   481  4.80  0.  0.
   482  4.81  0.  0.
   483  4.82  0.  0.
   484  4.83  0.  0.
   485  4.84  0.  0.
   486  4.85  0.  0.
   487  4.86  0.  0.
   488  4.87  0.  0.
   489  4.88  0.  0.
   490  4.89  0.  0.
   491  4.90  0.  0.
   492  4.91  0.  0.
   493  4.92  0.  0.
   494  4.93  0.  0.
   495  4.94  0.  0.
   496  4.95  0.  0.
   497  4.96  0.  0.
   498  4.97  0.  0.
   499  4.98  0.  0.
   500  4.99  0.  0.
   501  5.00  0.  0.
   502  5.01  0.  0.
   503  5.02  0.  0.
   504  5.03  0.  0.
   505  5.04  0.  0.
   506  5.05  0.  0.
   507  5.06  0.  0.
   508  5.07  0.  0.
   509  5.08  0.  0.
   510  5.09  0.  0.
   511  5.10  0.  0.
   512  5.11  0.  0.
   513  5.12  0.  0.
   514  5.13  0.  0.
   515  5.14  0.  0.
   516  5.15  0.  0.
   517  5.16  0.  0.
   518  5.17  0.  0.
   519  5.18  0.  0.
   520  5.19  0.  0.
   521  5.20  0.  0.
   522  5.21  0.  0.
   523  5.22  0.  0.
   524  5.23  0.  0.
   525  5.24  0.  0.
   526  5.25  0.  0.
   527  5.26  0.  0.
   528  5.27  0.  0.
   529  5.28  0.  0.
   530  5.29  0.  0.
   531  5.30  0.  0.
   532  5.31  0.  0.
   533  5.32  0.  0.
   534  5.33  0.  0.
   535  5.34  0.  0.
   536  5.35  0.  0.
   537  5.36  0.  0.
   538  5.37  0.  0.
   539  5.38  0.  0.
   540  5.39  0.  0.
   541  5.40  0.  0.
   542  5.41  0.  0.
   543  5.42  0.  0.
   544  5.43  0.  0.
   545  5.44  0.  0.
   546  5.45  0.  0.
   547  5.46  0.  0.
   548  5.47  0.  0.
   549  5.48  0.  0.
   550  5.49  0.  0.
   551  5.50  0.  0.
   552  5.51  0.  0.
   553  5.52  0.  0.
   554  5.53  0.  0.
   555  5.54  0.  0.
   556  5.55  0.  0.
   557  5.56  0.  0.
   558  5.57  0.  0.
   559  5.58  0.  0.
   560  5.59  0.  0.
   561  5.60  0.  0.
   562  5.61  0.  0.
   563  5.62  0.  0.
   564  5.63  0.  0.
   565  5.64  0.  0.
   566  5.65  0.  0.
   567  5.66  0.  0.
   568  5.67  0.  0.
   569  5.68  0.  0.
   570  5.69  0.  0.
   571  5.70  0.  0.
   572  5.71  0.  0.
   573  5.72  0.  0.
   574  5.73  0.  0.
   575  5.74  0.  0.
   576  5.75  0.  0.
   577  5.76  0.  0.
   578  5.77  0.  0.
   579  5.78  0.  0.
   580  5.79  0.  0.
   581  5.80  0.  0.
   582  5.81  0.  0.
   583  5.82  0.  0.
   584  5.83  0.  0.
   585  5.84  0.  0.
   586  5.85  0.  0.
   587  5.86  0.  0.
   588  5.87  0.  0.
   589  5.88  0.  0.
   590  5.89  0.  0.
   591  5.90  0.  0.
   592  5.91  0.  0.
   593  5.92  0.  0.
   594  5.93  0.  0.
   595  5.94  0.  0.
   596  5.95  0.  0.
   597  5.96  0.  0.
   598  5.97  0.  0.
   599  5.98  0.  0.
   600  5.99  0.  0.
   1                         4.1075639469900E+00  7.1525045244572E-01
     1  0.0000000000000E+00  1.1806124133873E-10 -1.3343157741902E-10
     2  1.0000000000000E-02  4.2271189648504E-04 -5.7884637549924E-05
     3  2.0000000000000E-02  1.6896103342460E-03 -2.3116133860585E-04
     4  3.0000000000000E-02  3.7969916779384E-03 -5.1870463094864E-04
     5  4.0000000000000E-02  6.7387102049928E-03 -9.1865919737471E-04
     6  5.0000000000000E-02  1.0506218390857E-02 -1.4284703288841E-03
     7  6.0000000000000E-02  1.5088622871508E-02 -2.0449260585023E-03
     8  7.0000000000000E-02  2.0472755650313E-02 -2.7642104806143E-03
     9  8.0000000000000E-02  2.6643259998266E-02 -3.5819676272568E-03
    10  9.0000000000000E-02  3.3582690382622E-02 -4.4933751450811E-03
    11  1.0000000000000E-01  4.1271625650024E-02 -5.4932268961835E-03
    12  1.1000000000000E-01  4.9688794587039E-02 -6.5760234935562E-03
    13  1.2000000000000E-01  5.8811212884489E-02 -7.7360696788602E-03
    14  1.3000000000000E-01  6.8614330442737E-02 -8.9675773573944E-03
    15  1.4000000000000E-01  7.9072187873874E-02 -1.0264773023564E-02
    16  1.5000000000000E-01  9.0157580984167E-02 -1.1622008240534E-02
    17  1.6000000000000E-01  1.0184223195676E-01 -1.3033871780987E-02
    18  1.7000000000000E-01  1.1409696590092E-01 -1.4495301992421E-02
    19  1.8000000000000E-01  1.2689189139042E-01 -1.6001697920826E-02
    20  1.9000000000000E-01  1.4019658358075E-01 -1.7549027711317E-02
    21  2.0000000000000E-01  1.5398026847209E-01 -1.9133932803442E-02
    22  2.1000000000000E-01  1.6821200687383E-01 -2.0753826452822E-02
    23  2.2000000000000E-01  1.8286087662577E-01 -2.2406985139318E-02
    24  2.3000000000000E-01  1.9789615164169E-01 -2.4092631465125E-02
    25  2.4000000000000E-01  2.1328747636296E-01 -2.5811007203712E-02
    26  2.5000000000000E-01  2.2900503424199E-01 -2.7563435232022E-02
    27  2.6000000000000E-01  2.4501970891886E-01 -2.9352369163478E-02
    28  2.7000000000000E-01  2.6130323680795E-01 -3.1181429597266E-02
    29  2.8000000000000E-01  2.7782834987515E-01 -3.3055426009573E-02
    30  2.9000000000000E-01  2.9456890745953E-01 -3.4980363434125E-02
    31  3.0000000000000E-01  3.1150001607553E-01 -3.6963433211309E-02
    32  3.1000000000000E-01  3.2859813622281E-01 -3.9012987226791E-02
    33  3.2000000000000E-01  3.4584117532962E-01 -4.1138495210246E-02
    34  3.3000000000000E-01  3.6320856606116E-01 -4.3350484821847E-02
    35  3.4000000000000E-01  3.8068132933710E-01 -4.5660464416911E-02
    36  3.5000000000000E-01  3.9824212151996E-01 -4.8080828546387E-02
    37  3.6000000000000E-01  4.1587526535877E-01 -5.0624746421346E-02
    38  3.7000000000000E-01  4.3356676439895E-01 -5.3306033741722E-02
    39  3.8000000000000E-01  4.5130430069850E-01 -5.6139008461905E-02
    40  3.9000000000000E-01  4.6907721582215E-01 -5.9138331236880E-02
    41  4.0000000000000E-01  4.8687647521712E-01 -6.2318831460931E-02
    42  4.1000000000000E-01  5.0469461620690E-01 -6.5695319975048E-02
    43  4.2000000000000E-01  5.2252567997017E-01 -6.9282389677512E-02
    44  4.3000000000000E-01  5.4036512800208E-01 -7.3094205423404E-02
    45  4.4000000000000E-01  5.5820974368099E-01 -7.7144284741314E-02
    46  4.5000000000000E-01  5.7605751968664E-01 -8.1445271028411E-02
    47  4.6000000000000E-01  5.9390753213337E-01 -8.6008701006292E-02
    48  4.7000000000000E-01  6.1175980239398E-01 -9.0844768329233E-02
    49  4.8000000000000E-01  6.2961514769535E-01 -9.5962085331835E-02
    50  4.9000000000000E-01  6.4747502166485E-01 -1.0136744498381E-01
    51  5.0000000000000E-01  6.6534134609642E-01 -1.0706558518497E-01
    52  5.1000000000000E-01  6.8321633528597E-01 -1.1305895758223E-01
    53  5.2000000000000E-01  7.0110231435743E-01 -1.1934750312219E-01
    54  5.3000000000000E-01  7.1900153306151E-01 -1.2592843656668E-01
    55  5.4000000000000E-01  7.3691597658007E-01 -1.3279604219486E-01
    56  5.5000000000000E-01  7.5484717490828E-01 -1.3994148289243E-01
    57  5.6000000000000E-01  7.7279601241455E-01 -1.4735262478745E-01
    58  5.7000000000000E-01  7.9076253919454E-01 -1.5501387953254E-01
    59  5.8000000000000E-01  8.0874578583957E-01 -1.6290606625426E-01
    60  5.9000000000000E-01  8.2674358323178E-01 -1.7100629509448E-01
    61  6.0000000000000E-01  8.4475238895859E-01 -1.7928787415324E-01
    62  6.1000000000000E-01  8.6276712190664E-01 -1.8772024151157E-01
    63  6.2000000000000E-01  8.8078100655153E-01 -1.9626892386367E-01
    64  6.3000000000000E-01  8.9878542840420E-01 -2.0489552312435E-01
    65  6.4000000000000E-01  9.1676980200735E-01 -2.1355773219849E-01
    66  6.5000000000000E-01  9.3472145279794E-01 -2.2220938090721E-01
    67  6.6000000000000E-01  9.5262551406301E-01 -2.3080051286055E-01
    68  6.7000000000000E-01  9.7046484011806E-01 -2.3927749385104E-01
    69  6.8000000000000E-01  9.8821993672966E-01 -2.4758315211714E-01
    70  6.9000000000000E-01  1.0058689096882E+00 -2.5565695059268E-01
    71  7.0000000000000E-01  1.0233874323128E+00 -2.6343519101896E-01
    72  7.1000000000000E-01  1.0407487325394E+00 -2.7085124955233E-01
    73  7.2000000000000E-01  1.0579236001084E+00 -2.7783584325319E-01
    74  7.3000000000000E-01  1.0748804142233E+00 -2.8431732659523E-01
    75  7.4000000000000E-01  1.0915851919092E+00 -2.9022201688649E-01
    76  7.5000000000000E-01  1.1080016571510E+00 -2.9547454725058E-01
    77  7.6000000000000E-01  1.1240913307372E+00 -2.9999824557698E-01
    78  7.7000000000000E-01  1.1398136405895E+00 -3.0371553761733E-01
    79  7.8000000000000E-01  1.1551260522010E+00 -3.0654837218052E-01
    80  7.9000000000000E-01  1.1699842186600E+00 -3.0841866616612E-01
    81  8.0000000000000E-01  1.1843421495881E+00 -3.0924876697449E-01
    82  8.1000000000000E-01  1.1981523981735E+00 -3.0896192964434E-01
    83  8.2000000000000E-01  1.2113662653478E+00 -3.0748280589705E-01
    84  8.3000000000000E-01  1.2239340200116E+00 -3.0473794211209E-01
    85  8.4000000000000E-01  1.2358051340960E+00 -3.0065628312204E-01
    86  8.5000000000000E-01  1.2469285311183E+00 -2.9516967859938E-01
    87  8.6000000000000E-01  1.2572528467860E+00 -2.8821338871211E-01
    88  8.7000000000000E-01  1.2667267000951E+00 -2.7972658565254E-01
    89  8.8000000000000E-01  1.2752989732808E+00 -2.6965284759350E-01
    90  8.9000000000000E-01  1.2829190988944E+00 -2.5794064160065E-01
    91  9.0000000000000E-01  1.2895373522111E+00 -2.4454379202750E-01
    92  9.1000000000000E-01  1.2951051471162E+00 -2.2942193094368E-01
    93  9.2000000000000E-01  1.2995753335707E+00 -2.1254092719470E-01
    94  9.3000000000000E-01  1.3029024947250E+00 -1.9387329076586E-01
    95  9.4000000000000E-01  1.3050432417300E+00 -1.7339854922048E-01
    96  9.5000000000000E-01  1.3059565042895E+00 -1.5110359310665E-01
    97  9.6000000000000E-01  1.3056038150048E+00 -1.2698298737382E-01
    98  9.7000000000000E-01  1.3039495855836E+00 -1.0103924601113E-01
    99  9.8000000000000E-01  1.3009613730205E+00 -7.3283067313280E-02