I     ONCVPSP-4.0.1  r_core=   2.00980   2.15938   2.25172
     53.0000      7.0000      250925    zatom,zion,pspd
     8   -1012   2     4   600     0    pspcod,pspxc,lmax,lloc,mmax,r2well
  5.99000000  4.00000000  0.00000000    rchrg fchrg qchrg
     2     3     2     0    nproj
     3     1           extension_switch
     4     4     0    nprojso
   0                         6.0600162286506E+00  8.6635772993420E-01
     1  0.0000000000000E+00 -3.7470498925884E-11  5.7510371465064E-11
     2  1.0000000000000E-02  2.0950961308103E-02  9.7939394465313E-03
     3  2.0000000000000E-02  4.1887488930992E-02  1.9543893788307E-02
     4  3.0000000000000E-02  6.2795279520972E-02  2.9205922477889E-02
     5  4.0000000000000E-02  8.3660289181227E-02  3.8736175232947E-02
     6  5.0000000000000E-02  1.0446886014041E-01  4.8090940030330E-02
     7  6.0000000000000E-02  1.2520784379285E-01  5.7226694492915E-02
     8  7.0000000000000E-02  1.4586471893706E-01  6.6100161732246E-02
     9  8.0000000000000E-02  1.6642770408276E-01  7.4668371652433E-02
    10  9.0000000000000E-02  1.8688586274294E-01  8.2888728649970E-02
    11  1.0000000000000E-01  2.0722920068218E-01  9.0719086560438E-02
    12  1.1000000000000E-01  2.2744875415569E-01  9.8117831607489E-02
    13  1.2000000000000E-01  2.4753666824399E-01  1.0504397400259E-01
    14  1.3000000000000E-01  2.6748626446606E-01  1.1145724872715E-01
    15  1.4000000000000E-01  2.8729209693816E-01  1.1731822590234E-01
    16  1.5000000000000E-01  3.0694999643610E-01  1.2258843101804E-01
    17  1.6000000000000E-01  3.2645710181448E-01  1.2723047515124E-01
    18  1.7000000000000E-01  3.4581187833671E-01  1.3120819515803E-01
    19  1.8000000000000E-01  3.6501412257435E-01  1.3448680367280E-01
    20  1.9000000000000E-01  3.8406495364156E-01  1.3703304859513E-01
    21  2.0000000000000E-01  4.0296679064047E-01  1.3881538159049E-01
    22  2.1000000000000E-01  4.2172331630509E-01  1.3980413497633E-01
    23  2.2000000000000E-01  4.4033942694315E-01  1.3997170621299E-01
    24  2.3000000000000E-01  4.5882116888819E-01  1.3929274906908E-01
    25  2.4000000000000E-01  4.7717566178507E-01  1.3774437038622E-01
    26  2.5000000000000E-01  4.9541100914209E-01  1.3530633122934E-01
    27  2.6000000000000E-01  5.1353619669004E-01  1.3196125107737E-01
    28  2.7000000000000E-01  5.3156097919232E-01  1.2769481358658E-01
    29  2.8000000000000E-01  5.4949575645016E-01  1.2249597234675E-01
    30  2.9000000000000E-01  5.6735143934204E-01  1.1635715494884E-01
    31  3.0000000000000E-01  5.8513930682565E-01  1.0927446359528E-01
    32  3.1000000000000E-01  6.0287085491403E-01  1.0124787040803E-01
    33  3.2000000000000E-01  6.2055763871401E-01  9.2281405530417E-02
    34  3.3000000000000E-01  6.3821110868363E-01  8.2383336073196E-02
    35  3.4000000000000E-01  6.5584244232633E-01  7.1566333926969E-02
    36  3.5000000000000E-01  6.7346237259181E-01  5.9847630451247E-02
    37  3.6000000000000E-01  6.9108101429713E-01  4.7249156056006E-02
    38  3.7000000000000E-01  7.0870768991545E-01  3.3797662714645E-02
    39  3.8000000000000E-01  7.2635075610433E-01  1.9524827488449E-02
    40  3.9000000000000E-01  7.4401743236035E-01  4.4673352016927E-03
    41  4.0000000000000E-01  7.6171363319095E-01 -1.1333061516504E-02
    42  4.1000000000000E-01  7.7944380518938E-01 -2.7829506512861E-02
    43  4.2000000000000E-01  7.9721077038237E-01 -4.4970030290307E-02
    44  4.3000000000000E-01  8.1501557719476E-01 -6.2697567536490E-02
    45  4.4000000000000E-01  8.3285736033920E-01 -8.0950003303749E-02
    46  4.5000000000000E-01  8.5073321089345E-01 -9.9660248983463E-02
    47  4.6000000000000E-01  8.6863805777250E-01 -1.1875634904286E-01
    48  4.7000000000000E-01  8.8656456173837E-01 -1.3816161930403E-01
    49  4.8000000000000E-01  9.0450302301688E-01 -1.5779481734418E-01
    50  4.9000000000000E-01  9.2244130350913E-01 -1.7757034538509E-01
    51  5.0000000000000E-01  9.4036476449558E-01 -1.9739848581822E-01
    52  5.1000000000000E-01  9.5825622063378E-01 -2.1718566928334E-01
    53  5.2000000000000E-01  9.7609591094717E-01 -2.3683477498279E-01
    54  5.3000000000000E-01  9.9386148739255E-01 -2.5624546267362E-01
    55  5.4000000000000E-01  1.0115280214790E+00 -2.7531453553612E-01
    56  5.5000000000000E-01  1.0290680292919E+00 -2.9393633287369E-01
    57  5.6000000000000E-01  1.0464515151515E+00 -3.1200315135434E-01
    58  5.7000000000000E-01  1.0636460340107E+00 -3.2940569326346E-01
    59  5.8000000000000E-01  1.0806167725690E+00 -3.4603354000050E-01
    60  5.9000000000000E-01  1.0973266489471E+00 -3.6177564882134E-01
    61  6.0000000000000E-01  1.1137364306428E+00 -3.7652087060606E-01
    62  6.1000000000000E-01  1.1298048703548E+00 -3.9015848621894E-01
    63  6.2000000000000E-01  1.1454888591363E+00 -4.0257875882718E-01
    64  6.3000000000000E-01  1.1607435962170E+00 -4.1367349935724E-01
    65  6.4000000000000E-01  1.1755227747065E+00 -4.2333664209607E-01
    66  6.5000000000000E-01  1.1897787822792E+00 -4.3146482728909E-01
    67  6.6000000000000E-01  1.2034629158259E+00 -4.3795798744973E-01
    68  6.7000000000000E-01  1.2165256089528E+00 -4.4271993397849E-01
    69  6.8000000000000E-01  1.2289166711073E+00 -4.4565894059242E-01
    70  6.9000000000000E-01  1.2405855370179E+00 -4.4668831999235E-01
    71  7.0000000000000E-01  1.2514815250540E+00 -4.4572699014333E-01
    72  7.1000000000000E-01  1.2615541030305E+00 -4.4270002651658E-01
    73  7.2000000000000E-01  1.2707531599212E+00 -4.3753919663835E-01
    74  7.3000000000000E-01  1.2790292818847E+00 -4.3018347331309E-01
    75  7.4000000000000E-01  1.2863340309616E+00 -4.2057952293610E-01
    76  7.5000000000000E-01  1.2926202247664E+00 -4.0868216538350E-01
    77  7.6000000000000E-01  1.2978422154709E+00 -3.9445480206619E-01
    78  7.7000000000000E-01  1.3019561663643E+00 -3.7786980885821E-01
    79  7.8000000000000E-01  1.3049203242721E+00 -3.5890889075834E-01
    80  7.9000000000000E-01  1.3066952861220E+00 -3.3756339531678E-01
    81  8.0000000000000E-01  1.3072442579720E+00 -3.1383458205543E-01
    82  8.1000000000000E-01  1.3065333048392E+00 -2.8773384532876E-01
    83  8.2000000000000E-01  1.3045315897179E+00 -2.5928288831280E-01
    84  8.3000000000000E-01  1.3012116002246E+00 -2.2851384607033E-01
    85  8.4000000000000E-01  1.2965493613737E+00 -1.9546935591910E-01
    86  8.5000000000000E-01  1.2905246330633E+00 -1.6020257362615E-01
    87  8.6000000000000E-01  1.2831210909312E+00 -1.2277713426223E-01
    88  8.7000000000000E-01  1.2743264893398E+00 -8.3267056875399E-02
    89  8.8000000000000E-01  1.2641328053468E+00 -4.1756592477885E-02
    90  8.9000000000000E-01  1.2525363626295E+00  1.6599848141129E-03
    91  9.0000000000000E-01  1.2395379344514E+00  4.6878643296335E-02
    92  9.1000000000000E-01  1.2251428248781E+00  9.3785915300904E-02
    93  9.2000000000000E-01  1.2093609275846E+00  1.4225927402275E-01
    94  9.3000000000000E-01  1.1922067617273E+00  1.9216756428382E-01
    95  9.4000000000000E-01  1.1736994844941E+00  2.4337148561509E-01
    96  9.5000000000000E-01  1.1538628800861E+00  2.9572412568613E-01
    97  9.6000000000000E-01  1.1327253250304E+00  3.4907154176913E-01
    98  9.7000000000000E-01  1.1103197298657E+00  4.0325338759226E-01
    99  9.8000000000000E-01  1.0866834573879E+00  4.5810358261683E-01
   100  9.9000000000000E-01  1.0618582177890E+00  5.1345102046807E-01
   101  1.0000000000000E+00  1.0358899411611E+00  5.6912031296153E-01
   102  1.0100000000000E+00  1.0088286279797E+00  6.2493256589883E-01
   103  1.0200000000000E+00  9.8072817831512E-01  6.8070618255949E-01
   104  1.0300000000000E+00  9.5164620065088E-01  7.3625769059273E-01
   105  1.0400000000000E+00  9.2164380131581E-01  7.9140258781437E-01
   106  1.0500000000000E+00  8.9078535565239E-01  8.4595620224396E-01
   107  1.0600000000000E+00  8.5913826215861E-01  8.9973456157332E-01
   108  1.0700000000000E+00  8.2677268094245E-01  9.5255526714648E-01
   109  1.0800000000000E+00  7.9376125792440E-01  1.0042383674474E+00
   110  1.0900000000000E+00  7.6017883630856E-01  1.0546072260433E+00
   111  1.1000000000000E+00  7.2610215691894E-01  1.1034893789127E+00
   112  1.1100000000000E+00  6.9160954906319E-01  1.1507173761031E+00
   113  1.1200000000000E+00  6.5678061364028E-01  1.1961296027120E+00
   114  1.1300000000000E+00  6.2169590025223E-01  1.2395710742673E+00
   115  1.1400000000000E+00  5.8643658011158E-01  1.2808942016965E+00
   116  1.1500000000000E+00  5.5108411655669E-01  1.3199595212231E+00
   117  1.1600000000000E+00  5.1571993499497E-01  1.3566363847092E+00
   118  1.1700000000000E+00  4.8042509409060E-01  1.3908036061702E+00
   119  1.1800000000000E+00  4.4527995999811E-01  1.4223500604325E+00
   120  1.1900000000000E+00  4.1036388541569E-01  1.4511752301703E+00
   121  1.2000000000000E+00  3.7575489519377E-01  1.4771896978563E+00
   122  1.2100000000000E+00  3.4152938018486E-01  1.5003155794797E+00
   123  1.2200000000000E+00  3.0776180095944E-01  1.5204868972330E+00
   124  1.2300000000000E+00  2.7452440294256E-01  1.5376498887295E+00
   125  1.2400000000000E+00  2.4188694444477E-01  1.5517632507016E+00
   126  1.2500000000000E+00  2.0991643897078E-01  1.5627983155301E+00
   127  1.2600000000000E+00  1.7867691309157E-01  1.5707391593648E+00
   128  1.2700000000000E+00  1.4822918105871E-01  1.5755826410281E+00
   129  1.2800000000000E+00  1.1863063722641E-01  1.5773383713203E+00
   130  1.2900000000000E+00  8.9935067227737E-02  1.5760286127875E+00
   131  1.3000000000000E+00  6.2192478726055E-02  1.5716881104518E+00
   132  1.3100000000000E+00  3.5448952433352E-02  1.5643638544444E+00
   133  1.3200000000000E+00  9.7465139548295E-03  1.5541147759157E+00
   134  1.3300000000000E+00 -1.4876973116879E-02  1.5410113780287E+00
   135  1.3400000000000E+00 -3.8387892571096E-02  1.5251353042590E+00
   136  1.3500000000000E+00 -6.0756939263320E-02  1.5065788466318E+00
   137  1.3600000000000E+00 -8.1959161101830E-02  1.4854443969165E+00
   138  1.3700000000000E+00 -1.0197397946103E-01  1.4618438441724E+00
   139  1.3800000000000E+00 -1.2078518827867E-01  1.4358979223897E+00
   140  1.3900000000000E+00 -1.3838093222464E-01  1.4077355122975E+00
   141  1.4000000000000E+00 -1.5475366445454E-01  1.3774929017106E+00
   142  1.4100000000000E+00 -1.6990008458275E-01  1.3453130090620E+00
   143  1.4200000000000E+00 -1.8382105762437E-01  1.3113445750075E+00
   144  1.4300000000000E+00 -1.9652151476361E-01  1.2757413272017E+00
   145  1.4400000000000E+00 -2.0801033690758E-01  1.2386611235198E+00
   146  1.4500000000000E+00 -2.1830022207647E-01  1.2002650791395E+00
   147  1.4600000000000E+00 -2.2740753776582E-01  1.1607166830046E+00
   148  1.4700000000000E+00 -2.3535215949103E-01  1.1201809092572E+00
   149  1.4800000000000E+00 -2.4215729678928E-01  1.0788233292544E+00
   150  1.4900000000000E+00 -2.4784930800908E-01  1.0368092297789E+00
   151  1.5000000000000E+00 -2.5245750526216E-01  9.9430274300239E-01
   152  1.5100000000000E+00 -2.5601395094603E-01  9.5146599367747E-01
   153  1.5200000000000E+00 -2.5855324726877E-01  9.0845826890869E-01
   154  1.5300000000000E+00 -2.6011232021956E-01  8.6543521569362E-01
   155  1.5400000000000E+00 -2.6073019942979E-01  8.2254807122770E-01
   156  1.5500000000000E+00 -2.6044779536001E-01  7.7994293073526E-01
   157  1.5600000000000E+00 -2.5930767522798E-01  7.3776005732427E-01
   158  1.5700000000000E+00 -2.5735383906263E-01  6.9613323806544E-01
   159  1.5800000000000E+00 -2.5463149722839E-01  6.5518919017095E-01
   160  1.5900000000000E+00 -2.5118685071466E-01  6.1504702079364E-01
   161  1.6000000000000E+00 -2.4706687542600E-01  5.7581774358974E-01
   162  1.6100000000000E+00 -2.4231911164150E-01  5.3760385478700E-01
   163  1.6200000000000E+00 -2.3699145973654E-01  5.0049897107949E-01
   164  1.6300000000000E+00 -2.3113198317768E-01  4.6458753123364E-01
   165  1.6400000000000E+00 -2.2478871971279E-01  4.2994456283865E-01
   166  1.6500000000000E+00 -2.1800950158413E-01  3.9663551517381E-01
   167  1.6600000000000E+00 -2.1084178549279E-01  3.6471615869655E-01
   168  1.6700000000000E+00 -2.0333249294002E-01  3.3423255118301E-01
   169  1.6800000000000E+00 -1.9552786146443E-01  3.0522107007971E-01
   170  1.6900000000000E+00 -1.8747330718630E-01  2.7770851015586E-01
   171  1.7000000000000E+00 -1.7921329896005E-01  2.5171224508132E-01
   172  1.7100000000000E+00 -1.7079124432678E-01  2.2724045110200E-01
   173  1.7200000000000E+00 -1.6224938734902E-01  2.0429239054282E-01
   174  1.7300000000000E+00 -1.5362871830252E-01  1.8285875244342E-01
   175  1.7400000000000E+00 -1.4496889509465E-01  1.6292204722622E-01
   176  1.7500000000000E+00 -1.3630817617692E-01  1.4445705191169E-01
   177  1.7600000000000E+00 -1.2768336462139E-01  1.2743130203795E-01
   178  1.7700000000000E+00 -1.1912976293795E-01  1.1180562610913E-01
   179  1.7800000000000E+00 -1.1068113812218E-01  9.7534718096822E-02
   180  1.7900000000000E+00 -1.0236969634268E-01  8.4567743248602E-02
   181  1.8000000000000E+00 -9.4226066603174E-02  7.2848972223386E-02
   182  1.8100000000000E+00 -8.6279292648268E-02  6.2318438374022E-02
   183  1.8200000000000E+00 -7.8556832323856E-02  5.2912612836019E-02
   184  1.8300000000000E+00 -7.1084563553746E-02  4.4565091958549E-02
   185  1.8400000000000E+00 -6.3886796053454E-02  3.7207291530629E-02
   186  1.8500000000000E+00 -5.6986287870826E-02  3.0769142212434E-02
   187  1.8600000000000E+00 -5.0404265821362E-02  2.5179780579635E-02
   188  1.8700000000000E+00 -4.4160448873859E-02  2.0368230227244E-02
   189  1.8800000000000E+00 -3.8273072384102E-02  1.6264064918675E-02
   190  1.8900000000000E+00 -3.2758925940510E-02  1.2798078477311E-02
   191  1.9000000000000E+00 -2.7633341264369E-02  9.9028195732102E-03
   192  1.9100000000000E+00 -2.2910365369054E-02  7.5134988906315E-03
   193  1.9200000000000E+00 -1.8604640947955E-02  5.5726425279127E-03
   194  1.9300000000000E+00 -1.4728944068393E-02  4.0251587084658E-03
   195  1.9400000000000E+00 -1.1292079355804E-02  2.8141121298936E-03
   196  1.9500000000000E+00 -8.3017133571455E-03  1.8873054877309E-03
   197  1.9600000000000E+00 -5.7641399262566E-03  1.1971144279820E-03
   198  1.9700000000000E+00 -3.6843682430736E-03  7.0098323226618E-04
   199  1.9800000000000E+00 -2.0669214858244E-03  3.6186078667642E-04
   200  1.9900000000000E+00 -9.0825044816451E-04  1.4742447565191E-04
   201  2.0000000000000E+00 -2.2961769654582E-04  3.4867171468088E-05
   202  2.0100000000000E+00  1.4956741384812E-06 -4.3106829562026E-08
   203  2.0200000000000E+00  5.3781616849036E-06 -7.1288164869658E-07
   204  2.03  0.  0.
   205  2.04  0.  0.
   206  2.05  0.  0.
   207  2.06  0.  0.
   208  2.07  0.  0.
   209  2.08  0.  0.
   210  2.09  0.  0.
   211  2.10  0.  0.
   212  2.11  0.  0.
   213  2.12  0.  0.
   214  2.13  0.  0.
   215  2.14  0.  0.
   216  2.15  0.  0.
   217  2.16  0.  0.
   218  2.17  0.  0.
   219  2.18  0.  0.
   220  2.19  0.  0.
   221  2.20  0.  0.
   222  2.21  0.  0.
   223  2.22  0.  0.
   224  2.23  0.  0.
   225  2.24  0.  0.
   226  2.25  0.  0.
   227  2.26  0.  0.
   228  2.27  0.  0.
   229  2.28  0.  0.
   230  2.29  0.  0.
   231  2.30  0.  0.
   232  2.31  0.  0.
   233  2.32  0.  0.
   234  2.33  0.  0.
   235  2.34  0.  0.
   236  2.35  0.  0.
   237  2.36  0.  0.
   238  2.37  0.  0.
   239  2.38  0.  0.
   240  2.39  0.  0.
   241  2.40  0.  0.
   242  2.41  0.  0.
   243  2.42  0.  0.
   244  2.43  0.  0.
   245  2.44  0.  0.
   246  2.45  0.  0.
   247  2.46  0.  0.
   248  2.47  0.  0.
   249  2.48  0.  0.
   250  2.49  0.  0.
   251  2.50  0.  0.
   252  2.51  0.  0.
   253  2.52  0.  0.
   254  2.53  0.  0.
   255  2.54  0.  0.
   256  2.55  0.  0.
   257  2.56  0.  0.
   258  2.57  0.  0.
   259  2.58  0.  0.
   260  2.59  0.  0.
   261  2.60  0.  0.
   262  2.61  0.  0.
   263  2.62  0.  0.
   264  2.63  0.  0.
   265  2.64  0.  0.
   266  2.65  0.  0.
   267  2.66  0.  0.
   268  2.67  0.  0.
   269  2.68  0.  0.
   270  2.69  0.  0.
   271  2.70  0.  0.
   272  2.71  0.  0.
   273  2.72  0.  0.
   274  2.73  0.  0.
   275  2.74  0.  0.
   276  2.75  0.  0.
   277  2.76  0.  0.
   278  2.77  0.  0.
   279  2.78  0.  0.
   280  2.79  0.  0.
   281  2.80  0.  0.
   282  2.81  0.  0.
   283  2.82  0.  0.
   284  2.83  0.  0.
   285  2.84  0.  0.
   286  2.85  0.  0.
   287  2.86  0.  0.
   288  2.87  0.  0.
   289  2.88  0.  0.
   290  2.89  0.  0.
   291  2.90  0.  0.
   292  2.91  0.  0.
   293  2.92  0.  0.
   294  2.93  0.  0.
   295  2.94  0.  0.
   296  2.95  0.  0.
   297  2.96  0.  0.
   298  2.97  0.  0.
   299  2.98  0.  0.
   300  2.99  0.  0.
   301  3.00  0.  0.
   302  3.01  0.  0.
   303  3.02  0.  0.
   304  3.03  0.  0.
   305  3.04  0.  0.
   306  3.05  0.  0.
   307  3.06  0.  0.
   308  3.07  0.  0.
   309  3.08  0.  0.
   310  3.09  0.  0.
   311  3.10  0.  0.
   312  3.11  0.  0.
   313  3.12  0.  0.
   314  3.13  0.  0.
   315  3.14  0.  0.
   316  3.15  0.  0.
   317  3.16  0.  0.
   318  3.17  0.  0.
   319  3.18  0.  0.
   320  3.19  0.  0.
   321  3.20  0.  0.
   322  3.21  0.  0.
   323  3.22  0.  0.
   324  3.23  0.  0.
   325  3.24  0.  0.
   326  3.25  0.  0.
   327  3.26  0.  0.
   328  3.27  0.  0.
   329  3.28  0.  0.
   330  3.29  0.  0.
   331  3.30  0.  0.
   332  3.31  0.  0.
   333  3.32  0.  0.
   334  3.33  0.  0.
   335  3.34  0.  0.
   336  3.35  0.  0.
   337  3.36  0.  0.
   338  3.37  0.  0.
   339  3.38  0.  0.
   340  3.39  0.  0.
   341  3.40  0.  0.
   342  3.41  0.  0.
   343  3.42  0.  0.
   344  3.43  0.  0.
   345  3.44  0.  0.
   346  3.45  0.  0.
   347  3.46  0.  0.
   348  3.47  0.  0.
   349  3.48  0.  0.
   350  3.49  0.  0.
   351  3.50  0.  0.
   352  3.51  0.  0.
   353  3.52  0.  0.
   354  3.53  0.  0.
   355  3.54  0.  0.
   356  3.55  0.  0.
   357  3.56  0.  0.
   358  3.57  0.  0.
   359  3.58  0.  0.
   360  3.59  0.  0.
   361  3.60  0.  0.
   362  3.61  0.  0.
   363  3.62  0.  0.
   364  3.63  0.  0.
   365  3.64  0.  0.
   366  3.65  0.  0.
   367  3.66  0.  0.
   368  3.67  0.  0.
   369  3.68  0.  0.
   370  3.69  0.  0.
   371  3.70  0.  0.
   372  3.71  0.  0.
   373  3.72  0.  0.
   374  3.73  0.  0.
   375  3.74  0.  0.
   376  3.75  0.  0.
   377  3.76  0.  0.
   378  3.77  0.  0.
   379  3.78  0.  0.
   380  3.79  0.  0.
   381  3.80  0.  0.
   382  3.81  0.  0.
   383  3.82  0.  0.
   384  3.83  0.  0.
   385  3.84  0.  0.
   386  3.85  0.  0.
   387  3.86  0.  0.
   388  3.87  0.  0.
   389  3.88  0.  0.
   390  3.89  0.  0.
   391  3.90  0.  0.
   392  3.91  0.  0.
   393  3.92  0.  0.
   394  3.93  0.  0.
   395  3.94  0.  0.
   396  3.95  0.  0.
   397  3.96  0.  0.
   398  3.97  0.  0.
   399  3.98  0.  0.
   400  3.99  0.  0.
   401  4.00  0.  0.
   402  4.01  0.  0.
   403  4.02  0.  0.
   404  4.03  0.  0.
   405  4.04  0.  0.
   406  4.05  0.  0.
   407  4.06  0.  0.
   408  4.07  0.  0.
   409  4.08  0.  0.
   410  4.09  0.  0.
   411  4.10  0.  0.
   412  4.11  0.  0.
   413  4.12  0.  0.
   414  4.13  0.  0.
   415  4.14  0.  0.
   416  4.15  0.  0.
   417  4.16  0.  0.
   418  4.17  0.  0.
   419  4.18  0.  0.
   420  4.19  0.  0.
   421  4.20  0.  0.
   422  4.21  0.  0.
   423  4.22  0.  0.
   424  4.23  0.  0.
   425  4.24  0.  0.
   426  4.25  0.  0.
   427  4.26  0.  0.
   428  4.27  0.  0.
   429  4.28  0.  0.
   430  4.29  0.  0.
   431  4.30  0.  0.
   432  4.31  0.  0.
   433  4.32  0.  0.
   434  4.33  0.  0.
   435  4.34  0.  0.
   436  4.35  0.  0.
   437  4.36  0.  0.
   438  4.37  0.  0.
   439  4.38  0.  0.
   440  4.39  0.  0.
   441  4.40  0.  0.
   442  4.41  0.  0.
   443  4.42  0.  0.
   444  4.43  0.  0.
   445  4.44  0.  0.
   446  4.45  0.  0.
   447  4.46  0.  0.
   448  4.47  0.  0.
   449  4.48  0.  0.
   450  4.49  0.  0.
   451  4.50  0.  0.
   452  4.51  0.  0.
   453  4.52  0.  0.
   454  4.53  0.  0.
   455  4.54  0.  0.
   456  4.55  0.  0.
   457  4.56  0.  0.
   458  4.57  0.  0.
   459  4.58  0.  0.
   460  4.59  0.  0.
   461  4.60  0.  0.
   462  4.61  0.  0.
   463  4.62  0.  0.
   464  4.63  0.  0.
   465  4.64  0.  0.
   466  4.65  0.  0.
   467  4.66  0.  0.
   468  4.67  0.  0.
   469  4.68  0.  0.
   470  4.69  0.  0.
   471  4.70  0.  0.
   472  4.71  0.  0.
   473  4.72  0.  0.
   474  4.73  0.  0.
   475  4.74  0.  0.
   476  4.75  0.  0.
   477  4.76  0.  0.
   478  4.77  0.  0.
   479  4.78  0.  0.
   480  4.79  0.  0.
   481  4.80  0.  0.
   482  4.81  0.  0.
   483  4.82  0.  0.
   484  4.83  0.  0.
   485  4.84  0.  0.
   486  4.85  0.  0.
   487  4.86  0.  0.
   488  4.87  0.  0.
   489  4.88  0.  0.
   490  4.89  0.  0.
   491  4.90  0.  0.
   492  4.91  0.  0.
   493  4.92  0.  0.
   494  4.93  0.  0.
   495  4.94  0.  0.
   496  4.95  0.  0.
   497  4.96  0.  0.
   498  4.97  0.  0.
   499  4.98  0.  0.
   500  4.99  0.  0.
   501  5.00  0.  0.
   502  5.01  0.  0.
   503  5.02  0.  0.
   504  5.03  0.  0.
   505  5.04  0.  0.
   506  5.05  0.  0.
   507  5.06  0.  0.
   508  5.07  0.  0.
   509  5.08  0.  0.
   510  5.09  0.  0.
   511  5.10  0.  0.
   512  5.11  0.  0.
   513  5.12  0.  0.
   514  5.13  0.  0.
   515  5.14  0.  0.
   516  5.15  0.  0.
   517  5.16  0.  0.
   518  5.17  0.  0.
   519  5.18  0.  0.
   520  5.19  0.  0.
   521  5.20  0.  0.
   522  5.21  0.  0.
   523  5.22  0.  0.
   524  5.23  0.  0.
   525  5.24  0.  0.
   526  5.25  0.  0.
   527  5.26  0.  0.
   528  5.27  0.  0.
   529  5.28  0.  0.
   530  5.29  0.  0.
   531  5.30  0.  0.
   532  5.31  0.  0.
   533  5.32  0.  0.
   534  5.33  0.  0.
   535  5.34  0.  0.
   536  5.35  0.  0.
   537  5.36  0.  0.
   538  5.37  0.  0.
   539  5.38  0.  0.
   540  5.39  0.  0.
   541  5.40  0.  0.
   542  5.41  0.  0.
   543  5.42  0.  0.
   544  5.43  0.  0.
   545  5.44  0.  0.
   546  5.45  0.  0.
   547  5.46  0.  0.
   548  5.47  0.  0.
   549  5.48  0.  0.
   550  5.49  0.  0.
   551  5.50  0.  0.
   552  5.51  0.  0.
   553  5.52  0.  0.
   554  5.53  0.  0.
   555  5.54  0.  0.
   556  5.55  0.  0.
   557  5.56  0.  0.
   558  5.57  0.  0.
   559  5.58  0.  0.
   560  5.59  0.  0.
   561  5.60  0.  0.
   562  5.61  0.  0.
   563  5.62  0.  0.
   564  5.63  0.  0.
   565  5.64  0.  0.
   566  5.65  0.  0.
   567  5.66  0.  0.
   568  5.67  0.  0.
   569  5.68  0.  0.
   570  5.69  0.  0.
   571  5.70  0.  0.
   572  5.71  0.  0.
   573  5.72  0.  0.
   574  5.73  0.  0.
   575  5.74  0.  0.
   576  5.75  0.  0.
   577  5.76  0.  0.
   578  5.77  0.  0.
   579  5.78  0.  0.
   580  5.79  0.  0.
   581  5.80  0.  0.
   582  5.81  0.  0.
   583  5.82  0.  0.
   584  5.83  0.  0.
   585  5.84  0.  0.
   586  5.85  0.  0.
   587  5.86  0.  0.
   588  5.87  0.  0.
   589  5.88  0.  0.
   590  5.89  0.  0.
   591  5.90  0.  0.
   592  5.91  0.  0.
   593  5.92  0.  0.
   594  5.93  0.  0.
   595  5.94  0.  0.
   596  5.95  0.  0.
   597  5.96  0.  0.
   598  5.97  0.  0.
   599  5.98  0.  0.
   600  5.99  0.  0.
   1                         4.0961166770561E+00  7.1889905443304E-01  5.9155082879652E-03
     1  0.0000000000000E+00  1.1550811696015E-10 -1.4292822134165E-10  1.5992513147101E-09
     2  1.0000000000000E-02  4.2135646735525E-04 -6.8734376575305E-05  1.3689117365817E-03
     3  2.0000000000000E-02  1.6842071951224E-03 -2.7447510588980E-04  5.4628424502541E-03
     4  3.0000000000000E-02  3.7849041103239E-03 -6.1584180692036E-04  1.2243485780117E-02
     5  4.0000000000000E-02  6.7173935296601E-03 -1.0905565016129E-03  2.1647354031282E-02
     6  5.0000000000000E-02  1.0473255602524E-02 -1.6954773312560E-03  3.3586309562547E-02
     7  6.0000000000000E-02  1.5041759103923E-02 -2.4266452237784E-03  4.7948302808315E-02
     8  7.0000000000000E-02  2.0409931153858E-02 -3.2793429822168E-03  6.4598311068319E-02
     9  8.0000000000000E-02  2.6562641324180E-02 -4.2481661216697E-03  8.3379470599440E-02
    10  9.0000000000000E-02  3.3482699482488E-02 -5.3271046452380E-03  1.0411439300312E-01
    11  1.0000000000000E-01  4.1150966616021E-02 -6.5096348201744E-03  1.2660665542805E-01
    12  1.1000000000000E-01  4.9546477777610E-02 -7.7888198948033E-03  1.5064245271652E-01
    13  1.2000000000000E-01  5.8646576201299E-02 -9.1574185859552E-03  1.7599239832069E-01
    14  1.3000000000000E-01  6.8427057547956E-02 -1.0608000066726E-02  2.0241345961549E-01
    15  1.4000000000000E-01  7.8862323161762E-02 -1.2133064096261E-02  2.2965101214433E-01
    16  1.5000000000000E-01  8.9925541147445E-02 -1.3725164857877E-02  2.5744099636432E-01
    17  1.6000000000000E-01  1.0158881401610E-01 -1.5377037009949E-02  2.8551215961146E-01
    18  1.7000000000000E-01  1.1382335159492E-01 -1.7081722406219E-02  3.1358836529706E-01
    19  1.8000000000000E-01  1.2659964785340E-01 -1.8832695909114E-02  3.4139095077281E-01
    20  1.9000000000000E-01  1.3988766026634E-01 -2.0623988701675E-02  3.6864111487422E-01
    21  2.0000000000000E-01  1.5365699031176E-01 -2.2450307501095E-02  3.9506231586951E-01
    22  2.1000000000000E-01  1.6787706369074E-01 -2.4307148089809E-02  4.2038266040919E-01
    23  2.2000000000000E-01  1.8251730885580E-01 -2.6190901608602E-02  4.4433726409036E-01
    24  2.3000000000000E-01  1.9754733244447E-01 -2.8098952100181E-02  4.6667056441851E-01
    25  2.4000000000000E-01  2.1293709023636E-01 -3.0029763850861E-02  4.8713856727042E-01
    26  2.5000000000000E-01  2.2865705228326E-01 -3.1982957152170E-02  5.0551100842851E-01
    27  2.6000000000000E-01  2.4467836090459E-01 -3.3959371192529E-02  5.2157341237034E-01
    28  2.7000000000000E-01  2.6097298029256E-01 -3.5961112891477E-02  5.3512903124981E-01
    29  2.8000000000000E-01  2.7751383653391E-01 -3.7991590604072E-02  5.4600064789505E-01
    30  2.9000000000000E-01  2.9427494692663E-01 -4.0055531750469E-02  5.5403222766527E-01
    31  3.0000000000000E-01  3.1123153755051E-01 -4.2158983564240E-02  5.5909040514758E-01
    32  3.1000000000000E-01  3.2836014813953E-01 -4.4309296301633E-02  5.6106579292613E-01
    33  3.2000000000000E-01  3.4563872340023E-01 -4.6515088411544E-02  5.5987410101222E-01
    34  3.3000000000000E-01  3.6304669002403E-01 -4.8786193331252E-02  5.5545705697292E-01
    35  3.4000000000000E-01  3.8056501875133E-01 -5.1133587744559E-02  5.4778311832845E-01
    36  3.5000000000000E-01  3.9817627096007E-01 -5.3569301315533E-02  5.3684797039337E-01
    37  3.6000000000000E-01  4.1586462937190E-01 -5.6106308091077E-02  5.2267480439942E-01
    38  3.7000000000000E-01  4.3361591259233E-01 -5.8758399947570E-02  5.0531437245032E-01
    39  3.8000000000000E-01  4.5141757332800E-01 -6.1540042639262E-02  4.8484481760245E-01
    40  3.9000000000000E-01  4.6925868025244E-01 -6.4466215187472E-02  4.6137127913300E-01
    41  4.0000000000000E-01  4.8712988362129E-01 -6.7552233528237E-02  4.3502527482975E-01
    42  4.1000000000000E-01  5.0502336486731E-01 -7.0813559510500E-02  4.0596386390512E-01
    43  4.2000000000000E-01  5.2293277053394E-01 -7.4265596505440E-02  3.7436859588462E-01
    44  4.3000000000000E-01  5.4085313103275E-01 -7.7923473048862E-02  3.4044425253511E-01
    45  4.4000000000000E-01  5.5878076483396E-01 -8.1801816090897E-02  3.0441739156674E-01
    46  4.5000000000000E-01  5.7671316881895E-01 -8.5914515569499E-02  2.6653470245184E-01
    47  4.6000000000000E-01  5.9464889563891E-01 -9.0274482154717E-02  2.2706118624043E-01
    48  4.7000000000000E-01  6.1258741903353E-01 -9.4893400128367E-02  1.8627817270631E-01
    49  4.8000000000000E-01  6.3052898816653E-01 -9.9781477467206E-02  1.4448118951353E-01
    50  4.9000000000000E-01  6.4847447213102E-01 -1.0494719528601E-01  1.0197769934469E-01
    51  5.0000000000000E-01  6.6642519586526E-01 -1.1039705886895E-01  5.9084722066117E-02
    52  5.1000000000000E-01  6.8438276879897E-01 -1.1613535257265E-01  1.6126360012837E-02
    53  5.2000000000000E-01  7.0234890761969E-01 -1.2216390092121E-01 -2.6568754650483E-02
    54  5.3000000000000E-01  7.2032525460915E-01 -1.2848183823225E-01 -6.8670070804395E-02
    55  5.4000000000000E-01  7.3831319304857E-01 -1.3508538911233E-01 -1.0984776721460E-01
    56  5.5000000000000E-01  7.5631366123077E-01 -1.4196766214049E-01 -1.4977541863565E-01
    57  5.6000000000000E-01  7.7432696664418E-01 -1.4911845901923E-01 -1.8813265820589E-01
    58  5.7000000000000E-01  7.9235260190969E-01 -1.5652410141350E-01 -2.2460781504939E-01
    59  5.8000000000000E-01  8.1038906405542E-01 -1.6416727761970E-01 -2.5890050605195E-01
    60  5.9000000000000E-01  8.2843367870699E-01 -1.7202691110949E-01 -2.9072416099295E-01
    61  6.0000000000000E-01  8.4648243075105E-01 -1.8007805287654E-01 -3.1980846059092E-01
    62  6.1000000000000E-01  8.6452980299886E-01 -1.8829179938019E-01 -3.4590166755838E-01
    63  6.2000000000000E-01  8.8256862433341E-01 -1.9663523772787E-01 -3.6877283145597E-01
    64  6.3000000000000E-01  9.0058992876957E-01 -2.0507141956967E-01 -3.8821384898367E-01
    65  6.4000000000000E-01  9.1858282679106E-01 -2.1355936499441E-01 -4.0404136234127E-01
    66  6.5000000000000E-01  9.3653439025202E-01 -2.2205409751815E-01 -4.1609847942695E-01
    67  6.6000000000000E-01  9.5442955204444E-01 -2.3050671104433E-01 -4.2425630091088E-01
    68  6.7000000000000E-01  9.7225102163698E-01 -2.3886446945182E-01 -4.2841524061382E-01
    69  6.8000000000000E-01  9.8997921748535E-01 -2.4707093923341E-01 -4.2850612712760E-01
    70  6.9000000000000E-01  1.0075922172012E+00 -2.5506615536554E-01 -4.2449107622490E-01
    71  7.0000000000000E-01  1.0250657262455E+00 -2.6278682034133E-01 -4.1636412530748E-01
    72  7.1000000000000E-01  1.0423730657850E+00 -2.7016653604488E-01 -4.0415162292374E-01
    73  7.2000000000000E-01  1.0594851802154E+00 -2.7713606788846E-01 -3.8791236823401E-01
    74  7.3000000000000E-01  1.0763706647197E+00 -2.8362364037523E-01 -3.6773749720127E-01
    75  7.4000000000000E-01  1.0929958130827E+00 -2.8955526299353E-01 -3.4375011422440E-01
    76  7.5000000000000E-01  1.1093246858426E+00 -2.9485508509330E-01 -3.1610466989197E-01