Au    ONCVPSP-4.0.1  r_core=   1.45739   1.55651   1.55651   1.60377
     79.0000     19.0000      250925    zatom,zion,pspd
     8   -1012   3     4   500     0    pspcod,pspxc,lmax,lloc,mmax,r2well
  4.99000000  5.00000000  0.00000000    rchrg fchrg qchrg
     2     3     3     1    nproj
     3     1           extension_switch
     3     4     2    nprojso
   0                         9.2160148743695E+00 -1.7639571624663E-01
     1  0.0000000000000E+00  6.7250971458321E-10  1.2896047278665E-08
     2  1.0000000000000E-02  7.8068833324568E-02 -4.1188530378073E-04
     3  2.0000000000000E-02  1.5596246584150E-01 -5.6395028339397E-04
     4  3.0000000000000E-02  2.3350590847833E-01 -2.0298725733313E-04
     5  4.0000000000000E-02  3.1052460423479E-01  9.1112019884115E-04
     6  5.0000000000000E-02  3.8684466377689E-01  2.9992014909888E-03
     7  6.0000000000000E-02  4.6229312222293E-01  6.2570323193840E-03
     8  7.0000000000000E-02  5.3669822255479E-01  1.0850133421766E-02
     9  8.0000000000000E-02  6.0988973041576E-01  1.6909258205955E-02
    10  9.0000000000000E-02  6.8169928422048E-01  2.4526677155181E-02
    11  1.0000000000000E-01  7.5196078352534E-01  3.3753348966255E-02
    12  1.1000000000000E-01  8.2051081750990E-01  4.4597048495002E-02
    13  1.2000000000000E-01  8.8718913422953E-01  5.7021500161862E-02
    14  1.3000000000000E-01  9.5183915004410E-01  7.0946542972644E-02
    15  1.4000000000000E-01  1.0143084973368E+00  8.6249330219104E-02
    16  1.5000000000000E-01  1.0744496073433E+00  1.0276654373665E-01
    17  1.6000000000000E-01  1.1321203236444E+00  1.2029757981156E-01
    18  1.7000000000000E-01  1.1871845406657E+00  1.3860864193751E-01
    19  1.8000000000000E-01  1.2395128604082E+00  1.5743765509339E-01
    20  1.9000000000000E-01  1.2889832596270E+00  1.7649989749395E-01
    21  2.0000000000000E-01  1.3354817588114E+00  1.9549422925773E-01
    22  2.1000000000000E-01  1.3789030836192E+00  2.1410978350116E-01
    23  2.2000000000000E-01  1.4191513088999E+00  2.3203297430867E-01
    24  2.3000000000000E-01  1.4561404751223E+00  2.4895466808990E-01
    25  2.4000000000000E-01  1.4897951669110E+00  2.6457736019534E-01
    26  2.5000000000000E-01  1.5200510434999E+00  2.7862219743006E-01
    27  2.6000000000000E-01  1.5468553112339E+00  2.9083568931782E-01
    28  2.7000000000000E-01  1.5701671287870E+00  3.0099595659165E-01
    29  2.8000000000000E-01  1.5899579365074E+00  3.0891837431167E-01
    30  2.9000000000000E-01  1.6062117022388E+00  3.1446047906300E-01
    31  3.0000000000000E-01  1.6189250770864E+00  3.1752602461949E-01
    32  3.1000000000000E-01  1.6281074558713E+00  3.1806808797228E-01
    33  3.2000000000000E-01  1.6337809384271E+00  3.1609114735212E-01
    34  3.3000000000000E-01  1.6359801894140E+00  3.1165207541996E-01
    35  3.4000000000000E-01  1.6347521959233E+00  3.0486001370924E-01
    36  3.5000000000000E-01  1.6301559237885E+00  2.9587511820462E-01
    37  3.6000000000000E-01  1.6222618751830E+00  2.8490619013619E-01
    38  3.7000000000000E-01  1.6111515517246E+00  2.7220723014880E-01
    39  3.8000000000000E-01  1.5969168288987E+00  2.5807297746740E-01
    40  3.9000000000000E-01  1.5796592491189E+00  2.4283351802369E-01
    41  4.0000000000000E-01  1.5594892421363E+00  2.2684806626195E-01
    42  4.1000000000000E-01  1.5365252827573E+00  2.1049804405718E-01
    43  4.2000000000000E-01  1.5108929969086E+00  1.9417959645117E-01
    44  4.3000000000000E-01  1.4827242279736E+00  1.7829569738399E-01
    45  4.4000000000000E-01  1.4521560759969E+00  1.6324800896875E-01
    46  4.5000000000000E-01  1.4193299227995E+00  1.4942866488396E-01
    47  4.6000000000000E-01  1.3843904562521E+00  1.3721215197020E-01
    48  4.7000000000000E-01  1.3474847069186E+00  1.2694746401091E-01
    49  4.8000000000000E-01  1.3087611099917E+00  1.1895069792510E-01
    50  4.9000000000000E-01  1.2683686049199E+00  1.1349825524414E-01
    51  5.0000000000000E-01  1.2264557843597E+00  1.1082080090946E-01
    52  5.1000000000000E-01  1.1831701031048E+00  1.1109811729907E-01
    53  5.2000000000000E-01  1.1386571564558E+00  1.1445497423147E-01
    54  5.3000000000000E-01  1.0930600361268E+00  1.2095811582712E-01
    55  5.4000000000000E-01  1.0465187702582E+00  1.3061444291140E-01
    56  5.5000000000000E-01  9.9916985245393E-01  1.4337044555039E-01
    57  5.6000000000000E-01  9.5114586301294E-01  1.5911291479527E-01
    58  5.7000000000000E-01  9.0257518371498E-01  1.7767093627949E-01
    59  5.8000000000000E-01  8.5358180568449E-01  1.9881914149482E-01
    60  5.9000000000000E-01  8.0428522803039E-01  2.2228216591147E-01
    61  6.0000000000000E-01  7.5480044317882E-01  2.4774023714735E-01
    62  6.1000000000000E-01  7.0523800311748E-01  2.7483579167190E-01
    63  6.2000000000000E-01  6.5570415918749E-01  3.0318099556342E-01
    64  6.3000000000000E-01  6.0630106662495E-01  3.3236602411811E-01
    65  6.4000000000000E-01  5.5712704379808E-01  3.6196793707928E-01
    66  6.5000000000000E-01  5.0827687503514E-01  3.9155997131557E-01
    67  6.6000000000000E-01  4.5984214511423E-01  4.2072106127062E-01
    68  6.7000000000000E-01  4.1191159290802E-01  4.4904538971088E-01
    69  6.8000000000000E-01  3.6457147135798E-01  4.7615176741876E-01
    70  6.9000000000000E-01  3.1790590090196E-01  5.0169264064653E-01
    71  7.0000000000000E-01  2.7199720369979E-01  5.2536252941522E-01
    72  7.1000000000000E-01  2.2692620649240E-01  5.4690570808325E-01
    73  7.2000000000000E-01  1.8277250068250E-01  5.6612295190949E-01
    74  7.3000000000000E-01  1.3961464922740E-01  5.8287718940897E-01
    75  7.4000000000000E-01  9.7530331169286E-02  5.9709791987542E-01
    76  7.5000000000000E-01  5.6596416071896E-02  6.0878427818393E-01
    77  7.6000000000000E-01  1.6888962259407E-02  6.1800665448309E-01
    78  7.7000000000000E-01 -2.1516865468593E-02  6.2490680417136E-01
    79  7.8000000000000E-01 -5.8546961076792E-02  6.2969641310284E-01
    80  7.9000000000000E-01 -9.4128525943271E-02  6.3265411373133E-01
    81  8.0000000000000E-01 -1.2819039935609E-01  6.3412097927605E-01
    82  8.1000000000000E-01 -1.6066346727772E-01  6.3449455436901E-01
    83  8.2000000000000E-01 -1.9148114382082E-01  6.3422151139913E-01
    84  8.3000000000000E-01 -2.2057991798249E-01  6.3378905128335E-01
    85  8.4000000000000E-01 -2.4789995640976E-01  6.3371519506325E-01
    86  8.5000000000000E-01 -2.7338575135233E-01  6.3453813797693E-01
    87  8.6000000000000E-01 -2.9698680153716E-01  6.3680485994411E-01
    88  8.7000000000000E-01 -3.1865831250331E-01  6.4105920524991E-01
    89  8.8000000000000E-01 -3.3836190199403E-01  6.4782965918447E-01
    90  8.9000000000000E-01 -3.5606629533853E-01  6.5761706013937E-01
    91  9.0000000000000E-01 -3.7174799538760E-01  6.7088249189645E-01
    92  9.1000000000000E-01 -3.8539191150643E-01  6.8803560237359E-01
    93  9.2000000000000E-01 -3.9699193238305E-01  7.0942359181049E-01
    94  9.3000000000000E-01 -4.0655142798060E-01  7.3532110527092E-01
    95  9.4000000000000E-01 -4.1408366684201E-01  7.6592125148561E-01
    96  9.5000000000000E-01 -4.1961213613394E-01  8.0132795263903E-01
    97  9.6000000000000E-01 -4.2317075327501E-01  8.4154980797878E-01
    98  9.7000000000000E-01 -4.2480395970849E-01  8.8649562844979E-01
    99  9.8000000000000E-01 -4.2456668932193E-01  9.3597177037015E-01
   100  9.9000000000000E-01 -4.2252420615149E-01  9.8968136397640E-01
   101  1.0000000000000E+00 -4.1875180829866E-01  1.0472254980692E+00
   102  1.0100000000000E+00 -4.1333439739049E-01  1.1081063855836E+00
   103  1.0200000000000E+00 -4.0636591538480E-01  1.1717324974115E+00
   104  1.0300000000000E+00 -3.9794865301167E-01  1.2374256139268E+00
   105  1.0400000000000E+00 -3.8819243660719E-01  1.3044297060765E+00
   106  1.0500000000000E+00 -3.7721370248198E-01  1.3719215214174E+00
   107  1.0600000000000E+00 -3.6513447022830E-01  1.4390227158009E+00
   108  1.0700000000000E+00 -3.5208122846517E-01  1.5048133391577E+00
   109  1.0800000000000E+00 -3.3818374839694E-01  1.5683464548227E+00
   110  1.0900000000000E+00 -3.2357384218751E-01  1.6286636465298E+00
   111  1.1000000000000E+00 -3.0838408448745E-01  1.6848111462371E+00
   112  1.1100000000000E+00 -2.9274651646547E-01  1.7358562997553E+00
   113  1.1200000000000E+00 -2.7679135236623E-01  1.7809040761175E+00
   114  1.1300000000000E+00 -2.6064570892134E-01  1.8191133210603E+00
   115  1.1400000000000E+00 -2.4443237786921E-01  1.8497124550741E+00
   116  1.1500000000000E+00 -2.2826866139027E-01  1.8720143222463E+00
   117  1.1600000000000E+00 -2.1226528943016E-01  1.8854299076750E+00
   118  1.1700000000000E+00 -1.9652543669102E-01  1.8894806582077E+00
   119  1.1800000000000E+00 -1.8114385551417E-01  1.8838091637193E+00
   120  1.1900000000000E+00 -1.6620613900727E-01  1.8681879833678E+00
   121  1.2000000000000E+00 -1.5178812659018E-01  1.8425264331588E+00
   122  1.2100000000000E+00 -1.3795546170033E-01  1.8068751869137E+00
   123  1.2200000000000E+00 -1.2476330875285E-01  1.7614285817590E+00
   124  1.2300000000000E+00 -1.1225623361711E-01  1.7065245611390E+00
   125  1.2400000000000E+00 -1.0046824894379E-01  1.6426422317308E+00
   126  1.2500000000000E+00 -8.9423022658660E-02  1.5703970554344E+00
   127  1.2600000000000E+00 -7.9134244921833E-02  1.4905337424633E+00
   128  1.2700000000000E+00 -6.9606145890872E-02  1.4039169556310E+00
   129  1.2800000000000E+00 -6.0834153742046E-02  1.3115199789186E+00
   130  1.2900000000000E+00 -5.2805679700189E-02  1.2144115437601E+00
   131  1.3000000000000E+00 -4.5501014330966E-02  1.1137410437893E+00
   132  1.3100000000000E+00 -3.8894317094553E-02  1.0107224025291E+00
   133  1.3200000000000E+00 -3.2954679228056E-02  9.0661688745042E-01
   134  1.3300000000000E+00 -2.7647238425776E-02  8.0271518782070E-01
   135  1.3400000000000E+00 -2.2934322560594E-02  7.0031909221468E-01
   136  1.3500000000000E+00 -1.8776598869497E-02  6.0072311396774E-01
   137  1.3600000000000E+00 -1.5134201045774E-02  5.0519645527662E-01
   138  1.3700000000000E+00 -1.1967848010238E-02  4.1496528718688E-01
   139  1.3800000000000E+00 -9.2397549991093E-03  3.3119742331004E-01
   140  1.3900000000000E+00 -6.9169011927292E-03  2.5496366790712E-01
   141  1.4000000000000E+00 -4.9752743505549E-03  1.8718542829061E-01
   142  1.4100000000000E+00 -3.3824549955313E-03  1.2880943128930E-01
   143  1.4200000000000E+00 -2.1110045528704E-03  8.0668176912538E-02
   144  1.4300000000000E+00 -1.1420749268904E-03  4.3415006341396E-02
   145  1.4400000000000E+00 -4.6665922799172E-04  1.7496963846885E-02
   146  1.4500000000000E+00 -8.7684635558544E-05  3.2155267880812E-03
   147  1.4600000000000E+00  5.7204001968166E-06 -2.0580439563104E-04
   148  1.4700000000000E+00 -1.7898034856640E-06  6.4983335790152E-05
   149  1.48  0.  0.
   150  1.49  0.  0.
   151  1.50  0.  0.
   152  1.51  0.  0.
   153  1.52  0.  0.
   154  1.53  0.  0.
   155  1.54  0.  0.
   156  1.55  0.  0.
   157  1.56  0.  0.
   158  1.57  0.  0.
   159  1.58  0.  0.
   160  1.59  0.  0.
   161  1.60  0.  0.
   162  1.61  0.  0.
   163  1.62  0.  0.
   164  1.63  0.  0.
   165  1.64  0.  0.
   166  1.65  0.  0.
   167  1.66  0.  0.
   168  1.67  0.  0.
   169  1.68  0.  0.
   170  1.69  0.  0.
   171  1.70  0.  0.
   172  1.71  0.  0.
   173  1.72  0.  0.
   174  1.73  0.  0.
   175  1.74  0.  0.
   176  1.75  0.  0.
   177  1.76  0.  0.
   178  1.77  0.  0.
   179  1.78  0.  0.
   180  1.79  0.  0.
   181  1.80  0.  0.
   182  1.81  0.  0.
   183  1.82  0.  0.
   184  1.83  0.  0.
   185  1.84  0.  0.
   186  1.85  0.  0.
   187  1.86  0.  0.
   188  1.87  0.  0.
   189  1.88  0.  0.
   190  1.89  0.  0.
   191  1.90  0.  0.
   192  1.91  0.  0.
   193  1.92  0.  0.
   194  1.93  0.  0.
   195  1.94  0.  0.
   196  1.95  0.  0.
   197  1.96  0.  0.
   198  1.97  0.  0.
   199  1.98  0.  0.
   200  1.99  0.  0.
   201  2.00  0.  0.
   202  2.01  0.  0.
   203  2.02  0.  0.
   204  2.03  0.  0.
   205  2.04  0.  0.
   206  2.05  0.  0.
   207  2.06  0.  0.
   208  2.07  0.  0.
   209  2.08  0.  0.
   210  2.09  0.  0.
   211  2.10  0.  0.
   212  2.11  0.  0.
   213  2.12  0.  0.
   214  2.13  0.  0.
   215  2.14  0.  0.
   216  2.15  0.  0.
   217  2.16  0.  0.
   218  2.17  0.  0.
   219  2.18  0.  0.
   220  2.19  0.  0.
   221  2.20  0.  0.
   222  2.21  0.  0.
   223  2.22  0.  0.
   224  2.23  0.  0.
   225  2.24  0.  0.
   226  2.25  0.  0.
   227  2.26  0.  0.
   228  2.27  0.  0.
   229  2.28  0.  0.
   230  2.29  0.  0.
   231  2.30  0.  0.
   232  2.31  0.  0.
   233  2.32  0.  0.
   234  2.33  0.  0.
   235  2.34  0.  0.
   236  2.35  0.  0.
   237  2.36  0.  0.
   238  2.37  0.  0.
   239  2.38  0.  0.
   240  2.39  0.  0.
   241  2.40  0.  0.
   242  2.41  0.  0.
   243  2.42  0.  0.
   244  2.43  0.  0.
   245  2.44  0.  0.
   246  2.45  0.  0.
   247  2.46  0.  0.
   248  2.47  0.  0.
   249  2.48  0.  0.
   250  2.49  0.  0.
   251  2.50  0.  0.
   252  2.51  0.  0.
   253  2.52  0.  0.
   254  2.53  0.  0.
   255  2.54  0.  0.
   256  2.55  0.  0.
   257  2.56  0.  0.
   258  2.57  0.  0.
   259  2.58  0.  0.
   260  2.59  0.  0.
   261  2.60  0.  0.
   262  2.61  0.  0.
   263  2.62  0.  0.
   264  2.63  0.  0.
   265  2.64  0.  0.
   266  2.65  0.  0.
   267  2.66  0.  0.
   268  2.67  0.  0.
   269  2.68  0.  0.
   270  2.69  0.  0.
   271  2.70  0.  0.
   272  2.71  0.  0.
   273  2.72  0.  0.
   274  2.73  0.  0.
   275  2.74  0.  0.
   276  2.75  0.  0.
   277  2.76  0.  0.
   278  2.77  0.  0.
   279  2.78  0.  0.
   280  2.79  0.  0.
   281  2.80  0.  0.
   282  2.81  0.  0.
   283  2.82  0.  0.
   284  2.83  0.  0.
   285  2.84  0.  0.
   286  2.85  0.  0.
   287  2.86  0.  0.
   288  2.87  0.  0.
   289  2.88  0.  0.
   290  2.89  0.  0.
   291  2.90  0.  0.
   292  2.91  0.  0.
   293  2.92  0.  0.
   294  2.93  0.  0.
   295  2.94  0.  0.
   296  2.95  0.  0.
   297  2.96  0.  0.
   298  2.97  0.  0.
   299  2.98  0.  0.
   300  2.99  0.  0.
   301  3.00  0.  0.
   302  3.01  0.  0.
   303  3.02  0.  0.
   304  3.03  0.  0.
   305  3.04  0.  0.
   306  3.05  0.  0.
   307  3.06  0.  0.
   308  3.07  0.  0.
   309  3.08  0.  0.
   310  3.09  0.  0.
   311  3.10  0.  0.
   312  3.11  0.  0.
   313  3.12  0.  0.
   314  3.13  0.  0.
   315  3.14  0.  0.
   316  3.15  0.  0.
   317  3.16  0.  0.
   318  3.17  0.  0.
   319  3.18  0.  0.
   320  3.19  0.  0.
   321  3.20  0.  0.
   322  3.21  0.  0.
   323  3.22  0.  0.
   324  3.23  0.  0.
   325  3.24  0.  0.
   326  3.25  0.  0.
   327  3.26  0.  0.
   328  3.27  0.  0.
   329  3.28  0.  0.
   330  3.29  0.  0.
   331  3.30  0.  0.
   332  3.31  0.  0.
   333  3.32  0.  0.
   334  3.33  0.  0.
   335  3.34  0.  0.
   336  3.35  0.  0.
   337  3.36  0.  0.
   338  3.37  0.  0.
   339  3.38  0.  0.
   340  3.39  0.  0.
   341  3.40  0.  0.
   342  3.41  0.  0.
   343  3.42  0.  0.
   344  3.43  0.  0.
   345  3.44  0.  0.
   346  3.45  0.  0.
   347  3.46  0.  0.
   348  3.47  0.  0.
   349  3.48  0.  0.
   350  3.49  0.  0.
   351  3.50  0.  0.
   352  3.51  0.  0.
   353  3.52  0.  0.
   354  3.53  0.  0.
   355  3.54  0.  0.
   356  3.55  0.  0.
   357  3.56  0.  0.
   358  3.57  0.  0.
   359  3.58  0.  0.
   360  3.59  0.  0.
   361  3.60  0.  0.
   362  3.61  0.  0.
   363  3.62  0.  0.
   364  3.63  0.  0.
   365  3.64  0.  0.
   366  3.65  0.  0.
   367  3.66  0.  0.
   368  3.67  0.  0.
   369  3.68  0.  0.
   370  3.69  0.  0.
   371  3.70  0.  0.
   372  3.71  0.  0.
   373  3.72  0.  0.
   374  3.73  0.  0.
   375  3.74  0.  0.
   376  3.75  0.  0.
   377  3.76  0.  0.
   378  3.77  0.  0.
   379  3.78  0.  0.
   380  3.79  0.  0.
   381  3.80  0.  0.
   382  3.81  0.  0.
   383  3.82  0.  0.
   384  3.83  0.  0.
   385  3.84  0.  0.
   386  3.85  0.  0.
   387  3.86  0.  0.
   388  3.87  0.  0.
   389  3.88  0.  0.
   390  3.89  0.  0.
   391  3.90  0.  0.
   392  3.91  0.  0.
   393  3.92  0.  0.
   394  3.93  0.  0.
   395  3.94  0.  0.
   396  3.95  0.  0.
   397  3.96  0.  0.
   398  3.97  0.  0.
   399  3.98  0.  0.
   400  3.99  0.  0.
   401  4.00  0.  0.
   402  4.01  0.  0.
   403  4.02  0.  0.
   404  4.03  0.  0.
   405  4.04  0.  0.
   406  4.05  0.  0.
   407  4.06  0.  0.
   408  4.07  0.  0.
   409  4.08  0.  0.
   410  4.09  0.  0.
   411  4.10  0.  0.
   412  4.11  0.  0.
   413  4.12  0.  0.
   414  4.13  0.  0.
   415  4.14  0.  0.
   416  4.15  0.  0.
   417  4.16  0.  0.
   418  4.17  0.  0.
   419  4.18  0.  0.
   420  4.19  0.  0.
   421  4.20  0.  0.
   422  4.21  0.  0.
   423  4.22  0.  0.
   424  4.23  0.  0.
   425  4.24  0.  0.
   426  4.25  0.  0.
   427  4.26  0.  0.
   428  4.27  0.  0.
   429  4.28  0.  0.
   430  4.29  0.  0.
   431  4.30  0.  0.
   432  4.31  0.  0.
   433  4.32  0.  0.
   434  4.33  0.  0.
   435  4.34  0.  0.
   436  4.35  0.  0.
   437  4.36  0.  0.
   438  4.37  0.  0.
   439  4.38  0.  0.
   440  4.39  0.  0.
   441  4.40  0.  0.
   442  4.41  0.  0.
   443  4.42  0.  0.
   444  4.43  0.  0.
   445  4.44  0.  0.
   446  4.45  0.  0.
   447  4.46  0.  0.
   448  4.47  0.  0.
   449  4.48  0.  0.
   450  4.49  0.  0.
   451  4.50  0.  0.
   452  4.51  0.  0.
   453  4.52  0.  0.
   454  4.53  0.  0.
   455  4.54  0.  0.
   456  4.55  0.  0.
   457  4.56  0.  0.
   458  4.57  0.  0.
   459  4.58  0.  0.
   460  4.59  0.  0.
   461  4.60  0.  0.
   462  4.61  0.  0.
   463  4.62  0.  0.
   464  4.63  0.  0.
   465  4.64  0.  0.
   466  4.65  0.  0.
   467  4.66  0.  0.
   468  4.67  0.  0.
   469  4.68  0.  0.
   470  4.69  0.  0.
   471  4.70  0.  0.
   472  4.71  0.  0.
   473  4.72  0.  0.
   474  4.73  0.  0.
   475  4.74  0.  0.
   476  4.75  0.  0.
   477  4.76  0.  0.
   478  4.77  0.  0.
   479  4.78  0.  0.
   480  4.79  0.  0.
   481  4.80  0.  0.
   482  4.81  0.  0.
   483  4.82  0.  0.
   484  4.83  0.  0.
   485  4.84  0.  0.
   486  4.85  0.  0.
   487  4.86  0.  0.
   488  4.87  0.  0.
   489  4.88  0.  0.
   490  4.89  0.  0.
   491  4.90  0.  0.
   492  4.91  0.  0.
   493  4.92  0.  0.
   494  4.93  0.  0.
   495  4.94  0.  0.
   496  4.95  0.  0.
   497  4.96  0.  0.
   498  4.97  0.  0.
   499  4.98  0.  0.
   500  4.99  0.  0.
   1                         9.5965688838875E+00  9.5460634698134E-01 -5.0515556819202E-02
     1  0.0000000000000E+00 -8.4213353929163E-09  9.8584568133725E-09 -8.7827261782691E-09
     2  1.0000000000000E-02  1.3698925943153E-03  1.4011619884033E-05  5.3558802458665E-04
     3  2.0000000000000E-02  5.4814002097122E-03  5.0739051398364E-05  2.1454587988670E-03
     4  3.0000000000000E-02  1.2339817978055E-02  9.4472191725400E-05  4.8387611549052E-03
     5  4.0000000000000E-02  2.1953328010264E-02  1.1973111948380E-04  8.6301738613553E-03
     6  5.0000000000000E-02  3.4332051677229E-02  9.2306382410055E-05  1.3539060941894E-02
     7  6.0000000000000E-02  4.9486756783515E-02 -2.9317707871131E-05  1.9588312681219E-02
     8  7.0000000000000E-02  6.7427253124159E-02 -2.9219195176715E-04  2.6802900039783E-02
     9  8.0000000000000E-02  8.8160518336161E-02 -7.4682834456446E-04  3.5208178981126E-02
    10  9.0000000000000E-02  1.1168860340860E-01 -1.4448771378450E-03  4.4827989036920E-02
    11  1.0000000000000E-01  1.3800637352823E-01 -2.4366160624465E-03  5.5682597114506E-02
    12  1.1000000000000E-01  1.6709914496620E-01 -3.7683188124793E-03  6.7786542943707E-02
    13  1.2000000000000E-01  1.9894028234080E-01 -5.4795741760963E-03  8.1146446538049E-02
    14  1.3000000000000E-01  2.3348882273370E-01 -7.6006297513996E-03  9.5758840524953E-02
    15  1.4000000000000E-01  2.7068719374136E-01 -1.0149834945826E-02  1.1160809111959E-01
    16  1.5000000000000E-01  3.1045909158942E-01 -1.3131256901256E-02  1.2866447085835E-01
    17  1.6000000000000E-01  3.5270758294153E-01 -1.6532540134592E-02  1.4688244398272E-01
    18  1.7000000000000E-01  3.9731349004432E-01 -2.0323076094005E-02  1.6619922161999E-01
    19  1.8000000000000E-01  4.4413411344840E-01 -2.4452542601076E-02  1.8653363872685E-01
    20  1.9000000000000E-01  4.9300233984616E-01 -2.8849865415865E-02  2.0778539825538E-01
    21  2.0000000000000E-01  5.4372617471068E-01 -3.3422645091092E-02  2.2983472031544E-01
    22  2.1000000000000E-01  5.9608873057496E-01 -3.8057082074533E-02  2.5254242540710E-01
    23  2.2000000000000E-01  6.4984869214653E-01 -4.2618421898618E-02  2.7575047127610E-01
    24  2.3000000000000E-01  7.0474126921579E-01 -4.6951930508784E-02  2.9928295281371E-01
    25  2.4000000000000E-01  7.6047963770967E-01 -5.0884397589800E-02  3.2294756390168E-01
    26  2.5000000000000E-01  8.1675685849447E-01 -5.4226153422381E-02  3.4653750942969E-01
    27  2.6000000000000E-01  8.7324825287750E-01 -5.6773572618038E-02  3.6983384512091E-01
    28  2.7000000000000E-01  9.2961420342867E-01 -5.8312026310765E-02  3.9260821252982E-01
    29  2.8000000000000E-01  9.8550333896841E-01 -5.8619233298355E-02  4.1462592685366E-01
    30  2.9000000000000E-01  1.0405560535624E+00 -5.7468950475425E-02  4.3564936624701E-01
    31  3.0000000000000E-01  1.0944083013277E+00 -5.4634933919528E-02  4.5544160335001E-01
    32  3.1000000000000E-01  1.1466956019691E+00 -4.9895094391977E-02  4.7377021291971E-01
    33  3.2000000000000E-01  1.1970571863884E+00 -4.3035764977128E-02  4.9041118395271E-01
    34  3.3000000000000E-01  1.2451402075692E+00 -3.3855994258214E-02  5.0515286063672E-01
    35  3.4000000000000E-01  1.2906039393395E+00 -2.2171775927552E-02  5.1779983397335E-01
    36  3.5000000000000E-01  1.3331238846231E+00 -7.8201251290890E-03  5.2817670504576E-01
    37  3.6000000000000E-01  1.3723957154351E+00  9.3370868324827E-03  5.3613164169657E-01
    38  3.7000000000000E-01  1.4081389691721E+00  2.9409624516440E-02  5.4153965283927E-01
    39  3.8000000000000E-01  1.4401004296421E+00  5.2475787057083E-02  5.4430550871350E-01
    40  3.9000000000000E-01  1.4680571267177E+00  7.8579786571614E-02  5.4436624104515E-01
    41  4.0000000000000E-01  1.4918188953726E+00  1.0772967066551E-01  5.4169316418470E-01
    42  4.1000000000000E-01  1.5112304430405E+00  1.3989584332193E-01  5.3629336673861E-01
    43  4.2000000000000E-01  1.5261728835654E+00  1.7501022703944E-01  5.2821063281847E-01
    44  4.3000000000000E-01  1.5365647062973E+00  2.1296609657862E-01  5.1752576262319E-01
    45  4.4000000000000E-01  1.5423621599316E+00  2.5361860134225E-01  5.0435627343425E-01
    46  4.5000000000000E-01  1.5435590422574E+00  2.9678597951884E-01  4.8885547401336E-01
    47  4.6000000000000E-01  1.5401858988486E+00  3.4225145294842E-01  4.7121091761017E-01
    48  4.7000000000000E-01  1.5323086456392E+00  3.8976577751785E-01  4.5164225106397E-01
    49  4.8000000000000E-01  1.5200266420404E+00  4.3905041005678E-01  4.3039848956922E-01
    50  4.9000000000000E-01  1.5034702525224E+00  4.8980123947846E-01  4.0775475831877E-01
    51  5.0000000000000E-01  1.4827979451697E+00  5.4169281757445E-01  3.8400855320040E-01
    52  5.1000000000000E-01  1.4581929853927E+00  5.9438301369901E-01  3.5947558276955E-01
    53  5.2000000000000E-01  1.4298597915324E+00  6.4751800781383E-01  3.3448526264242E-01
    54  5.3000000000000E-01  1.3980200263442E+00  7.0073752822848E-01  3.0937594105230E-01
    55  5.4000000000000E-01  1.3629085041201E+00  7.5368023405648E-01  2.8448994042513E-01
    56  5.5000000000000E-01  1.3247689973814E+00  8.0598913806655E-01  2.6016850431407E-01
    57  5.6000000000000E-01  1.2838500295329E+00  8.5731696335989E-01  2.3674674178430E-01
    58  5.7000000000000E-01  1.2404007405546E+00  9.0733132722071E-01  2.1454866228039E-01
    59  5.8000000000000E-01  1.1946669116798E+00  9.5571964760302E-01  1.9388239310747E-01
    60  5.9000000000000E-01  1.1468872320735E+00  1.0021936720151E+00  1.7503566890756E-01
    61  6.0000000000000E-01  1.0972898858241E+00  1.0464935349901E+00  1.5827167795606E-01
    62  6.1000000000000E-01  1.0460895311725E+00  1.0883912587811E+00  1.4382534380904E-01
    63  6.2000000000000E-01  9.9348473593377E-01  1.1276936222517E+00  1.3190011291262E-01
    64  6.3000000000000E-01  9.3965592366989E-01  1.1642443349591E+00  1.2266530938200E-01
    65  6.4000000000000E-01  8.8476387451982E-01  1.1979254669286E+00  1.1625410744340E-01
    66  6.5000000000000E-01  8.2894881289278E-01  1.2286580993401E+00  1.1276216021122E-01
    67  6.6000000000000E-01  7.7233010170853E-01  1.2564021770027E+00  1.1224691077025E-01
    68  6.7000000000000E-01  7.1500654977383E-01  1.2811555597888E+00  1.1472759819333E-01
    69  6.8000000000000E-01  6.5705732548083E-01  1.3029522867895E+00  1.2018595741534E-01
    70  6.9000000000000E-01  5.9854345657018E-01  1.3218600835351E+00  1.2856759806919E-01
    71  7.0000000000000E-01  5.3950988250055E-01  1.3379771588277E+00  1.3978403375200E-01
    72  7.1000000000000E-01  4.7998801327829E-01  1.3514283532506E+00  1.5371532000184E-01
    73  7.2000000000000E-01  4.1999873669855E-01  1.3623607159032E+00  1.7021324679953E-01
    74  7.3000000000000E-01  3.5955580508777E-01  1.3709385990627E+00  1.8910501992200E-01
    75  7.4000000000000E-01  2.9866952305583E-01  1.3773383719994E+00  2.1019735520997E-01
    76  7.5000000000000E-01  2.3735064968359E-01  1.3817428648163E+00  2.3328090098768E-01
    77  7.6000000000000E-01  1.7561442217572E-01  1.3843356607081E+00  2.5813489668401E-01
    78  7.7000000000000E-01  1.1348460345893E-01  1.3852953602705E+00  2.8453197031440E-01
    79  7.8000000000000E-01  5.0997453627031E-02  1.3847899442695E+00  3.1224297401908E-01
    80  7.9000000000000E-01 -1.1794475389727E-02  1.3829713615238E+00  3.4104175540982E-01
    81  8.0000000000000E-01 -7.4818820974996E-02  1.3799704662036E+00  3.7070976310502E-01
    82  8.1000000000000E-01 -1.3798026215617E-01  1.3758924239059E+00  4.0104038754458E-01
    83  8.2000000000000E-01 -2.0115783272143E-01  1.3708126983893E+00  4.3184294294020E-01
    84  8.3000000000000E-01 -2.6420277699251E-01  1.3647737209456E+00  4.6294620296536E-01
    85  8.4000000000000E-01 -3.2693702051571E-01  1.3577823321990E+00  4.9420141140397E-01
    86  8.5000000000000E-01 -3.8915231662440E-01  1.3498080718716E+00  5.2548469931530E-01
    87  8.6000000000000E-01 -4.5061011700796E-01  1.3407823759738E+00  5.5669885213943E-01
    88  8.7000000000000E-01 -5.1104220033031E-01  1.3305987232689E+00  5.8777438334726E-01
    89  8.8000000000000E-01 -5.7015207783285E-01  1.3191137540370E+00  6.1866988547969E-01
    90  8.9000000000000E-01 -6.2761717902073E-01  1.3061493644867E+00  6.4937164445043E-01
    91  9.0000000000000E-01 -6.8309180426980E-01  1.2914957600075E+00  6.7989251850876E-01
    92  9.1000000000000E-01 -7.3621081482581E-01  1.2749154302139E+00  7.1027009896735E-01
    93  9.2000000000000E-01 -7.8659401452146E-01  1.2561479888060E+00  7.4056418538217E-01
    94  9.3000000000000E-01 -8.3385116194031E-01  1.2349158020677E+00  7.7085362300548E-01
    95  9.4000000000000E-01 -8.7758753702902E-01  1.2109303117273E+00  8.0123256471042E-01
    96  9.5000000000000E-01 -9.1740997261515E-01  1.1838989413112E+00  8.3180623290291E-01
    97  9.6000000000000E-01 -9.5293324921535E-01  1.1535324603705E+00  8.6268626891040E-01
    98  9.7000000000000E-01 -9.8378674118818E-01  1.1195526683933E+00  8.9398576770709E-01
    99  9.8000000000000E-01 -1.0096211939371E+00  1.0817002501134E+00  9.2581410436511E-01
   100  9.9000000000000E-01 -1.0301155057027E+00  1.0397426465358E+00  9.5827166511625E-01
   101  1.0000000000000E+00 -1.0449833836632E+00  9.9348178152149E-01  9.9144460020480E-01
   102  1.0100000000000E+00 -1.0539797427102E+00  9.4276148234678E-01  1.0253997176926E+00
   103  1.0200000000000E+00 -1.0569067164557E+00  8.8747443436018E-01  1.0601796369633E+00
   104  1.0300000000000E+00 -1.0536191537735E+00  8.2756851473013E-01  1.0957983178429E+00
   105  1.0400000000000E+00 -1.0440294804721E+00  7.6305235826986E-01  1.1322370760250E+00
   106  1.0500000000000E+00 -1.0281118144492E+00  6.9400001934982E-01  1.1694411879218E+00
   107  1.0600000000000E+00 -1.0059052337520E+00  6.2055460776949E-01  1.2073171783051E+00
   108  1.0700000000000E+00 -9.7751611023346E-01  5.4293079301011E-01  1.2457308722583E+00
   109  1.0800000000000E+00 -9.4311943666376E-01  4.6141609015744E-01  1.2845062793088E+00
   110  1.0900000000000E+00 -9.0295909203056E-01  3.7637086172304E-01  1.3234253623402E+00
   111  1.1000000000000E+00 -8.5734700801517E-01  2.8822699220674E-01  1.3622287272867E+00
   112  1.1100000000000E+00 -8.0666121889708E-01  1.9748521606290E-01  1.4006172520532E+00
   113  1.1200000000000E+00 -7.5134279717442E-01  1.0471110446839E-01  1.4382546547968E+00
   114  1.1300000000000E+00 -6.9189169742058E-01  1.0529741230365E-02  1.4747709831933E+00
   115  1.1400000000000E+00 -6.2886155120659E-01 -8.4380856833963E-02  1.5097669877097E+00
   116  1.1500000000000E+00 -5.6285347558999E-01 -1.7929749554579E-01  1.5428193238767E+00
   117  1.1600000000000E+00 -4.9450897666922E-01 -2.7346063224324E-01  1.5734865111506E+00
   118  1.1700000000000E+00 -4.2450204728630E-01 -3.6608415357605E-01  1.6013155598404E+00
   119  1.1800000000000E+00 -3.5353057411083E-01 -4.5636595819319E-01  1.6258491628063E+00
   120  1.1900000000000E+00 -2.8230718342981E-01 -5.4349918316208E-01  1.6466333357569E+00
   121  1.2000000000000E+00 -2.1154966691576E-01 -6.2668389849879E-01  1.6632253790909E+00
   122  1.2100000000000E+00 -1.4197113805722E-01 -7.0513908288470E-01  1.6752020256935E+00
   123  1.2200000000000E+00 -7.4270076643975E-02 -7.7811468570139E-01  1.6821676330659E+00
   124  1.2300000000000E+00 -9.1204225426284E-03 -8.4490357612897E-01  1.6837622747838E+00
   125  1.2400000000000E+00  5.2838119160873E-02 -9.0485317938413E-01  1.6796695856728E+00
   126  1.2500000000000E+00  1.1100940177286E-01 -9.5737660327053E-01  1.6696242172807E+00
   127  1.2600000000000E+00  1.6484963474628E-01 -1.0019630651036E+00  1.6534187652438E+00
   128  1.2700000000000E+00  2.1387550914430E-01 -1.0381874395546E+00  1.6309100378296E+00