Au    ONCVPSP-4.0.1  r_core=   1.45739   1.55651   1.55651   1.60377
     79.0000     19.0000      250217    zatom,zion,pspd
     8       2   3     4   500     0    pspcod,pspxc,lmax,lloc,mmax,r2well
  4.99000000  5.00000000  0.00000000    rchrg fchrg qchrg
     2     3     3     1    nproj
     3     1           extension_switch
     3     4     2    nprojso
   0                         9.2161663214213E+00 -1.7641547657694E-01
     1  0.0000000000000E+00  6.7165872863484E-10  1.2886053217531E-08
     2  1.0000000000000E-02  7.8071660999888E-02 -3.4661523784587E-04
     3  2.0000000000000E-02  1.5596808839750E-01 -4.3397379971490E-04
     4  3.0000000000000E-02  2.3351426085881E-01 -9.4244202838056E-06
     5  4.0000000000000E-02  3.1053559017791E-01  1.1666072381557E-03
     6  5.0000000000000E-02  3.8685815737338E-01  3.3144296602146E-03
     7  6.0000000000000E-02  4.6230896994605E-01  6.6293252446506E-03
     8  7.0000000000000E-02  5.3671624572239E-01  1.1276355007201E-02
     9  8.0000000000000E-02  6.0990972803610E-01  1.7385851575817E-02
    10  9.0000000000000E-02  6.8172103616635E-01  2.5049708270764E-02
    11  1.0000000000000E-01  7.5198405397443E-01  3.4318554152712E-02
    12  1.1000000000000E-01  8.2053535858461E-01  4.5199885051824E-02
    13  1.2000000000000E-01  8.8721468976578E-01  5.7657199185332E-02
    14  1.3000000000000E-01  9.5186545941645E-01  7.1610163491152E-02
    15  1.4000000000000E-01  1.0143352992666E+00  8.6935813731924E-02
    16  1.5000000000000E-01  1.0744766436179E+00  1.0347076825511E-01
    17  1.6000000000000E-01  1.1321473426762E+00  1.2101441252696E-01
    18  1.7000000000000E-01  1.1872113008269E+00  1.3933298968327E-01
    19  1.8000000000000E-01  1.2395391330782E+00  1.5816451182763E-01
    20  1.9000000000000E-01  1.2890088318987E+00  1.7722438810276E-01
    21  2.0000000000000E-01  1.3355064358093E+00  1.9621164906643E-01
    22  2.1000000000000E-01  1.3789266903906E+00  2.1481563297935E-01
    23  2.2000000000000E-01  1.4191736918494E+00  2.3272298856271E-01
    24  2.3000000000000E-01  1.4561615029707E+00  2.4962484085157E-01
    25  2.4000000000000E-01  1.4898147311684E+00  2.6522396213467E-01
    26  2.5000000000000E-01  1.5200690584543E+00  2.7924178874207E-01
    27  2.6000000000000E-01  1.5468717134670E+00  2.9142512665431E-01
    28  2.7000000000000E-01  1.5701818762379E+00  3.0155239452706E-01
    29  2.8000000000000E-01  1.5899710071147E+00  3.0943926164523E-01
    30  2.9000000000000E-01  1.6062230922019E+00  3.1494355036402E-01
    31  3.0000000000000E-01  1.6189347987929E+00  3.1796928751837E-01
    32  3.1000000000000E-01  1.6281155355450E+00  3.1846980678180E-01
    33  3.2000000000000E-01  1.6337874135579E+00  3.1644982367449E-01
    34  3.3000000000000E-01  1.6359851060340E+00  3.1196642644817E-01
    35  3.4000000000000E-01  1.6347556057968E+00  3.0512894896985E-01
    36  3.5000000000000E-01  1.6301578815864E+00  2.9609771551065E-01
    37  3.6000000000000E-01  1.6222624357107E+00  2.8508167152148E-01
    38  3.7000000000000E-01  1.6111507672716E+00  2.7233493854206E-01
    39  3.8000000000000E-01  1.5969147467763E+00  2.5815235483279E-01
    40  3.9000000000000E-01  1.5796559094456E+00  2.4286408564708E-01
    41  4.0000000000000E-01  1.5594846759279E+00  2.2682940779879E-01
    42  4.1000000000000E-01  1.5365195103691E+00  2.1042979188068E-01
    43  4.2000000000000E-01  1.5108860268713E+00  1.9406142174921E-01
    44  4.3000000000000E-01  1.4827160562540E+00  1.7812730435267E-01
    45  4.4000000000000E-01  1.4521466857055E+00  1.6302913334132E-01
    46  4.5000000000000E-01  1.4193192843570E+00  1.4915907691830E-01
    47  4.6000000000000E-01  1.3843785280172E+00  1.3689166389905E-01
    48  4.7000000000000E-01  1.3474714362658E+00  1.2657594183870E-01
    49  4.8000000000000E-01  1.3087464348216E+00  1.1852807733603E-01
    50  4.9000000000000E-01  1.2683524555703E+00  1.1302456127178E-01
    51  5.0000000000000E-01  1.2264380858793E+00  1.1029617090923E-01
    52  5.1000000000000E-01  1.1831507778399E+00  1.1052282666564E-01
    53  5.2000000000000E-01  1.1386361268948E+00  1.1382946421515E-01
    54  5.3000000000000E-01  1.0930372279378E+00  1.2028302272745E-01
    55  5.4000000000000E-01  1.0464941154523E+00  1.2989062786683E-01
    56  5.5000000000000E-01  9.9914329260065E-01  1.4259902409835E-01
    57  5.6000000000000E-01  9.5111735243179E-01  1.5829528535126E-01
    58  5.7000000000000E-01  9.0254469256700E-01  1.7680880667598E-01
    59  5.8000000000000E-01  8.5354932288736E-01  1.9791455273141E-01
    60  5.9000000000000E-01  8.0425076392299E-01  2.2133751229801E-01
    61  6.0000000000000E-01  7.5476403186495E-01  2.4675828207012E-01
    62  6.1000000000000E-01  7.0519970442354E-01  2.7381967827864E-01
    63  6.2000000000000E-01  6.5566406017591E-01  3.0213425174671E-01
    64  6.3000000000000E-01  6.0625928261278E-01  3.3129256127457E-01
    65  6.4000000000000E-01  5.5708371883990E-01  3.6087204223363E-01
    66  6.5000000000000E-01  5.0823218183912E-01  3.9044629232213E-01
    67  6.6000000000000E-01  4.5979628437160E-01  4.1959458493749E-01
    68  6.7000000000000E-01  4.1186479202778E-01  4.4791141283094E-01
    69  6.8000000000000E-01  3.6452398261055E-01  4.7501586083435E-01
    70  6.9000000000000E-01  3.1785799898775E-01  5.0056060661975E-01
    71  7.0000000000000E-01  2.7194918277084E-01  5.2424035271751E-01
    72  7.1000000000000E-01  2.2687837666671E-01  5.4579950135586E-01
    73  7.2000000000000E-01  1.8272518410197E-01  5.6503889597734E-01
    74  7.3000000000000E-01  1.3956817572065E-01  5.8182146935022E-01
    75  7.4000000000000E-01  9.7485033589744E-02  5.9607665775700E-01
    76  7.5000000000000E-01  5.6552625389809E-02  6.0780346346522E-01
    77  7.6000000000000E-01  1.6847002492982E-02  6.1707207316675E-01
    78  7.7000000000000E-01 -2.1556682392631E-02  6.2402396783500E-01
    79  7.8000000000000E-01 -5.8584340439427E-02  6.2887048898294E-01
    80  7.9000000000000E-01 -9.4163195230824E-02  6.3188985704545E-01
    81  8.0000000000000E-01 -1.2822211304400E-01  6.3342266896149E-01
    82  8.1000000000000E-01 -1.6069201130729E-01  6.3386593338756E-01
    83  8.2000000000000E-01 -1.9150633967952E-01  6.3366573270620E-01
    84  8.3000000000000E-01 -2.2060162630421E-01  6.3330863048561E-01
    85  8.4000000000000E-01 -2.4791808001852E-01  6.3331197069806E-01
    86  8.5000000000000E-01 -2.7340023768217E-01  6.3421324023170E-01
    87  8.6000000000000E-01 -2.9699764437102E-01  6.3655868850746E-01
    88  8.7000000000000E-01 -3.1866555298556E-01  6.4089141684007E-01
    89  8.8000000000000E-01 -3.3836562888375E-01  6.4773916514483E-01
    90  8.9000000000000E-01 -3.5606664448438E-01  6.5760203432476E-01
    91  9.0000000000000E-01 -3.7174514841883E-01  6.7094038890025E-01
    92  9.1000000000000E-01 -3.8538609374927E-01  6.8816318597011E-01
    93  9.2000000000000E-01 -3.9698341002579E-01  7.0961697330976E-01
    94  9.3000000000000E-01 -4.0654050452494E-01  7.3557579130942E-01
    95  9.4000000000000E-01 -4.1407067889200E-01  7.6623220060923E-01
    96  9.5000000000000E-01 -4.1959744858634E-01  8.0168963987667E-01
    97  9.6000000000000E-01 -4.2315475398695E-01  8.4195629645950E-01
    98  9.7000000000000E-01 -4.2478705372879E-01  8.8694064698634E-01
    99  9.8000000000000E-01 -4.2454929278136E-01  9.3644879582026E-01
   100  9.9000000000000E-01 -4.2250673991470E-01  9.9018370710088E-01
   101  1.0000000000000E+00 -4.1873469148594E-01  1.0477463915364E+00
   102  1.0100000000000E+00 -4.1331804088122E-01  1.1086390727244E+00
   103  1.0200000000000E+00 -4.0635071541569E-01  1.1722703203067E+00
   104  1.0300000000000E+00 -3.9793498498260E-01  1.2379620994138E+00
   105  1.0400000000000E+00 -3.8818064920447E-01  1.3049586482910E+00
   106  1.0500000000000E+00 -3.7720411222430E-01  1.3724370595410E+00
   107  1.0600000000000E+00 -3.6512735653372E-01  1.4395194057648E+00
   108  1.0700000000000E+00 -3.5207682932879E-01  1.5052862181521E+00
   109  1.0800000000000E+00 -3.3818225675860E-01  1.5687910975883E+00
   110  1.0900000000000E+00 -3.2357540305680E-01  1.6290762125478E+00
   111  1.1000000000000E+00 -3.0838879287986E-01  1.6851884170923E+00
   112  1.1100000000000E+00 -2.9275441618936E-01  1.7361957061216E+00
   113  1.1200000000000E+00 -2.7680243568469E-01  1.7812037139950E+00
   114  1.1300000000000E+00 -2.6065991709741E-01  1.8193719570867E+00
   115  1.1400000000000E+00 -2.4444960258674E-01  1.8499295209238E+00
   116  1.1500000000000E+00 -2.2828874702674E-01  1.8721898983252E+00
   117  1.1600000000000E+00 -2.1228803614200E-01  1.8855646965105E+00
   118  1.1700000000000E+00 -1.9655060425699E-01  1.8895759481141E+00
   119  1.1800000000000E+00 -1.8117116786840E-01  1.8838667834911E+00
   120  1.1900000000000E+00 -1.6623528938058E-01  1.8682102489144E+00
   121  1.2000000000000E+00 -1.5181878316686E-01  1.8425160871302E+00
   122  1.2100000000000E+00 -1.3798727368825E-01  1.8068353324934E+00
   123  1.2200000000000E+00 -1.2479591275648E-01  1.7613626118963E+00
   124  1.2300000000000E+00 -1.1228926019789E-01  1.7064360845699E+00
   125  1.2400000000000E+00 -1.0050132924821E-01  1.6425349971861E+00
   126  1.2500000000000E+00 -8.9455794993597E-02  1.5702748754587E+00
   127  1.2600000000000E+00 -7.9166361157320E-02  1.4904004182633E+00
   128  1.2700000000000E+00 -6.9637277574025E-02  1.4037762043443E+00
   129  1.2800000000000E+00 -6.0863997811233E-02  1.3113753646358E+00
   130  1.2900000000000E+00 -5.2833963696206E-02  1.2142664135543E+00
   131  1.3000000000000E+00 -4.5527501011561E-02  1.1135984699010E+00
   132  1.3100000000000E+00 -3.8918808370076E-02  1.0105851317301E+00
   133  1.3200000000000E+00 -3.2977019349024E-02  9.0648729846380E-01
   134  1.3300000000000E+00 -2.7667316367412E-02  8.0259525751573E-01
   135  1.3400000000000E+00 -2.2952073564896E-02  7.0021037112017E-01
   136  1.3500000000000E+00 -1.8792005121469E-02  6.0062671146499E-01
   137  1.3600000000000E+00 -1.5147291478006E-02  5.0511303463994E-01
   138  1.3700000000000E+00 -1.1978697237375E-02  4.1489507050745E-01
   139  1.3800000000000E+00 -9.2484814429284E-03  3.3114020587856E-01
   140  1.3900000000000E+00 -6.9236638195011E-03  2.5491884559757E-01
   141  1.4000000000000E+00 -4.9802675995140E-03  1.8715204026406E-01
   142  1.4100000000000E+00 -3.3859077877498E-03  1.2878618076540E-01
   143  1.4200000000000E+00 -2.1131757420734E-03  8.0653477546221E-02
   144  1.4300000000000E+00 -1.1432473180999E-03  4.3407038668832E-02
   145  1.4400000000000E+00 -4.6713291900611E-04  1.7493737193316E-02
   146  1.4500000000000E+00 -8.7771831429129E-05  3.2149323961249E-03
   147  1.4600000000000E+00  5.7260021612504E-06 -2.0576613078610E-04
   148  1.4700000000000E+00 -1.7915695261934E-06  6.4971280591968E-05
   149  1.48  0.  0.
   150  1.49  0.  0.
   151  1.50  0.  0.
   152  1.51  0.  0.
   153  1.52  0.  0.
   154  1.53  0.  0.
   155  1.54  0.  0.
   156  1.55  0.  0.
   157  1.56  0.  0.
   158  1.57  0.  0.
   159  1.58  0.  0.
   160  1.59  0.  0.
   161  1.60  0.  0.
   162  1.61  0.  0.
   163  1.62  0.  0.
   164  1.63  0.  0.
   165  1.64  0.  0.
   166  1.65  0.  0.
   167  1.66  0.  0.
   168  1.67  0.  0.
   169  1.68  0.  0.
   170  1.69  0.  0.
   171  1.70  0.  0.
   172  1.71  0.  0.
   173  1.72  0.  0.
   174  1.73  0.  0.
   175  1.74  0.  0.
   176  1.75  0.  0.
   177  1.76  0.  0.
   178  1.77  0.  0.
   179  1.78  0.  0.
   180  1.79  0.  0.
   181  1.80  0.  0.
   182  1.81  0.  0.
   183  1.82  0.  0.
   184  1.83  0.  0.
   185  1.84  0.  0.
   186  1.85  0.  0.
   187  1.86  0.  0.
   188  1.87  0.  0.
   189  1.88  0.  0.
   190  1.89  0.  0.
   191  1.90  0.  0.
   192  1.91  0.  0.
   193  1.92  0.  0.
   194  1.93  0.  0.
   195  1.94  0.  0.
   196  1.95  0.  0.
   197  1.96  0.  0.
   198  1.97  0.  0.
   199  1.98  0.  0.
   200  1.99  0.  0.
   201  2.00  0.  0.
   202  2.01  0.  0.
   203  2.02  0.  0.
   204  2.03  0.  0.
   205  2.04  0.  0.
   206  2.05  0.  0.
   207  2.06  0.  0.
   208  2.07  0.  0.
   209  2.08  0.  0.
   210  2.09  0.  0.
   211  2.10  0.  0.
   212  2.11  0.  0.
   213  2.12  0.  0.
   214  2.13  0.  0.
   215  2.14  0.  0.
   216  2.15  0.  0.
   217  2.16  0.  0.
   218  2.17  0.  0.
   219  2.18  0.  0.
   220  2.19  0.  0.
   221  2.20  0.  0.
   222  2.21  0.  0.
   223  2.22  0.  0.
   224  2.23  0.  0.
   225  2.24  0.  0.
   226  2.25  0.  0.
   227  2.26  0.  0.
   228  2.27  0.  0.
   229  2.28  0.  0.
   230  2.29  0.  0.
   231  2.30  0.  0.
   232  2.31  0.  0.
   233  2.32  0.  0.
   234  2.33  0.  0.
   235  2.34  0.  0.
   236  2.35  0.  0.
   237  2.36  0.  0.
   238  2.37  0.  0.
   239  2.38  0.  0.
   240  2.39  0.  0.
   241  2.40  0.  0.
   242  2.41  0.  0.
   243  2.42  0.  0.
   244  2.43  0.  0.
   245  2.44  0.  0.
   246  2.45  0.  0.
   247  2.46  0.  0.
   248  2.47  0.  0.
   249  2.48  0.  0.
   250  2.49  0.  0.
   251  2.50  0.  0.
   252  2.51  0.  0.
   253  2.52  0.  0.
   254  2.53  0.  0.
   255  2.54  0.  0.
   256  2.55  0.  0.
   257  2.56  0.  0.
   258  2.57  0.  0.
   259  2.58  0.  0.
   260  2.59  0.  0.
   261  2.60  0.  0.
   262  2.61  0.  0.
   263  2.62  0.  0.
   264  2.63  0.  0.
   265  2.64  0.  0.
   266  2.65  0.  0.
   267  2.66  0.  0.
   268  2.67  0.  0.
   269  2.68  0.  0.
   270  2.69  0.  0.
   271  2.70  0.  0.
   272  2.71  0.  0.
   273  2.72  0.  0.
   274  2.73  0.  0.
   275  2.74  0.  0.
   276  2.75  0.  0.
   277  2.76  0.  0.
   278  2.77  0.  0.
   279  2.78  0.  0.
   280  2.79  0.  0.
   281  2.80  0.  0.
   282  2.81  0.  0.
   283  2.82  0.  0.
   284  2.83  0.  0.
   285  2.84  0.  0.
   286  2.85  0.  0.
   287  2.86  0.  0.
   288  2.87  0.  0.
   289  2.88  0.  0.
   290  2.89  0.  0.
   291  2.90  0.  0.
   292  2.91  0.  0.
   293  2.92  0.  0.
   294  2.93  0.  0.
   295  2.94  0.  0.
   296  2.95  0.  0.
   297  2.96  0.  0.
   298  2.97  0.  0.
   299  2.98  0.  0.
   300  2.99  0.  0.
   301  3.00  0.  0.
   302  3.01  0.  0.
   303  3.02  0.  0.
   304  3.03  0.  0.
   305  3.04  0.  0.
   306  3.05  0.  0.
   307  3.06  0.  0.
   308  3.07  0.  0.
   309  3.08  0.  0.
   310  3.09  0.  0.
   311  3.10  0.  0.
   312  3.11  0.  0.
   313  3.12  0.  0.
   314  3.13  0.  0.
   315  3.14  0.  0.
   316  3.15  0.  0.
   317  3.16  0.  0.
   318  3.17  0.  0.
   319  3.18  0.  0.
   320  3.19  0.  0.
   321  3.20  0.  0.
   322  3.21  0.  0.
   323  3.22  0.  0.
   324  3.23  0.  0.
   325  3.24  0.  0.
   326  3.25  0.  0.
   327  3.26  0.  0.
   328  3.27  0.  0.
   329  3.28  0.  0.
   330  3.29  0.  0.
   331  3.30  0.  0.
   332  3.31  0.  0.
   333  3.32  0.  0.
   334  3.33  0.  0.
   335  3.34  0.  0.
   336  3.35  0.  0.
   337  3.36  0.  0.
   338  3.37  0.  0.
   339  3.38  0.  0.
   340  3.39  0.  0.
   341  3.40  0.  0.
   342  3.41  0.  0.
   343  3.42  0.  0.
   344  3.43  0.  0.
   345  3.44  0.  0.
   346  3.45  0.  0.
   347  3.46  0.  0.
   348  3.47  0.  0.
   349  3.48  0.  0.
   350  3.49  0.  0.
   351  3.50  0.  0.
   352  3.51  0.  0.
   353  3.52  0.  0.
   354  3.53  0.  0.
   355  3.54  0.  0.
   356  3.55  0.  0.
   357  3.56  0.  0.
   358  3.57  0.  0.
   359  3.58  0.  0.
   360  3.59  0.  0.
   361  3.60  0.  0.
   362  3.61  0.  0.
   363  3.62  0.  0.
   364  3.63  0.  0.
   365  3.64  0.  0.
   366  3.65  0.  0.
   367  3.66  0.  0.
   368  3.67  0.  0.
   369  3.68  0.  0.
   370  3.69  0.  0.
   371  3.70  0.  0.
   372  3.71  0.  0.
   373  3.72  0.  0.
   374  3.73  0.  0.
   375  3.74  0.  0.
   376  3.75  0.  0.
   377  3.76  0.  0.
   378  3.77  0.  0.
   379  3.78  0.  0.
   380  3.79  0.  0.
   381  3.80  0.  0.
   382  3.81  0.  0.
   383  3.82  0.  0.
   384  3.83  0.  0.
   385  3.84  0.  0.
   386  3.85  0.  0.
   387  3.86  0.  0.
   388  3.87  0.  0.
   389  3.88  0.  0.
   390  3.89  0.  0.
   391  3.90  0.  0.
   392  3.91  0.  0.
   393  3.92  0.  0.
   394  3.93  0.  0.
   395  3.94  0.  0.
   396  3.95  0.  0.
   397  3.96  0.  0.
   398  3.97  0.  0.
   399  3.98  0.  0.
   400  3.99  0.  0.
   401  4.00  0.  0.
   402  4.01  0.  0.
   403  4.02  0.  0.
   404  4.03  0.  0.
   405  4.04  0.  0.
   406  4.05  0.  0.
   407  4.06  0.  0.
   408  4.07  0.  0.
   409  4.08  0.  0.
   410  4.09  0.  0.
   411  4.10  0.  0.
   412  4.11  0.  0.
   413  4.12  0.  0.
   414  4.13  0.  0.
   415  4.14  0.  0.
   416  4.15  0.  0.
   417  4.16  0.  0.
   418  4.17  0.  0.
   419  4.18  0.  0.
   420  4.19  0.  0.
   421  4.20  0.  0.
   422  4.21  0.  0.
   423  4.22  0.  0.
   424  4.23  0.  0.
   425  4.24  0.  0.
   426  4.25  0.  0.
   427  4.26  0.  0.
   428  4.27  0.  0.
   429  4.28  0.  0.
   430  4.29  0.  0.
   431  4.30  0.  0.
   432  4.31  0.  0.
   433  4.32  0.  0.
   434  4.33  0.  0.
   435  4.34  0.  0.
   436  4.35  0.  0.
   437  4.36  0.  0.
   438  4.37  0.  0.
   439  4.38  0.  0.
   440  4.39  0.  0.
   441  4.40  0.  0.
   442  4.41  0.  0.
   443  4.42  0.  0.
   444  4.43  0.  0.
   445  4.44  0.  0.
   446  4.45  0.  0.
   447  4.46  0.  0.
   448  4.47  0.  0.
   449  4.48  0.  0.
   450  4.49  0.  0.
   451  4.50  0.  0.
   452  4.51  0.  0.
   453  4.52  0.  0.
   454  4.53  0.  0.
   455  4.54  0.  0.
   456  4.55  0.  0.
   457  4.56  0.  0.
   458  4.57  0.  0.
   459  4.58  0.  0.
   460  4.59  0.  0.
   461  4.60  0.  0.
   462  4.61  0.  0.
   463  4.62  0.  0.
   464  4.63  0.  0.
   465  4.64  0.  0.
   466  4.65  0.  0.
   467  4.66  0.  0.
   468  4.67  0.  0.
   469  4.68  0.  0.
   470  4.69  0.  0.
   471  4.70  0.  0.
   472  4.71  0.  0.
   473  4.72  0.  0.
   474  4.73  0.  0.
   475  4.74  0.  0.
   476  4.75  0.  0.
   477  4.76  0.  0.
   478  4.77  0.  0.
   479  4.78  0.  0.
   480  4.79  0.  0.
   481  4.80  0.  0.
   482  4.81  0.  0.
   483  4.82  0.  0.
   484  4.83  0.  0.
   485  4.84  0.  0.
   486  4.85  0.  0.
   487  4.86  0.  0.
   488  4.87  0.  0.
   489  4.88  0.  0.
   490  4.89  0.  0.
   491  4.90  0.  0.
   492  4.91  0.  0.
   493  4.92  0.  0.
   494  4.93  0.  0.
   495  4.94  0.  0.
   496  4.95  0.  0.
   497  4.96  0.  0.
   498  4.97  0.  0.
   499  4.98  0.  0.
   500  4.99  0.  0.
   1                         9.5992087758528E+00  9.5469426966419E-01 -5.0515509655141E-02
     1  0.0000000000000E+00 -8.4267083311218E-09  9.8655599604361E-09 -8.7849658589323E-09
     2  1.0000000000000E-02  1.3697968401658E-03  1.4298978304728E-05  5.3545247454590E-04
     3  2.0000000000000E-02  5.4810222065265E-03  5.1880809752648E-05  2.1449204919998E-03
     4  3.0000000000000E-02  1.2338986139833E-02  9.7012542985985E-05  4.8375644732764E-03
     5  4.0000000000000E-02  2.1951895164262E-02  1.2417676326836E-04  8.6280822001554E-03
     6  5.0000000000000E-02  3.4329903925727E-02  9.9112748821516E-05  1.3535863687895E-02
     7  6.0000000000000E-02  4.9483821485675E-02 -1.9759043926913E-05  1.9583831579930E-02
     8  7.0000000000000E-02  6.7423505779811E-02 -2.7956436886689E-04  2.6796994799417E-02
     9  8.0000000000000E-02  8.8155988177956E-02 -7.3089952074291E-04  3.5200751977379E-02
    10  9.0000000000000E-02  1.1168337753737E-01 -1.4255064162270E-03  4.4818989002495E-02
    11  1.0000000000000E-01  1.3800059945899E-01 -2.4137596509992E-03  5.5672021718871E-02
    12  1.1000000000000E-01  1.6709303148792E-01 -3.7420326789604E-03  6.7774440192871E-02
    13  1.2000000000000E-01  1.9893409863084E-01 -5.4500145483040E-03  8.1132914950269E-02
    14  1.3000000000000E-01  2.3348289570737E-01 -7.5680511849141E-03  9.5744028064507E-02
    15  1.4000000000000E-01  2.7068190365723E-01 -1.0114585973888E-02  1.1159219289850E-01
    16  1.5000000000000E-01  3.1045486597104E-01 -1.3093773334015E-02  1.2864772564319E-01
    17  1.6000000000000E-01  3.5270488891535E-01 -1.6493336126699E-02  1.4686512956997E-01
    18  1.7000000000000E-01  3.9731282523049E-01 -2.0282733148225E-02  1.6618164916948E-01
    19  1.8000000000000E-01  4.4413599557635E-01 -2.4411696722515E-02  1.8651614616559E-01
    20  1.9000000000000E-01  4.9300729529732E-01 -2.8809192672279E-02  2.0776834288649E-01
    21  2.0000000000000E-01  5.4373472621852E-01 -3.3382845872367E-02  2.2981847078487E-01
    22  2.1000000000000E-01  5.9610138433495E-01 -3.8018864375040E-02  2.5252735319686E-01
    23  2.2000000000000E-01  6.4986592460577E-01 -4.2582483970535E-02  2.7573694190518E-01
    24  2.3000000000000E-01  7.0476351382455E-01 -4.6918943252370E-02  2.9927131693548E-01
    25  2.4000000000000E-01  7.6050727192277E-01 -5.0854987056312E-02  3.2293814849230E-01
    26  2.5000000000000E-01  8.1679019131105E-01 -5.4200883808205E-02  3.4653060926191E-01
    27  2.6000000000000E-01  8.7328751320153E-01 -5.6752930123016E-02  3.6982971471444E-01
    28  2.7000000000000E-01  9.2965952952126E-01 -5.8296404221173E-02  3.9260705876202E-01
    29  2.8000000000000E-01  9.8555476924534E-01 -5.8608918634560E-02  4.1462790240310E-01
    30  2.9000000000000E-01  1.0406135189675E+00 -5.7464112516957E-02  4.3565456402733E-01
    31  3.0000000000000E-01  1.0944716194852E+00 -5.4635614886563E-02  4.5545005207328E-01
    32  3.1000000000000E-01  1.1467644732851E+00 -4.9901202522308E-02  4.7378187390730E-01
    33  3.2000000000000E-01  1.1971311922371E+00 -4.3047070193077E-02  4.9042594928754E-01
    34  3.3000000000000E-01  1.2452188106583E+00 -3.3872126568537E-02  5.0517055272470E-01
    35  3.4000000000000E-01  1.2906864863097E+00 -2.2192226657131E-02  5.1782020655440E-01
    36  3.5000000000000E-01  1.3332096108915E+00 -7.8442510142323E-03  5.2819944566541E-01
    37  3.6000000000000E-01  1.3724837522510E+00  9.3100567012391E-03  5.3615637562062E-01
    38  3.7000000000000E-01  1.4082283528077E+00  2.9380578978384E-02  5.4156594836387E-01
    39  3.8000000000000E-01  1.4401901125989E+00  5.2445720521960E-02  5.4433288379503E-01
    40  3.9000000000000E-01  1.4681459907894E+00  7.8549784199729E-02  5.4439417114649E-01
    41  4.0000000000000E-01  1.4919057663659E+00  1.0770089132052E-01  5.4172109120894E-01
    42  4.1000000000000E-01  1.5113141069213E+00  1.3986950057569E-01  5.3632070889775E-01
    43  4.2000000000000E-01  1.5262521037678E+00  1.7498756854973E-01  5.2823679526395E-01
    44  4.3000000000000E-01  1.5366382419056E+00  2.1294838219567E-01  5.1755014864784E-01
    45  4.4000000000000E-01  1.5424287844266E+00  2.5360708032946E-01  5.0437829604072E-01
    46  4.5000000000000E-01  1.5436175625028E+00  2.9678186729488E-01  4.8887456763434E-01
    47  4.6000000000000E-01  1.5402351739840E+00  3.4225590777224E-01  4.7122654975940E-01
    48  4.7000000000000E-01  1.5323476055453E+00  3.8977987754487E-01  4.5165393369494E-01
    49  4.8000000000000E-01  1.5200543050439E+00  4.3907513119335E-01  4.3040578992103E-01
    50  4.9000000000000E-01  1.5034857420198E+00  4.8983743445185E-01  4.0775730903462E-01
    51  5.0000000000000E-01  1.4828005048645E+00  5.4174119661887E-01  3.8400606151515E-01
    52  5.1000000000000E-01  1.4581819928625E+00  5.9444412723300E-01  3.5946783857753E-01
    53  5.2000000000000E-01  1.4298347698709E+00  6.4759223145263E-01  3.3447214527434E-01
    54  5.3000000000000E-01  1.3979806536542E+00  7.0082505043619E-01  3.0935742461239E-01
    55  5.4000000000000E-01  1.3628546206715E+00  7.5378104669848E-01  2.8446609756395E-01
    56  5.5000000000000E-01  1.3247006102887E+00  8.0610303007323E-01  2.6013950833983E-01
    57  5.6000000000000E-01  1.2837673148488E+00  8.5744351765857E-01  2.3671286704435E-01
    58  5.7000000000000E-01  1.2403040427245E+00  9.0746992103617E-01  2.1451028277621E-01
    59  5.8000000000000E-01  1.1945567403464E+00  9.5586945616744E-01  1.9383997933706E-01
    60  5.9000000000000E-01  1.1467642562685E+00  1.0023536756685E+00  1.7498978296229E-01
    61  6.0000000000000E-01  1.0971549256330E+00  1.0466625295913E+00  1.5822296692989E-01
    62  6.1000000000000E-01  1.0459435470011E+00  1.0885678692912E+00  1.4377453161010E-01
    63  6.2000000000000E-01  9.9332881554900E-01  1.1278763192945E+00  1.3184799059584E-01
    64  6.3000000000000E-01  9.3949126722962E-01  1.1644314541092E+00  1.2261272414969E-01
    65  6.4000000000000E-01  8.8459177784014E-01  1.1981152304289E+00  1.1620195048563E-01
    66  6.5000000000000E-01  8.2877064923482E-01  1.2288486399058E+00  1.1271135358025E-01
    67  6.6000000000000E-01  7.7214730239294E-01  1.2565915633318E+00  1.1219839350199E-01
    68  6.7000000000000E-01  7.1482058395279E-01  1.2813418233653E+00  1.1468231190404E-01
    69  6.8000000000000E-01  6.5686967941198E-01  1.3031334495443E+00  1.2014483161284E-01
    70  6.9000000000000E-01  5.9835561274630E-01  1.3220341859099E+00  1.2853153542450E-01
    71  7.0000000000000E-01  5.3932329899083E-01  1.3381422877813E+00  1.3975389558037E-01
    72  7.1000000000000E-01  4.7980410363283E-01  1.3515826697459E+00  1.5369191219957E-01
    73  7.2000000000000E-01  4.1981885075742E-01  1.3625024814202E+00  1.7019730647677E-01
    74  7.3000000000000E-01  3.5938121101834E-01  1.3710662006998E+00  1.8909720296130E-01
    75  7.4000000000000E-01  2.9850139091976E-01  1.3774503457500E+00  2.1019822496524E-01
    76  7.5000000000000E-01  2.3719003680622E-01  1.3818379166360E+00  2.3329091831923E-01
    77  7.6000000000000E-01  1.7546226055669E-01  1.3844126850292E+00  2.5815441150410E-01
    78  7.7000000000000E-01  1.1334168942555E-01  1.3853534556620E+00  2.8456121479120E-01
    79  7.8000000000000E-01  5.0864439890024E-02  1.3848284259913E+00  3.1228205755969E-01
    80  7.9000000000000E-01 -1.1917085162826E-02  1.3829897707770E+00  3.4109066151224E-01
    81  8.0000000000000E-01 -7.4930675000149E-02  1.3799685759360E+00  3.7076834813792E-01
    82  8.1000000000000E-01 -1.3808116076559E-01  1.3758702410914E+00  4.0110838147947E-01
    83  8.2000000000000E-01 -2.0124772601579E-01  1.3707704627607E+00  4.3191995202918E-01
    84  8.3000000000000E-01 -2.6428175998660E-01  1.3647119002201E+00  4.6303171432218E-01
    85  8.4000000000000E-01 -3.2700532589751E-01  1.3577016138968E+00  4.9429479941583E-01
    86  8.5000000000000E-01 -3.8921030529058E-01  1.3497093518854E+00  5.2558523378042E-01
    87  8.6000000000000E-01 -4.5065826657929E-01  1.3406667441013E+00  5.5680570799673E-01
    88  8.7000000000000E-01 -5.1108109188603E-01  1.3304674459716E+00  5.8788665183741E-01
    89  8.8000000000000E-01 -5.7018238113490E-01  1.3189682547334E+00  6.1878658655375E-01
    90  8.9000000000000E-01 -6.2763963652459E-01  1.3059912017290E+00  6.4949174022103E-01
    91  9.0000000000000E-01 -6.8310721423898E-01  1.2913266039232E+00  6.8001492752202E-01
    92  9.1000000000000E-01 -7.3622001388125E-01  1.2747370376195E+00  7.1039371106181E-01
    93  9.2000000000000E-01 -7.8659785996505E-01  1.2559621774209E+00  7.4068787689155E-01
    94  9.3000000000000E-01 -8.3385051419223E-01  1.2347244242636E+00  7.7097627205801E-01
    95  9.4000000000000E-01 -8.7758324251413E-01  1.2107352282552E+00  8.0135306637832E-01
    96  9.5000000000000E-01 -9.1740284742088E-01  1.1837019954384E+00  8.3192351395938E-01
    97  9.6000000000000E-01 -9.5292406382601E-01  1.1533354528525E+00  8.6279930196064E-01
    98  9.7000000000000E-01 -9.8377620657661E-01  1.1193573336796E+00  8.9409358447318E-01
    99  9.8000000000000E-01 -1.0096099492651E+00  1.0815082341619E+00  9.2591580792047E-01
   100  9.9000000000000E-01 -1.0301041078474E+00  1.0395554865750E+00  9.5836644088648E-01
   101  1.0000000000000E+00 -1.0449722987495E+00  9.9330088806084E-01  9.9153172557448E-01
   102  1.0100000000000E+00 -1.0539693397862E+00  9.4258812368865E-01  1.0254785700838E+00
   103  1.0200000000000E+00 -1.0568972634052E+00  8.8730972382018E-01  1.0602497002791E+00
   104  1.0300000000000E+00 -1.0536108155141E+00  8.2741340071850E-01  1.0958591871997E+00
   105  1.0400000000000E+00 -1.0440223194402E+00  7.6290761733327E-01  1.1322884607274E+00
   106  1.0500000000000E+00 -1.0281057933282E+00  6.9386625221725E-01  1.1694829126645E+00
   107  1.0600000000000E+00 -1.0059002203537E+00  6.2043223839042E-01  1.2073491826181E+00
   108  1.0700000000000E+00 -9.7751188440136E-01  5.4282007051972E-01  1.2457532082412E+00
   109  1.0800000000000E+00 -9.4311569902528E-01  4.6131709365004E-01  1.2845191077292E+00
   110  1.0900000000000E+00 -9.0295547438998E-01  3.7628350766746E-01  1.3234289471973E+00
   111  1.1000000000000E+00 -8.5734308514659E-01  2.8815104429145E-01  1.3622234289666E+00
   112  1.1100000000000E+00 -8.0665652146997E-01  1.9742029721871E-01  1.4006035192250E+00
   113  1.1200000000000E+00 -7.5133682552299E-01  1.0465671078234E-01  1.4382330152157E+00
   114  1.1300000000000E+00 -6.9188393585306E-01  1.0485257435897E-02  1.4747420335937E+00
   115  1.1400000000000E+00 -6.2885148254088E-01 -8.4416140627852E-02  1.5097313829810E+00
   116  1.1500000000000E+00 -5.6284059560065E-01 -1.7932436623662E-01  1.5427777657263E+00
   117  1.1600000000000E+00 -4.9449280813349E-01 -2.7347993558824E-01  1.5734397364557E+00
   118  1.1700000000000E+00 -4.2448215332802E-01 -3.6609677587516E-01  1.6012643288985E+00
   119  1.1800000000000E+00 -3.5350657055740E-01 -4.5637280815385E-01  1.6257942476820E+00
   120  1.1900000000000E+00 -2.8227874991906E-01 -5.4350117428513E-01  1.6465755089217E+00
   121  1.2000000000000E+00 -2.1151655651835E-01 -6.2668193230285E-01  1.6631654025361E+00
   122  1.2100000000000E+00 -1.4193318521109E-01 -7.0513403326197E-01  1.6751406406870E+00
   123  1.2200000000000E+00 -7.4227203234720E-02 -7.7810738466535E-01  1.6821055507020E+00
   124  1.2300000000000E+00 -9.0726420030021E-03 -8.4489480117828E-01  1.6837001674584E+00
   125  1.2400000000000E+00  5.2890699817326E-02 -9.0484364266794E-01  1.6796080795937E+00
   126  1.2500000000000E+00  1.1106658202566E-01 -9.5736694269797E-01  1.6695638861007E+00
   127  1.2600000000000E+00  1.6491112274593E-01 -1.0019538374940E+00  1.6533601248788E+00
   128  1.2700000000000E+00  2.1394092594872E-01 -1.0381791158830E+00  1.6308535425018E+00