Au    ONCVPSP-4.0.1  r_core=   1.45739   1.55651   1.55651   1.60377
     79.0000     19.0000      231019    zatom,zion,pspd
     8       2   3     4   500     0    pspcod,pspxc,lmax,lloc,mmax,r2well
  4.99000000  5.00000000  0.00000000    rchrg fchrg qchrg
     2     2     2     1     0    nproj
     1     1           extension_switch
   0                         9.1824080850447E+00 -1.7926225313018E-01
     1  0.0000000000000E+00  6.8326211355441E-10  1.2692705834288E-08
     2  1.0000000000000E-02  7.8130627203756E-02 -4.3474223659029E-04
     3  2.0000000000000E-02  1.5608591563180E-01 -6.1288068706831E-04
     4  3.0000000000000E-02  2.3369073347904E-01 -2.8432083030652E-04
     5  4.0000000000000E-02  3.1077037164014E-01  7.8814498956965E-04
     6  5.0000000000000E-02  3.8715077497961E-01  2.8227380758449E-03
     7  6.0000000000000E-02  4.6265879519293E-01  6.0130159409413E-03
     8  7.0000000000000E-02  5.3712247079903E-01  1.0522751143540E-02
     9  8.0000000000000E-02  6.1037133912114E-01  1.6481487934723E-02
    10  9.0000000000000E-02  6.8223678426514E-01  2.3980882916682E-02
    11  1.0000000000000E-01  7.5255242411172E-01  3.3071918278020E-02
    12  1.1000000000000E-01  8.2115453822553E-01  4.3763056598784E-02
    13  1.2000000000000E-01  8.8788253737601E-01  5.6019385136181E-02
    14  1.3000000000000E-01  9.5257947409107E-01  6.9762775360512E-02
    15  1.4000000000000E-01  1.0150925923556E+00  8.4873060786621E-02
    16  1.5000000000000E-01  1.0752739132536E+00  1.0119021332604E-01
    17  1.6000000000000E-01  1.1329808520675E+00  1.1851747596149E-01
    18  1.7000000000000E-01  1.1880768611211E+00  1.3662538799950E-01
    19  1.8000000000000E-01  1.2404320915158E+00  1.5525661895415E-01
    20  1.9000000000000E-01  1.2899240658878E+00  1.7413150869064E-01
    21  2.0000000000000E-01  1.3364383534379E+00  1.9295419521124E-01
    22  2.1000000000000E-01  1.3798692377725E+00  2.1141919774992E-01
    23  2.2000000000000E-01  1.4201203675667E+00  2.2921831195733E-01
    24  2.3000000000000E-01  1.4571053797381E+00  2.4604766614174E-01
    25  2.4000000000000E-01  1.4907484846993E+00  2.6161478296417E-01
    26  2.5000000000000E-01  1.5209850033665E+00  2.7564548976951E-01
    27  2.6000000000000E-01  1.5477618459205E+00  2.8789052291084E-01
    28  2.7000000000000E-01  1.5710379228610E+00  2.9813167695392E-01
    29  2.8000000000000E-01  1.5907844796440E+00  3.0618735842827E-01
    30  2.9000000000000E-01  1.6069853471404E+00  3.1191741564778E-01
    31  3.0000000000000E-01  1.6196371012838E+00  3.1522713081455E-01
    32  3.1000000000000E-01  1.6287491265674E+00  3.1607027785035E-01
    33  3.2000000000000E-01  1.6343435794736E+00  3.1445116881236E-01
    34  3.3000000000000E-01  1.6364552494597E+00  3.1042563294752E-01
    35  3.4000000000000E-01  1.6351313167391E+00  3.0410089498105E-01
    36  3.5000000000000E-01  1.6304310077602E+00  2.9563434265362E-01
    37  3.6000000000000E-01  1.6224251509683E+00  2.8523119732655E-01
    38  3.7000000000000E-01  1.6111956370960E+00  2.7314112516980E-01
    39  3.8000000000000E-01  1.5968347898381E+00  2.5965384953267E-01
    40  3.9000000000000E-01  1.5794446542922E+00  2.4509384708304E-01
    41  4.0000000000000E-01  1.5591362119573E+00  2.2981423072352E-01
    42  4.1000000000000E-01  1.5360285323438E+00  2.1418994070802E-01
    43  4.2000000000000E-01  1.5102478723452E+00  1.9861038139712E-01
    44  4.3000000000000E-01  1.4819267354144E+00  1.8347165434839E-01
    45  4.4000000000000E-01  1.4512029032726E+00  1.6916854864483E-01
    46  4.5000000000000E-01  1.4182184533295E+00  1.5608645628253E-01
    47  4.6000000000000E-01  1.3831187752037E+00  1.4459338389781E-01
    48  4.7000000000000E-01  1.3460515996940E+00  1.3503223201405E-01
    49  4.8000000000000E-01  1.3071660532665E+00  1.2771350930055E-01
    50  4.9000000000000E-01  1.2666117505896E+00  1.2290864210433E-01
    51  5.0000000000000E-01  1.2245379368777E+00  1.2084402885807E-01
    52  5.1000000000000E-01  1.1810926908134E+00  1.2169597507225E-01
    53  5.2000000000000E-01  1.1364221976167E+00  1.2558662774008E-01
    54  5.3000000000000E-01  1.0906701004463E+00  1.3258100844073E-01
    55  5.4000000000000E-01  1.0439769367768E+00  1.4268522259147E-01
    56  5.5000000000000E-01  9.9647966472437E-01  1.5584589859911E-01
    57  5.6000000000000E-01  9.4831128252765E-01  1.7195088556096E-01
    58  5.7000000000000E-01  8.9960054255820E-01  1.9083121216241E-01
    59  5.8000000000000E-01  8.5047175938101E-01  2.1226428303616E-01
    60  5.9000000000000E-01  8.0104470953657E-01  2.3597826261877E-01
    61  6.0000000000000E-01  7.5143461891638E-01  2.6165757100081E-01
    62  6.1000000000000E-01  7.0175223188605E-01  2.8894939194746E-01
    63  6.2000000000000E-01  6.5210395470924E-01  3.1747107066968E-01
    64  6.3000000000000E-01  6.0259206437556E-01  3.4681825854162E-01
    65  6.4000000000000E-01  5.5331497266542E-01  3.7657364421795E-01
    66  6.5000000000000E-01  5.0436753422140E-01  4.0631609590693E-01
    67  6.6000000000000E-01  4.5584138656266E-01  4.3563002823083E-01
    68  6.7000000000000E-01  4.0782530939401E-01  4.6411479943310E-01
    69  6.8000000000000E-01  3.6040559023900E-01  4.9139394087132E-01
    70  6.9000000000000E-01  3.1366638337492E-01  5.1712402089646E-01
    71  7.0000000000000E-01  2.6769004927122E-01  5.4100294941398E-01
    72  7.1000000000000E-01  2.2255746222856E-01  5.6277753762237E-01
    73  7.2000000000000E-01  1.7834827467731E-01  5.8225013952139E-01
    74  7.3000000000000E-01  1.3514112760803E-01  5.9928421758834E-01
    75  7.4000000000000E-01  9.3013797855041E-02  6.1380869427431E-01
    76  7.5000000000000E-01  5.2043274414563E-02  6.2582097333755E-01
    77  7.6000000000000E-01  1.2305757624237E-02  6.3538854010653E-01
    78  7.7000000000000E-01 -2.6123423171029E-02  6.4264907709452E-01
    79  7.8000000000000E-01 -6.3169975924572E-02  6.4780906045287E-01
    80  7.9000000000000E-01 -9.8760896624255E-02  6.5114083300827E-01
    81  8.0000000000000E-01 -1.3282480287898E-01  6.5297818048861E-01
    82  8.1000000000000E-01 -1.6529234673429E-01  6.5371046840414E-01
    83  8.2000000000000E-01 -1.9609670109627E-01  6.5377542730044E-01
    84  8.3000000000000E-01 -2.2517411222516E-01  6.5365070313022E-01
    85  8.4000000000000E-01 -2.5246450896514E-01  6.5384431670534E-01
    86  8.5000000000000E-01 -2.7791215774183E-01  6.5488420102616E-01
    87  8.6000000000000E-01 -3.0146635092107E-01  6.5730700720731E-01
    88  8.7000000000000E-01 -3.2308211491313E-01  6.6164638825644E-01
    89  8.8000000000000E-01 -3.4272092345393E-01  6.6842098468646E-01
    90  8.9000000000000E-01 -3.6035140082320E-01  6.7812234650929E-01
    91  9.0000000000000E-01 -3.7594999938668E-01  6.9120303228807E-01
    92  9.1000000000000E-01 -3.8950163578842E-01  7.0806512742818E-01
    93  9.2000000000000E-01 -4.0100027037722E-01  7.2904942065724E-01
    94  9.3000000000000E-01 -4.1044941502749E-01  7.5442546966814E-01
    95  9.4000000000000E-01 -4.1786255540585E-01  7.8438277425700E-01
    96  9.5000000000000E-01 -4.2326347492613E-01  8.1902325814918E-01
    97  9.6000000000000E-01 -4.2668646911084E-01  8.5835523933834E-01
    98  9.7000000000000E-01 -4.2817644081198E-01  9.0228904350521E-01
    99  9.8000000000000E-01 -4.2778886870858E-01  9.5063438637627E-01
   100  9.9000000000000E-01 -4.2558964365839E-01  1.0030996192203E+00
   101  1.0000000000000E+00 -4.2165476979717E-01  1.0592928976516E+00
   102  1.0100000000000E+00 -4.1606992971020E-01  1.1187252980996E+00
   103  1.0200000000000E+00 -4.0892991549911E-01  1.1808158694258E+00
   104  1.0300000000000E+00 -4.0033793008550E-01  1.2448985699124E+00
   105  1.0400000000000E+00 -3.9040476558565E-01  1.3102310028834E+00
   106  1.0500000000000E+00 -3.7924786800451E-01  1.3760048283347E+00
   107  1.0600000000000E+00 -3.6699029978370E-01  1.4413576938489E+00
   108  1.0700000000000E+00 -3.5375961385827E-01  1.5053864963520E+00
   109  1.0800000000000E+00 -3.3968665477372E-01  1.5671617577427E+00
   110  1.0900000000000E+00 -3.2490430406007E-01  1.6257428725388E+00
   111  1.1000000000000E+00 -3.0954618840959E-01  1.6801939650629E+00
   112  1.1100000000000E+00 -2.9374537023040E-01  1.7296000777848E+00
   113  1.1200000000000E+00 -2.7763304082567E-01  1.7730834015862E+00
   114  1.1300000000000E+00 -2.6133723675628E-01  1.8098192532542E+00
   115  1.1400000000000E+00 -2.4498159987209E-01  1.8390515056020E+00
   116  1.1500000000000E+00 -2.2868420104231E-01  1.8601071812999E+00
   117  1.1600000000000E+00 -2.1255644677138E-01  1.8724099328750E+00
   118  1.1700000000000E+00 -1.9670208668013E-01  1.8754921480456E+00
   119  1.1800000000000E+00 -1.8121633825718E-01  1.8690054416587E+00
   120  1.1900000000000E+00 -1.6618514339289E-01  1.8527293222862E+00
   121  1.2000000000000E+00 -1.5168456900436E-01  1.8265778529123E+00
   122  1.2100000000000E+00 -1.3778036159848E-01  1.7906041603295E+00
   123  1.2200000000000E+00 -1.2452766294348E-01  1.7450026862504E+00
   124  1.2300000000000E+00 -1.1197089115362E-01  1.6901091143401E+00
   125  1.2400000000000E+00 -1.0014378853018E-01  1.6263979500492E+00
   126  1.2500000000000E+00 -8.9069634449905E-02  1.5544777741786E+00
   127  1.2600000000000E+00 -7.8761618539476E-02  1.4750842352311E+00
   128  1.2700000000000E+00 -6.9223366381408E-02  1.3890708889428E+00
   129  1.2800000000000E+00 -6.0449607079240E-02  1.2973980356701E+00
   130  1.2900000000000E+00 -5.2426969276089E-02  1.2011197459884E+00
   131  1.3000000000000E+00 -4.5134889695584E-02  1.1013693015470E+00
   132  1.3100000000000E+00 -3.8546615994568E-02  9.9934331139356E-01
   133  1.3200000000000E+00 -3.2630283763671E-02  8.9628479244476E-01
   134  1.3300000000000E+00 -2.7350045896352E-02  7.9346552635945E-01
   135  1.3400000000000E+00 -2.2667231308028E-02  6.9216802320900E-01
   136  1.3500000000000E+00 -1.8541509158108E-02  5.9366743452609E-01
   137  1.3600000000000E+00 -1.4932030732691E-02  4.9921379990903E-01
   138  1.3700000000000E+00 -1.1798562608808E-02  4.1001460590823E-01
   139  1.3800000000000E+00 -9.1024108977969E-03  3.2721969577925E-01
   140  1.3900000000000E+00 -6.8097087731272E-03  2.5188331102480E-01
   141  1.4000000000000E+00 -4.8956817500674E-03  1.8491267841614E-01
   142  1.4100000000000E+00 -3.3271850667834E-03  1.2723928246059E-01
   143  1.4200000000000E+00 -2.0761485508829E-03  7.9681964175484E-02
   144  1.4300000000000E+00 -1.1232206904716E-03  4.2883186704420E-02
   145  1.4400000000000E+00 -4.5903552531406E-04  1.7282398686327E-02
   146  1.4500000000000E+00 -8.6279673326739E-05  3.1760556892438E-03
   147  1.4600000000000E+00  5.6323767879585E-06 -2.0331490814114E-04
   148  1.4700000000000E+00 -1.7616956966668E-06  6.4191297434979E-05
   149  1.48  0. -0.
   150  1.49 -0.  0.
   151  1.50  0.  0.
   152  1.51  0.  0.
   153  1.52  0.  0.
   154  1.53  0.  0.
   155  1.54  0.  0.
   156  1.55  0.  0.
   157  1.56  0.  0.
   158  1.57  0.  0.
   159  1.58  0.  0.
   160  1.59  0.  0.
   161  1.60  0.  0.
   162  1.61  0.  0.
   163  1.62  0.  0.
   164  1.63  0.  0.
   165  1.64  0.  0.
   166  1.65  0.  0.
   167  1.66  0.  0.
   168  1.67  0.  0.
   169  1.68  0.  0.
   170  1.69  0.  0.
   171  1.70  0.  0.
   172  1.71  0.  0.
   173  1.72  0.  0.
   174  1.73  0.  0.
   175  1.74  0.  0.
   176  1.75  0.  0.
   177  1.76  0.  0.
   178  1.77  0.  0.
   179  1.78  0.  0.
   180  1.79  0.  0.
   181  1.80  0.  0.
   182  1.81  0.  0.
   183  1.82  0.  0.
   184  1.83  0.  0.
   185  1.84  0.  0.
   186  1.85  0.  0.
   187  1.86  0.  0.
   188  1.87  0.  0.
   189  1.88  0.  0.
   190  1.89  0.  0.
   191  1.90  0.  0.
   192  1.91  0.  0.
   193  1.92  0.  0.
   194  1.93  0.  0.
   195  1.94  0.  0.
   196  1.95  0.  0.
   197  1.96  0.  0.
   198  1.97  0.  0.
   199  1.98  0.  0.
   200  1.99  0.  0.
   201  2.00  0.  0.
   202  2.01  0.  0.
   203  2.02  0.  0.
   204  2.03  0.  0.
   205  2.04  0.  0.
   206  2.05  0.  0.
   207  2.06  0.  0.
   208  2.07  0.  0.
   209  2.08  0.  0.
   210  2.09  0.  0.
   211  2.10  0.  0.
   212  2.11  0.  0.
   213  2.12  0.  0.
   214  2.13  0.  0.
   215  2.14  0.  0.
   216  2.15  0.  0.
   217  2.16  0.  0.
   218  2.17  0.  0.
   219  2.18  0.  0.
   220  2.19  0.  0.
   221  2.20  0.  0.
   222  2.21  0.  0.
   223  2.22  0.  0.
   224  2.23  0.  0.
   225  2.24  0.  0.
   226  2.25  0.  0.
   227  2.26  0.  0.
   228  2.27  0.  0.
   229  2.28  0.  0.
   230  2.29  0.  0.
   231  2.30  0.  0.
   232  2.31  0.  0.
   233  2.32  0.  0.
   234  2.33  0.  0.
   235  2.34  0.  0.
   236  2.35  0.  0.
   237  2.36  0.  0.
   238  2.37  0.  0.
   239  2.38  0.  0.
   240  2.39  0.  0.
   241  2.40  0.  0.
   242  2.41  0.  0.
   243  2.42  0.  0.
   244  2.43  0.  0.
   245  2.44  0.  0.
   246  2.45  0.  0.
   247  2.46  0.  0.
   248  2.47  0.  0.
   249  2.48  0.  0.
   250  2.49  0.  0.
   251  2.50  0.  0.
   252  2.51  0.  0.
   253  2.52  0.  0.
   254  2.53  0.  0.
   255  2.54  0.  0.
   256  2.55  0.  0.
   257  2.56  0.  0.
   258  2.57  0.  0.
   259  2.58  0.  0.
   260  2.59  0.  0.
   261  2.60  0.  0.
   262  2.61  0.  0.
   263  2.62  0.  0.
   264  2.63  0.  0.
   265  2.64  0.  0.
   266  2.65  0.  0.
   267  2.66  0.  0.
   268  2.67  0.  0.
   269  2.68  0.  0.
   270  2.69  0.  0.
   271  2.70  0.  0.
   272  2.71  0.  0.
   273  2.72  0.  0.
   274  2.73  0.  0.
   275  2.74  0.  0.
   276  2.75  0.  0.
   277  2.76  0.  0.
   278  2.77  0.  0.
   279  2.78  0.  0.
   280  2.79  0.  0.
   281  2.80  0.  0.
   282  2.81  0.  0.
   283  2.82  0.  0.
   284  2.83  0.  0.
   285  2.84  0.  0.
   286  2.85  0.  0.
   287  2.86  0.  0.
   288  2.87  0.  0.
   289  2.88  0.  0.
   290  2.89  0.  0.
   291  2.90  0.  0.
   292  2.91  0.  0.
   293  2.92  0.  0.
   294  2.93  0.  0.
   295  2.94  0.  0.
   296  2.95  0.  0.
   297  2.96  0.  0.
   298  2.97  0.  0.
   299  2.98  0.  0.
   300  2.99  0.  0.
   301  3.00  0.  0.
   302  3.01  0.  0.
   303  3.02  0.  0.
   304  3.03  0.  0.
   305  3.04  0.  0.
   306  3.05  0.  0.
   307  3.06  0.  0.
   308  3.07  0.  0.
   309  3.08  0.  0.
   310  3.09  0.  0.
   311  3.10  0.  0.
   312  3.11  0.  0.
   313  3.12  0.  0.
   314  3.13  0.  0.
   315  3.14  0.  0.
   316  3.15  0.  0.
   317  3.16  0.  0.
   318  3.17  0.  0.
   319  3.18  0.  0.
   320  3.19  0.  0.
   321  3.20  0.  0.
   322  3.21  0.  0.
   323  3.22  0.  0.
   324  3.23  0.  0.
   325  3.24  0.  0.
   326  3.25  0.  0.
   327  3.26  0.  0.
   328  3.27  0.  0.
   329  3.28  0.  0.
   330  3.29  0.  0.
   331  3.30  0.  0.
   332  3.31  0.  0.
   333  3.32  0.  0.
   334  3.33  0.  0.
   335  3.34  0.  0.
   336  3.35  0.  0.
   337  3.36  0.  0.
   338  3.37  0.  0.
   339  3.38  0.  0.
   340  3.39  0.  0.
   341  3.40  0.  0.
   342  3.41  0.  0.
   343  3.42  0.  0.
   344  3.43  0.  0.
   345  3.44  0.  0.
   346  3.45  0.  0.
   347  3.46  0.  0.
   348  3.47  0.  0.
   349  3.48  0.  0.
   350  3.49  0.  0.
   351  3.50  0.  0.
   352  3.51  0.  0.
   353  3.52  0.  0.
   354  3.53  0.  0.
   355  3.54  0.  0.
   356  3.55  0.  0.
   357  3.56  0.  0.
   358  3.57  0.  0.
   359  3.58  0.  0.
   360  3.59  0.  0.
   361  3.60  0.  0.
   362  3.61  0.  0.
   363  3.62  0.  0.
   364  3.63  0.  0.
   365  3.64  0.  0.
   366  3.65  0.  0.
   367  3.66  0.  0.
   368  3.67  0.  0.
   369  3.68  0.  0.
   370  3.69  0.  0.
   371  3.70  0.  0.
   372  3.71  0.  0.
   373  3.72  0.  0.
   374  3.73  0.  0.
   375  3.74  0.  0.
   376  3.75  0.  0.
   377  3.76  0.  0.
   378  3.77  0.  0.
   379  3.78  0.  0.
   380  3.79  0.  0.
   381  3.80  0.  0.
   382  3.81  0.  0.
   383  3.82  0.  0.
   384  3.83  0.  0.
   385  3.84  0.  0.
   386  3.85  0.  0.
   387  3.86  0.  0.
   388  3.87  0.  0.
   389  3.88  0.  0.
   390  3.89  0.  0.
   391  3.90  0.  0.
   392  3.91  0.  0.
   393  3.92  0.  0.
   394  3.93  0.  0.
   395  3.94  0.  0.
   396  3.95  0.  0.
   397  3.96  0.  0.
   398  3.97  0.  0.
   399  3.98  0.  0.
   400  3.99  0.  0.
   401  4.00  0.  0.
   402  4.01  0.  0.
   403  4.02  0.  0.
   404  4.03  0.  0.
   405  4.04  0.  0.
   406  4.05  0.  0.
   407  4.06  0.  0.
   408  4.07  0.  0.
   409  4.08  0.  0.
   410  4.09  0.  0.
   411  4.10  0.  0.
   412  4.11  0.  0.
   413  4.12  0.  0.
   414  4.13  0.  0.
   415  4.14  0.  0.
   416  4.15  0.  0.
   417  4.16  0.  0.
   418  4.17  0.  0.
   419  4.18  0.  0.
   420  4.19  0.  0.
   421  4.20  0.  0.
   422  4.21  0.  0.
   423  4.22  0.  0.
   424  4.23  0.  0.
   425  4.24  0.  0.
   426  4.25  0.  0.
   427  4.26  0.  0.
   428  4.27  0.  0.
   429  4.28  0.  0.
   430  4.29  0.  0.
   431  4.30  0.  0.
   432  4.31  0.  0.
   433  4.32  0.  0.
   434  4.33  0.  0.
   435  4.34  0.  0.
   436  4.35  0.  0.
   437  4.36  0.  0.
   438  4.37  0.  0.
   439  4.38  0.  0.
   440  4.39  0.  0.
   441  4.40  0.  0.
   442  4.41  0.  0.
   443  4.42  0.  0.
   444  4.43  0.  0.
   445  4.44  0.  0.
   446  4.45  0.  0.
   447  4.46  0.  0.
   448  4.47  0.  0.
   449  4.48  0.  0.
   450  4.49  0.  0.
   451  4.50  0.  0.
   452  4.51  0.  0.
   453  4.52  0.  0.
   454  4.53  0.  0.
   455  4.54  0.  0.
   456  4.55  0.  0.
   457  4.56  0.  0.
   458  4.57  0.  0.
   459  4.58  0.  0.
   460  4.59  0.  0.
   461  4.60  0.  0.
   462  4.61  0.  0.
   463  4.62  0.  0.
   464  4.63  0.  0.
   465  4.64  0.  0.
   466  4.65  0.  0.
   467  4.66  0.  0.
   468  4.67  0.  0.
   469  4.68  0.  0.
   470  4.69  0.  0.
   471  4.70  0.  0.
   472  4.71  0.  0.
   473  4.72  0.  0.
   474  4.73  0.  0.
   475  4.74  0.  0.
   476  4.75  0.  0.
   477  4.76  0.  0.
   478  4.77  0.  0.
   479  4.78  0.  0.
   480  4.79  0.  0.
   481  4.80  0.  0.
   482  4.81  0.  0.
   483  4.82  0.  0.
   484  4.83  0.  0.
   485  4.84  0.  0.
   486  4.85  0.  0.
   487  4.86  0.  0.
   488  4.87  0.  0.
   489  4.88  0.  0.
   490  4.89  0.  0.
   491  4.90  0.  0.
   492  4.91  0.  0.
   493  4.92  0.  0.
   494  4.93  0.  0.
   495  4.94  0.  0.
   496  4.95  0.  0.
   497  4.96  0.  0.
   498  4.97  0.  0.
   499  4.98  0.  0.
   500  4.99  0.  0.
   1                         2.6992311428131E+00 -8.4532149312932E-01
     1  0.0000000000000E+00  3.6698669103608E-10 -1.4854308880152E-08
     2  1.0000000000000E-02  1.0309442656143E-03  1.0015549450229E-03
     3  2.0000000000000E-02  4.1215914845891E-03  4.0119409272179E-03
     4  3.0000000000000E-02  9.2653816075457E-03  9.0480000460544E-03
     5  4.0000000000000E-02  1.6451371380513E-02  1.6136737387877E-02
     6  5.0000000000000E-02  2.5664222400422E-02  2.5313747390563E-02
     7  6.0000000000000E-02  3.6884187903668E-02  3.6621062388923E-02
     8  7.0000000000000E-02  5.0087099843498E-02  5.0104477396200E-02
     9  8.0000000000000E-02  6.5244357444977E-02  6.5810420031314E-02
    10  9.0000000000000E-02  8.2322918091506E-02  8.3782447665858E-02
    11  1.0000000000000E-01  1.0128529110288E-01  1.0405746503719E-01
    12  1.1000000000000E-01  1.2208953471911E-01  1.2666176449588E-01
    13  1.2000000000000E-01  1.4468925641189E-01  1.5160699752440E-01
    14  1.3000000000000E-01  1.6903361651094E-01  1.7888619002405E-01
    15  1.4000000000000E-01  1.9506733505798E-01  2.0846991502692E-01
    16  1.5000000000000E-01  2.2273070178668E-01  2.4030273491644E-01
    17  1.6000000000000E-01  2.5195958917212E-01  2.7430002095776E-01
    18  1.7000000000000E-01  2.8268546859429E-01  3.1034525104051E-01
    19  1.8000000000000E-01  3.1483542981310E-01  3.4828787716134E-01
    20  1.9000000000000E-01  3.4833220415004E-01  3.8794184252774E-01
    21  2.0000000000000E-01  3.8309419200752E-01  4.2908481449742E-01
    22  2.1000000000000E-01  4.1903549562136E-01  4.7145818417558E-01
    23  2.2000000000000E-01  4.5606595822530E-01  5.1476786671381E-01
    24  2.3000000000000E-01  4.9409121109840E-01  5.5868591855505E-01
    25  2.4000000000000E-01  5.3301273025572E-01  6.0285296944061E-01
    26  2.5000000000000E-01  5.7272790481782E-01  6.4688144834706E-01
    27  2.6000000000000E-01  6.1313011934536E-01  6.9035956406208E-01
    28  2.7000000000000E-01  6.5410885263934E-01  7.3285598325578E-01
    29  2.8000000000000E-01  6.9554979567595E-01  7.7392513205317E-01
    30  2.9000000000000E-01  7.3733499145768E-01  8.1311303164900E-01
    31  3.0000000000000E-01  7.7934299961150E-01  8.4996356477759E-01
    32  3.1000000000000E-01  8.2144908854369E-01  8.8402505817860E-01
    33  3.2000000000000E-01  8.6352545786305E-01  9.1485705685630E-01
    34  3.3000000000000E-01  9.0544149360837E-01  9.4203715914501E-01
    35  3.4000000000000E-01  9.4706405855744E-01  9.6516777753790E-01
    36  3.5000000000000E-01  9.8825781955707E-01  9.8388268902821E-01
    37  3.6000000000000E-01  1.0288856133955E+00  9.9785324040651E-01
    38  3.7000000000000E-01  1.0688088522476E+00  1.0067940785506E+00
    39  3.8000000000000E-01  1.1078879691625E+00  1.0104682831683E+00
    40  3.9000000000000E-01  1.1459829034430E+00  1.0086917895831E+00
    41  4.0000000000000E-01  1.1829536250955E+00  1.0013370017971E+00
    42  4.1000000000000E-01  1.2186606968174E+00  9.8833551099688E-01
    43  4.2000000000000E-01  1.2529658712536E+00  9.6967985157706E-01
    44  4.3000000000000E-01  1.2857327205005E+00  9.4542424533263E-01
    45  4.4000000000000E-01  1.3168272940909E+00  9.1568430431989E-01
    46  4.5000000000000E-01  1.3461188009578E+00  8.8063568362236E-01
    47  4.6000000000000E-01  1.3734803101768E+00  8.4051169644887E-01
    48  4.7000000000000E-01  1.3987894646347E+00  7.9559992520134E-01
    49  4.8000000000000E-01  1.4219292011812E+00  7.4623788293883E-01
    50  4.9000000000000E-01  1.4427884703082E+00  6.9280779959120E-01
    51  5.0000000000000E-01  1.4612629479760E+00  6.3573062592032E-01
    52  5.1000000000000E-01  1.4772557318883E+00  5.7545936518275E-01
    53  5.2000000000000E-01  1.4906780143038E+00  5.1247185734801E-01
    54  5.3000000000000E-01  1.5014497233883E+00  4.4726315323482E-01
    55  5.4000000000000E-01  1.5095001251463E+00  3.8033762575986E-01
    56  5.5000000000000E-01  1.5147683781425E+00  3.1220097241141E-01
    57  5.6000000000000E-01  1.5172040335276E+00  2.4335226688825E-01
    58  5.7000000000000E-01  1.5167674733144E+00  1.7427621846397E-01
    59  5.8000000000000E-01  1.5134302804177E+00  1.0543579499580E-01
    60  5.9000000000000E-01  1.5071755346562E+00  3.7265359609543E-02
    61  6.0000000000000E-01  1.4979980297176E+00 -2.9835537962906E-02
    62  6.1000000000000E-01  1.4859044069942E+00 -9.5507586494013E-02
    63  6.2000000000000E-01  1.4709132031915E+00 -1.5943624081022E-01
    64  6.3000000000000E-01  1.4530548096891E+00 -2.2135525520813E-01
    65  6.4000000000000E-01  1.4323713427612E+00 -2.8104914582171E-01
    66  6.5000000000000E-01  1.4089164249429E+00 -3.3835452653301E-01
    67  6.6000000000000E-01  1.3827548790175E+00 -3.9316028595998E-01
    68  6.7000000000000E-01  1.3539623373025E+00 -4.4540659698311E-01
    69  6.8000000000000E-01  1.3226247700828E+00 -4.9508277470853E-01
    70  6.9000000000000E-01  1.2888379381786E+00 -5.4222402322163E-01
    71  7.0000000000000E-01  1.2527067757079E+00 -5.8690713545973E-01
    72  7.1000000000000E-01  1.2143447100949E+00 -6.2924523352923E-01
    73  7.2000000000000E-01  1.1738729272702E+00 -6.6938165832940E-01
    74  7.3000000000000E-01  1.1314195907776E+00 -7.0748313696066E-01
    75  7.4000000000000E-01  1.0871190241475E+00 -7.4373237365881E-01
    76  7.5000000000000E-01  1.0411108663831E+00 -7.7832022452252E-01
    77  7.6000000000000E-01  9.9353921074540E-01 -8.1143762775045E-01
    78  7.7000000000000E-01  9.4455173718631E-01 -8.4326746919266E-01
    79  7.8000000000000E-01  8.9429884877556E-01 -8.7397656753401E-01
    80  7.9000000000000E-01  8.4293282228783E-01 -9.0370796420963E-01
    81  8.0000000000000E-01  7.9060698276277E-01 -9.3257370013128E-01
    82  8.1000000000000E-01  7.3747491132802E-01 -9.6064825447258E-01
    83  8.2000000000000E-01  6.8368969489021E-01 -9.8796281019532E-01
    84  8.3000000000000E-01  6.2940322546192E-01 -1.0145004968483E+00
    85  8.4000000000000E-01  5.7476555591748E-01 -1.0401927436577E+00
    86  8.5000000000000E-01  5.1992431787266E-01 -1.0649168553457E+00
    87  8.6000000000000E-01  4.6502420618305E-01 -1.0884948998300E+00
    88  8.7000000000000E-01  4.1020653327279E-01 -1.1106939713782E+00
    89  8.8000000000000E-01  3.5560885516326E-01 -1.1312278654093E+00
    90  8.9000000000000E-01  3.0136466969459E-01 -1.1497601724456E+00
    91  9.0000000000000E-01  2.4760318604638E-01 -1.1659087692934E+00
    92  9.1000000000000E-01  1.9444916329509E-01 -1.1792516559316E+00
    93  9.2000000000000E-01  1.4202281441871E-01 -1.1893340574096E+00
    94  9.3000000000000E-01  9.0439770902058E-02 -1.1956766818884E+00
    95  9.4000000000000E-01  3.9811101931504E-02 -1.1977849993796E+00
    96  9.5000000000000E-01 -9.7566188785371E-03 -1.1951593813103E+00
    97  9.6000000000000E-01 -5.8161207193878E-02 -1.1873059192843E+00
    98  9.7000000000000E-01 -1.0530473082039E-01 -1.1737477228133E+00
    99  9.8000000000000E-01 -1.5109335100817E-01 -1.1540364807716E+00
   100  9.9000000000000E-01 -1.9543715188094E-01 -1.1277640602612E+00
   101  1.0000000000000E+00 -2.3824996786193E-01 -1.0945739097338E+00
   102  1.0100000000000E+00 -2.7944921895318E-01 -1.0541720308358E+00
   103  1.0200000000000E+00 -3.1895576350426E-01 -1.0063372856338E+00
   104  1.0300000000000E+00 -3.5669377768058E-01 -9.5093081268207E-01
   105  1.0400000000000E+00 -3.9259067021496E-01 -8.8790433677174E-01
   106  1.0500000000000E+00 -4.2657704020940E-01 -8.1730717300963E-01
   107  1.0600000000000E+00 -4.5858668476160E-01 -7.3929174583701E-01
   108  1.0700000000000E+00 -4.8855666203528E-01 -6.5411746750488E-01
   109  1.0800000000000E+00 -5.1642741410150E-01 -5.6215284782817E-01
   110  1.0900000000000E+00 -5.4214295246787E-01 -4.6387573739489E-01
   111  1.1000000000000E+00 -5.6565110771212E-01 -3.5987163922515E-01
   112  1.1100000000000E+00 -5.8690384307713E-01 -2.5083005848046E-01
   113  1.1200000000000E+00 -6.0585763028730E-01 -1.3753889579057E-01
   114  1.1300000000000E+00 -6.2247388425768E-01 -2.0876926056226E-02
   115  1.1400000000000E+00 -6.3671945179801E-01  9.8195559015191E-02
   116  1.1500000000000E+00 -6.4856714792087E-01  2.1864783116468E-01
   117  1.1600000000000E+00 -6.5799633194962E-01  3.3939138117502E-01
   118  1.1700000000000E+00 -6.6499351434605E-01  4.5929397094688E-01
   119  1.1800000000000E+00 -6.6955298403972E-01  5.7719487440753E-01
   120  1.1900000000000E+00 -6.7167744509082E-01  6.9192107454013E-01
   121  1.2000000000000E+00 -6.7137865075893E-01  8.0230416263449E-01
   122  1.2100000000000E+00 -6.6867802251307E-01  9.0719766926439E-01
   123  1.2200000000000E+00 -6.6360724121173E-01  1.0054945447717E+00
   124  1.2300000000000E+00 -6.5620879761930E-01  1.0961445004869E+00
   125  1.2400000000000E+00 -6.4653648961114E-01  1.1781709207703E+00
   126  1.2500000000000E+00 -6.3465585385702E-01  1.2506870602793E+00
   127  1.2600000000000E+00 -6.2064452045909E-01  1.3129112507137E+00
   128  1.2700000000000E+00 -6.0459247993879E-01  1.3641808563608E+00
   129  1.2800000000000E+00 -5.8660225312254E-01  1.4039647381536E+00
   130  1.2900000000000E+00 -5.6678895583155E-01  1.4318740110472E+00
   131  1.3000000000000E+00 -5.4528025182031E-01  1.4476709088850E+00
   132  1.3100000000000E+00 -5.2221618911997E-01  1.4512756044584E+00
   133  1.3200000000000E+00 -4.9774891677553E-01  1.4427708690193E+00
   134  1.3300000000000E+00 -4.7204228089613E-01  1.4224044946998E+00
   135  1.3400000000000E+00 -4.4527130094084E-01  1.3905894445118E+00
   136  1.3500000000000E+00 -4.1762152918691E-01  1.3479017368398E+00
   137  1.3600000000000E+00 -3.8928829834385E-01  1.2950761139522E+00
   138  1.3700000000000E+00 -3.6047586423989E-01  1.2329995860303E+00
   139  1.3800000000000E+00 -3.3139645239730E-01  1.1627029832165E+00
   140  1.3900000000000E+00 -3.0226921982792E-01  1.0853506920985E+00
   141  1.4000000000000E+00 -2.7331912916905E-01  1.0022286809036E+00
   142  1.4100000000000E+00 -2.4477583624111E-01  9.1473164448155E-01
   143  1.4200000000000E+00 -2.1687078142822E-01  8.2433711700526E-01
   144  1.4300000000000E+00 -1.8983044567165E-01  7.3255126338173E-01
   145  1.4400000000000E+00 -1.6387264666226E-01  6.4087199508240E-01
   146  1.4500000000000E+00 -1.3920555415044E-01  5.5076951609394E-01
   147  1.4600000000000E+00 -1.1602666165513E-01  4.6366637017893E-01
   148  1.4700000000000E+00 -9.4521748159671E-02  3.8091843506535E-01
   149  1.4800000000000E+00 -7.4864312812007E-02  3.0379456050985E-01
   150  1.4900000000000E+00 -5.7219139351838E-02  2.3343011435388E-01
   151  1.5000000000000E+00 -4.1732101363040E-02  1.7086402620987E-01
   152  1.5100000000000E+00 -2.8529350535133E-02  1.1703265262371E-01
   153  1.5200000000000E+00 -1.7723056742802E-02  7.2721721817415E-02
   154  1.5300000000000E+00 -9.4111890700938E-03  3.8561991933769E-02
   155  1.5400000000000E+00 -3.6631022596560E-03  1.4964008717205E-02
   156  1.5500000000000E+00 -6.0986506109678E-04  2.4794196249169E-03
   157  1.5600000000000E+00  5.7784766206604E-05 -2.3411779139539E-04
   158  1.5700000000000E+00 -1.7451212709869E-05  7.0857062903691E-05
   159  1.58  0. -0.
   160  1.59 -0.  0.
   161  1.60  0.  0.
   162  1.61  0.  0.
   163  1.62  0.  0.
   164  1.63  0.  0.
   165  1.64  0.  0.
   166  1.65  0.  0.
   167  1.66  0.  0.
   168  1.67  0.  0.
   169  1.68  0.  0.
   170  1.69  0.  0.
   171  1.70  0.  0.
   172  1.71  0.  0.
   173  1.72  0.  0.
   174  1.73  0.  0.
   175  1.74  0.  0.
   176  1.75  0.  0.
   177  1.76  0.  0.
   178  1.77  0.  0.
   179  1.78  0.  0.
   180  1.79  0.  0.
   181  1.80  0.  0.
   182  1.81  0.  0.
   183  1.82  0.  0.
   184  1.83  0.  0.
   185  1.84  0.  0.
   186  1.85  0.  0.
   187  1.86  0.  0.
   188  1.87  0.  0.
   189  1.88  0.  0.
   190  1.89  0.  0.
   191  1.90  0.  0.