P     ONCVPSP-4.0.1  r_core=   1.45503   1.55400   1.71009
     15.0000      5.0000      250217    zatom,zion,pspd
     8       2   2     4   600     0    pspcod,pspxc,lmax,lloc,mmax,r2well
  5.99000000  5.00000000  0.00000000    rchrg fchrg qchrg
     2     2     2     0    nproj
     3     1           extension_switch
     4     4     0    nprojso
   0                         6.7701609092442E+00  1.0134514500520E+00
     1  0.0000000000000E+00  5.4548248751285E-08 -1.2929170334353E-07
     2  1.0000000000000E-02  1.0161211307954E-02  5.4815777428829E-02
     3  2.0000000000000E-02  2.0973822741194E-02  1.0808626210294E-01
     4  3.0000000000000E-02  3.3070178441753E-02  1.5831059295996E-01
     5  4.0000000000000E-02  4.7045042192398E-02  2.0407552096080E-01
     6  5.0000000000000E-02  6.3438121642898E-02  2.4409612134547E-01
     7  6.0000000000000E-02  8.2718129305586E-02  2.7725288945008E-01
     8  7.0000000000000E-02  1.0526882622558E-01  3.0262417190930E-01
     9  8.0000000000000E-02  1.3137743968277E-01  3.1951301436044E-01
    10  9.0000000000000E-02  1.6122578092867E-01  3.2746766163122E-01
    11  1.0000000000000E-01  1.9488431457697E-01  3.2629512260262E-01
    12  1.1000000000000E-01  2.3230934987367E-01  3.1606740467501E-01
    13  1.2000000000000E-01  2.7334343788538E-01  2.9712022675505E-01
    14  1.3000000000000E-01  3.1771897000987E-01  2.7004422933713E-01
    15  1.4000000000000E-01  3.6506488454682E-01  2.3566890982302E-01
    16  1.5000000000000E-01  4.1491630179170E-01  1.9503971495144E-01
    17  1.6000000000000E-01  4.6672682658992E-01  1.4938891448309E-01
    18  1.7000000000000E-01  5.1988318274987E-01  1.0010105579874E-01
    19  1.8000000000000E-01  5.7372177821094E-01  4.8673952953724E-02
    20  1.9000000000000E-01  6.2754674520770E-01 -3.3237082944276E-03
    21  2.0000000000000E-01  6.8064895738302E-01 -5.4296969498422E-02
    22  2.1000000000000E-01  7.3232549707048E-01 -1.0267015641588E-01
    23  2.2000000000000E-01  7.8189903161308E-01 -1.4693211568210E-01
    24  2.3000000000000E-01  8.2873655804846E-01 -1.8567985643208E-01
    25  2.4000000000000E-01  8.7226699080588E-01 -2.1765936058132E-01
    26  2.5000000000000E-01  9.1199709686165E-01 -2.4180239835879E-01
    27  2.6000000000000E-01  9.4752532632733E-01 -2.5725829105522E-01
    28  2.7000000000000E-01  9.7855314256424E-01 -2.6341969805879E-01
    29  2.8000000000000E-01  1.0048935231502E+00 -2.5994166652669E-01
    30  2.9000000000000E-01  1.0264763795823E+00 -2.4675336519093E-01
    31  3.0000000000000E-01  1.0433507274417E+00 -2.2406212390732E-01
    32  3.1000000000000E-01  1.0556835276138E+00 -1.9234961223840E-01
    33  3.2000000000000E-01  1.0637552106707E+00 -1.5236020787746E-01
    34  3.3000000000000E-01  1.0679519881792E+00 -1.0508182315578E-01
    35  3.4000000000000E-01  1.0687551440340E+00 -5.1719669281230E-02
    36  3.5000000000000E-01  1.0667275834662E+00  6.3363624791991E-03
    37  3.6000000000000E-01  1.0624979948308E+00  6.7549841260591E-02
    38  3.7000000000000E-01  1.0567430474889E+00  1.3028043753726E-01
    39  3.8000000000000E-01  1.0501681061647E+00  1.9282991056076E-01
    40  3.9000000000000E-01  1.0434869864573E+00  2.5349018625825E-01
    41  4.0000000000000E-01  1.0374013064565E+00  3.1059220121633E-01
    42  4.1000000000000E-01  1.0325800047279E+00  3.6255415586071E-01
    43  4.2000000000000E-01  1.0296395948029E+00  4.0792782438337E-01
    44  4.3000000000000E-01  1.0291257106292E+00  4.4544161050714E-01
    45  4.4000000000000E-01  1.0314964665330E+00  4.7403911595387E-01
    46  4.5000000000000E-01  1.0371081098497E+00  4.9291210065177E-01
    47  4.6000000000000E-01  1.0462033856298E+00  5.0152685749465E-01
    48  4.7000000000000E-01  1.0589029622045E+00  4.9964319619299E-01
    49  4.8000000000000E-01  1.0752001857389E+00  4.8732542599721E-01
    50  4.9000000000000E-01  1.0949593433035E+00  4.6494494072458E-01
    51  5.0000000000000E-01  1.1179175197933E+00  4.3317423594820E-01
    52  5.1000000000000E-01  1.1436900367182E+00  3.9297242138870E-01
    53  5.2000000000000E-01  1.1717793630680E+00  3.4556252523941E-01
    54  5.3000000000000E-01  1.2015872927594E+00  2.9240111504572E-01
    55  5.4000000000000E-01  1.2324300921831E+00  2.3514097564833E-01
    56  5.5000000000000E-01  1.2635562375742E+00  1.7558778265800E-01
    57  5.6000000000000E-01  1.2941662876346E+00  1.1565188446810E-01
    58  5.7000000000000E-01  1.3234343741134E+00  5.7296452013212E-02
    59  5.8000000000000E-01  1.3505307436782E+00  2.4833691626839E-03
    60  5.9000000000000E-01  1.3746447498206E+00 -4.6881685562940E-02
    61  6.0000000000000E-01  1.3950076747820E+00 -8.9003475769105E-02
    62  6.1000000000000E-01  1.4109147592010E+00 -1.2224927250522E-01
    63  6.2000000000000E-01  1.4217458315723E+00 -1.4519729850108E-01
    64  6.3000000000000E-01  1.4269839604290E+00 -1.5668018143577E-01
    65  6.4000000000000E-01  1.4262315987417E+00 -1.5582216375048E-01
    66  6.5000000000000E-01  1.4192237512636E+00 -1.4206896880622E-01
    67  6.6000000000000E-01  1.4058377699412E+00 -1.1520940665112E-01
    68  6.7000000000000E-01  1.3860994682028E+00 -7.5388012727099E-02
    69  6.8000000000000E-01  1.3601853397444E+00 -2.3108244179410E-02
    70  6.9000000000000E-01  1.3284207689334E+00  4.0773994900469E-02
    71  7.0000000000000E-01  1.2912742255117E+00  1.1506647235209E-01
    72  7.1000000000000E-01  1.2493475431347E+00  1.9826610614677E-01
    73  7.2000000000000E-01  1.2033624866305E+00  2.8859326381138E-01
    74  7.3000000000000E-01  1.1541439138945E+00  3.8403410298974E-01
    75  7.4000000000000E-01  1.1025999323388E+00  4.8238994890385E-01
    76  7.5000000000000E-01  1.0496995342656E+00  5.8133250423786E-01
    77  7.6000000000000E-01  9.9644826808966E-01  6.7846351620388E-01
    78  7.7000000000000E-01  9.4386256099579E-01  7.7137738904212E-01
    79  7.8000000000000E-01  8.9294335170112E-01  8.5772513190641E-01
    80  7.9000000000000E-01  8.4464971822286E-01  9.3527797498586E-01
    81  8.0000000000000E-01  7.9987319408256E-01  1.0019889727252E+00
    82  8.1000000000000E-01  7.5941345682044E-01  1.0560509429541E+00
    83  8.2000000000000E-01  7.2395604512573E-01  1.0959491642879E+00
    84  8.3000000000000E-01  6.9405271586718E-01  1.1205073698475E+00
    85  8.4000000000000E-01  6.7010499083832E-01  1.1289257305823E+00
    86  8.5000000000000E-01  6.5235136657367E-01  1.1208097126186E+00
    87  8.6000000000000E-01  6.4085857099134E-01  1.0961889154924E+00
    88  8.7000000000000E-01  6.3551715008927E-01  1.0555252463894E+00
    89  8.8000000000000E-01  6.3604155897959E-01  9.9971005341131E-01
    90  8.9000000000000E-01  6.4197481693925E-01  9.3005012167990E-01
    91  9.0000000000000E-01  6.5269766881378E-01  8.4824272259133E-01
    92  9.1000000000000E-01  6.6744207804287E-01  7.5634019142812E-01
    93  9.2000000000000E-01  6.8530876282211E-01  6.5670478439952E-01
    94  9.3000000000000E-01  7.0528837944648E-01  5.5195482581375E-01
    95  9.4000000000000E-01  7.2628585852790E-01  4.4490339262608E-01
    96  9.5000000000000E-01  7.4714731316274E-01  3.3849099073242E-01
    97  9.6000000000000E-01  7.6668886558244E-01  2.3571384946569E-01
    98  9.7000000000000E-01  7.8372668234546E-01  1.3954959303723E-01
    99  9.8000000000000E-01  7.9710746929510E-01  5.2882136407737E-02
   100  9.9000000000000E-01  8.0573865749681E-01 -2.1572304489263E-02
   101  1.0000000000000E+00  8.0861751082716E-01 -8.1336203576093E-02
   102  1.0100000000000E+00  8.0485840497922E-01 -1.2423688528052E-01
   103  1.0200000000000E+00  7.9371756609803E-01 -1.4846612438271E-01
   104  1.0300000000000E+00  7.7461461420662E-01 -1.5263160005267E-01
   105  1.0400000000000E+00  7.4715033063792E-01 -1.3579880619146E-01
   106  1.0500000000000E+00  7.1112015833567E-01 -9.7522245006146E-02
   107  1.0600000000000E+00  6.6652304664908E-01 -3.7864987084652E-02
   108  1.0700000000000E+00  6.1356536577481E-01  4.2594036715105E-02
   109  1.0800000000000E+00  5.5265973765792E-01  1.4276534501801E-01
   110  1.0900000000000E+00  4.8441875631399E-01  2.6106683933171E-01
   111  1.1000000000000E+00  4.0964369894350E-01  3.9545406691854E-01
   112  1.1100000000000E+00  3.2930845555878E-01  5.4346220866226E-01
   113  1.1200000000000E+00  2.4453902688372E-01  7.0225888852768E-01
   114  1.1300000000000E+00  1.5658905416434E-01  8.6870662309590E-01
   115  1.1400000000000E+00  6.6811947764841E-02  1.0394334783918E+00
   116  1.1500000000000E+00 -2.3369728924613E-02  1.2109102839759E+00
   117  1.1600000000000E+00 -1.1249688987981E-01  1.3795325763921E+00
   118  1.1700000000000E+00 -1.9910778476346E-01  1.5417053106088E+00
   119  1.1800000000000E+00 -2.8177226209002E-01  1.6939282923862E+00
   120  1.1900000000000E+00 -3.5912559786172E-01  1.8328802492945E+00
   121  1.2000000000000E+00 -4.2990105498241E-01  1.9554994746711E+00
   122  1.2100000000000E+00 -4.9296036411867E-01  2.0590590462786E+00
   123  1.2200000000000E+00 -5.4732136281795E-01  2.1412347400501E+00
   124  1.2300000000000E+00 -5.9218209476554E-01  2.2001639243605E+00
   125  1.2400000000000E+00 -6.2694075409087E-01  2.2344939293374E+00
   126  1.2500000000000E+00 -6.5121095876949E-01  2.2434186341766E+00
   127  1.2600000000000E+00 -6.6483194890695E-01  2.2267022945547E+00
   128  1.2700000000000E+00 -6.6787342896735E-01  2.1846899394011E+00
   129  1.2800000000000E+00 -6.6063490346744E-01  2.1183039907013E+00
   130  1.2900000000000E+00 -6.4363949003331E-01  2.0290270936068E+00
   131  1.3000000000000E+00 -6.1762233009281E-01  1.9188714821897E+00
   132  1.3100000000000E+00 -5.8351385068504E-01  1.7903355359483E+00
   133  1.3200000000000E+00 -5.4241825836436E-01  1.6463484973894E+00
   134  1.3300000000000E+00 -4.9558776512551E-01  1.4902046147109E+00
   135  1.3400000000000E+00 -4.4439315299525E-01  1.3254882367200E+00
   136  1.3500000000000E+00 -3.9029137597801E-01  1.1559916136424E+00
   137  1.3600000000000E+00 -3.3479097479429E-01  9.8562734473376E-01
   138  1.3700000000000E+00 -2.7941611926865E-01  8.1833752085282E-01
   139  1.3800000000000E+00 -2.2567020162379E-01  6.5800182710389E-01
   140  1.3900000000000E+00 -1.7499749009192E-01  5.0834254786036E-01
   141  1.4000000000000E+00 -1.2875039969677E-01  3.7284087722614E-01
   142  1.4100000000000E+00 -8.8163722080264E-02  2.5466694493909E-01
   143  1.4200000000000E+00 -5.4316422305494E-02  1.5658943412767E-01
   144  1.4300000000000E+00 -2.8108078090355E-02  8.0916912365723E-02
   145  1.4400000000000E+00 -1.0194515574877E-02  2.9320514064979E-02
   146  1.4500000000000E+00 -1.2916802165870E-03  3.7132132489299E-03
   147  1.4600000000000E+00  1.4565331765952E-04 -4.1861576598217E-04
   148  1.4700000000000E+00 -3.6817315993012E-05  1.0581848833528E-04
   149  1.48  0.  0.
   150  1.49  0.  0.
   151  1.50  0.  0.
   152  1.51  0.  0.
   153  1.52  0.  0.
   154  1.53  0.  0.
   155  1.54  0.  0.
   156  1.55  0.  0.
   157  1.56  0.  0.
   158  1.57  0.  0.
   159  1.58  0.  0.
   160  1.59  0.  0.
   161  1.60  0.  0.
   162  1.61  0.  0.
   163  1.62  0.  0.
   164  1.63  0.  0.
   165  1.64  0.  0.
   166  1.65  0.  0.
   167  1.66  0.  0.
   168  1.67  0.  0.
   169  1.68  0.  0.
   170  1.69  0.  0.
   171  1.70  0.  0.
   172  1.71  0.  0.
   173  1.72  0.  0.
   174  1.73  0.  0.
   175  1.74  0.  0.
   176  1.75  0.  0.
   177  1.76  0.  0.
   178  1.77  0.  0.
   179  1.78  0.  0.
   180  1.79  0.  0.
   181  1.80  0.  0.
   182  1.81  0.  0.
   183  1.82  0.  0.
   184  1.83  0.  0.
   185  1.84  0.  0.
   186  1.85  0.  0.
   187  1.86  0.  0.
   188  1.87  0.  0.
   189  1.88  0.  0.
   190  1.89  0.  0.
   191  1.90  0.  0.
   192  1.91  0.  0.
   193  1.92  0.  0.
   194  1.93  0.  0.
   195  1.94  0.  0.
   196  1.95  0.  0.
   197  1.96  0.  0.
   198  1.97  0.  0.
   199  1.98  0.  0.
   200  1.99  0.  0.
   201  2.00  0.  0.
   202  2.01  0.  0.
   203  2.02  0.  0.
   204  2.03  0.  0.
   205  2.04  0.  0.
   206  2.05  0.  0.
   207  2.06  0.  0.
   208  2.07  0.  0.
   209  2.08  0.  0.
   210  2.09  0.  0.
   211  2.10  0.  0.
   212  2.11  0.  0.
   213  2.12  0.  0.
   214  2.13  0.  0.
   215  2.14  0.  0.
   216  2.15  0.  0.
   217  2.16  0.  0.
   218  2.17  0.  0.
   219  2.18  0.  0.
   220  2.19  0.  0.
   221  2.20  0.  0.
   222  2.21  0.  0.
   223  2.22  0.  0.
   224  2.23  0.  0.
   225  2.24  0.  0.
   226  2.25  0.  0.
   227  2.26  0.  0.
   228  2.27  0.  0.
   229  2.28  0.  0.
   230  2.29  0.  0.
   231  2.30  0.  0.
   232  2.31  0.  0.
   233  2.32  0.  0.
   234  2.33  0.  0.
   235  2.34  0.  0.
   236  2.35  0.  0.
   237  2.36  0.  0.
   238  2.37  0.  0.
   239  2.38  0.  0.
   240  2.39  0.  0.
   241  2.40  0.  0.
   242  2.41  0.  0.
   243  2.42  0.  0.
   244  2.43  0.  0.
   245  2.44  0.  0.
   246  2.45  0.  0.
   247  2.46  0.  0.
   248  2.47  0.  0.
   249  2.48  0.  0.
   250  2.49  0.  0.
   251  2.50  0.  0.
   252  2.51  0.  0.
   253  2.52  0.  0.
   254  2.53  0.  0.
   255  2.54  0.  0.
   256  2.55  0.  0.
   257  2.56  0.  0.
   258  2.57  0.  0.
   259  2.58  0.  0.
   260  2.59  0.  0.
   261  2.60  0.  0.
   262  2.61  0.  0.
   263  2.62  0.  0.
   264  2.63  0.  0.
   265  2.64  0.  0.
   266  2.65  0.  0.
   267  2.66  0.  0.
   268  2.67  0.  0.
   269  2.68  0.  0.
   270  2.69  0.  0.
   271  2.70  0.  0.
   272  2.71  0.  0.
   273  2.72  0.  0.
   274  2.73  0.  0.
   275  2.74  0.  0.
   276  2.75  0.  0.
   277  2.76  0.  0.
   278  2.77  0.  0.
   279  2.78  0.  0.
   280  2.79  0.  0.
   281  2.80  0.  0.
   282  2.81  0.  0.
   283  2.82  0.  0.
   284  2.83  0.  0.
   285  2.84  0.  0.
   286  2.85  0.  0.
   287  2.86  0.  0.
   288  2.87  0.  0.
   289  2.88  0.  0.
   290  2.89  0.  0.
   291  2.90  0.  0.
   292  2.91  0.  0.
   293  2.92  0.  0.
   294  2.93  0.  0.
   295  2.94  0.  0.
   296  2.95  0.  0.
   297  2.96  0.  0.
   298  2.97  0.  0.
   299  2.98  0.  0.
   300  2.99  0.  0.
   301  3.00  0.  0.
   302  3.01  0.  0.
   303  3.02  0.  0.
   304  3.03  0.  0.
   305  3.04  0.  0.
   306  3.05  0.  0.
   307  3.06  0.  0.
   308  3.07  0.  0.
   309  3.08  0.  0.
   310  3.09  0.  0.
   311  3.10  0.  0.
   312  3.11  0.  0.
   313  3.12  0.  0.
   314  3.13  0.  0.
   315  3.14  0.  0.
   316  3.15  0.  0.
   317  3.16  0.  0.
   318  3.17  0.  0.
   319  3.18  0.  0.
   320  3.19  0.  0.
   321  3.20  0.  0.
   322  3.21  0.  0.
   323  3.22  0.  0.
   324  3.23  0.  0.
   325  3.24  0.  0.
   326  3.25  0.  0.
   327  3.26  0.  0.
   328  3.27  0.  0.
   329  3.28  0.  0.
   330  3.29  0.  0.
   331  3.30  0.  0.
   332  3.31  0.  0.
   333  3.32  0.  0.
   334  3.33  0.  0.
   335  3.34  0.  0.
   336  3.35  0.  0.
   337  3.36  0.  0.
   338  3.37  0.  0.
   339  3.38  0.  0.
   340  3.39  0.  0.
   341  3.40  0.  0.
   342  3.41  0.  0.
   343  3.42  0.  0.
   344  3.43  0.  0.
   345  3.44  0.  0.
   346  3.45  0.  0.
   347  3.46  0.  0.
   348  3.47  0.  0.
   349  3.48  0.  0.
   350  3.49  0.  0.
   351  3.50  0.  0.
   352  3.51  0.  0.
   353  3.52  0.  0.
   354  3.53  0.  0.
   355  3.54  0.  0.
   356  3.55  0.  0.
   357  3.56  0.  0.
   358  3.57  0.  0.
   359  3.58  0.  0.
   360  3.59  0.  0.
   361  3.60  0.  0.
   362  3.61  0.  0.
   363  3.62  0.  0.
   364  3.63  0.  0.
   365  3.64  0.  0.
   366  3.65  0.  0.
   367  3.66  0.  0.
   368  3.67  0.  0.
   369  3.68  0.  0.
   370  3.69  0.  0.
   371  3.70  0.  0.
   372  3.71  0.  0.
   373  3.72  0.  0.
   374  3.73  0.  0.
   375  3.74  0.  0.
   376  3.75  0.  0.
   377  3.76  0.  0.
   378  3.77  0.  0.
   379  3.78  0.  0.
   380  3.79  0.  0.
   381  3.80  0.  0.
   382  3.81  0.  0.
   383  3.82  0.  0.
   384  3.83  0.  0.
   385  3.84  0.  0.
   386  3.85  0.  0.
   387  3.86  0.  0.
   388  3.87  0.  0.
   389  3.88  0.  0.
   390  3.89  0.  0.
   391  3.90  0.  0.
   392  3.91  0.  0.
   393  3.92  0.  0.
   394  3.93  0.  0.
   395  3.94  0.  0.
   396  3.95  0.  0.
   397  3.96  0.  0.
   398  3.97  0.  0.
   399  3.98  0.  0.
   400  3.99  0.  0.
   401  4.00  0.  0.
   402  4.01  0.  0.
   403  4.02  0.  0.
   404  4.03  0.  0.
   405  4.04  0.  0.
   406  4.05  0.  0.
   407  4.06  0.  0.
   408  4.07  0.  0.
   409  4.08  0.  0.
   410  4.09  0.  0.
   411  4.10  0.  0.
   412  4.11  0.  0.
   413  4.12  0.  0.
   414  4.13  0.  0.
   415  4.14  0.  0.
   416  4.15  0.  0.
   417  4.16  0.  0.
   418  4.17  0.  0.
   419  4.18  0.  0.
   420  4.19  0.  0.
   421  4.20  0.  0.
   422  4.21  0.  0.
   423  4.22  0.  0.
   424  4.23  0.  0.
   425  4.24  0.  0.
   426  4.25  0.  0.
   427  4.26  0.  0.
   428  4.27  0.  0.
   429  4.28  0.  0.
   430  4.29  0.  0.
   431  4.30  0.  0.
   432  4.31  0.  0.
   433  4.32  0.  0.
   434  4.33  0.  0.
   435  4.34  0.  0.
   436  4.35  0.  0.
   437  4.36  0.  0.
   438  4.37  0.  0.
   439  4.38  0.  0.
   440  4.39  0.  0.
   441  4.40  0.  0.
   442  4.41  0.  0.
   443  4.42  0.  0.
   444  4.43  0.  0.
   445  4.44  0.  0.
   446  4.45  0.  0.
   447  4.46  0.  0.
   448  4.47  0.  0.
   449  4.48  0.  0.
   450  4.49  0.  0.
   451  4.50  0.  0.
   452  4.51  0.  0.
   453  4.52  0.  0.
   454  4.53  0.  0.
   455  4.54  0.  0.
   456  4.55  0.  0.
   457  4.56  0.  0.
   458  4.57  0.  0.
   459  4.58  0.  0.
   460  4.59  0.  0.
   461  4.60  0.  0.
   462  4.61  0.  0.
   463  4.62  0.  0.
   464  4.63  0.  0.
   465  4.64  0.  0.
   466  4.65  0.  0.
   467  4.66  0.  0.
   468  4.67  0.  0.
   469  4.68  0.  0.
   470  4.69  0.  0.
   471  4.70  0.  0.
   472  4.71  0.  0.
   473  4.72  0.  0.
   474  4.73  0.  0.
   475  4.74  0.  0.
   476  4.75  0.  0.
   477  4.76  0.  0.
   478  4.77  0.  0.
   479  4.78  0.  0.
   480  4.79  0.  0.
   481  4.80  0.  0.
   482  4.81  0.  0.
   483  4.82  0.  0.
   484  4.83  0.  0.
   485  4.84  0.  0.
   486  4.85  0.  0.
   487  4.86  0.  0.
   488  4.87  0.  0.
   489  4.88  0.  0.
   490  4.89  0.  0.
   491  4.90  0.  0.
   492  4.91  0.  0.
   493  4.92  0.  0.
   494  4.93  0.  0.
   495  4.94  0.  0.
   496  4.95  0.  0.
   497  4.96  0.  0.
   498  4.97  0.  0.
   499  4.98  0.  0.
   500  4.99  0.  0.
   501  5.00  0.  0.
   502  5.01  0.  0.
   503  5.02  0.  0.
   504  5.03  0.  0.
   505  5.04  0.  0.
   506  5.05  0.  0.
   507  5.06  0.  0.
   508  5.07  0.  0.
   509  5.08  0.  0.
   510  5.09  0.  0.
   511  5.10  0.  0.
   512  5.11  0.  0.
   513  5.12  0.  0.
   514  5.13  0.  0.
   515  5.14  0.  0.
   516  5.15  0.  0.
   517  5.16  0.  0.
   518  5.17  0.  0.
   519  5.18  0.  0.
   520  5.19  0.  0.
   521  5.20  0.  0.
   522  5.21  0.  0.
   523  5.22  0.  0.
   524  5.23  0.  0.
   525  5.24  0.  0.
   526  5.25  0.  0.
   527  5.26  0.  0.
   528  5.27  0.  0.
   529  5.28  0.  0.
   530  5.29  0.  0.
   531  5.30  0.  0.
   532  5.31  0.  0.
   533  5.32  0.  0.
   534  5.33  0.  0.
   535  5.34  0.  0.
   536  5.35  0.  0.
   537  5.36  0.  0.
   538  5.37  0.  0.
   539  5.38  0.  0.
   540  5.39  0.  0.
   541  5.40  0.  0.
   542  5.41  0.  0.
   543  5.42  0.  0.
   544  5.43  0.  0.
   545  5.44  0.  0.
   546  5.45  0.  0.
   547  5.46  0.  0.
   548  5.47  0.  0.
   549  5.48  0.  0.
   550  5.49  0.  0.
   551  5.50  0.  0.
   552  5.51  0.  0.
   553  5.52  0.  0.
   554  5.53  0.  0.
   555  5.54  0.  0.
   556  5.55  0.  0.
   557  5.56  0.  0.
   558  5.57  0.  0.
   559  5.58  0.  0.
   560  5.59  0.  0.
   561  5.60  0.  0.
   562  5.61  0.  0.
   563  5.62  0.  0.
   564  5.63  0.  0.
   565  5.64  0.  0.
   566  5.65  0.  0.
   567  5.66  0.  0.
   568  5.67  0.  0.
   569  5.68  0.  0.
   570  5.69  0.  0.
   571  5.70  0.  0.
   572  5.71  0.  0.
   573  5.72  0.  0.
   574  5.73  0.  0.
   575  5.74  0.  0.
   576  5.75  0.  0.
   577  5.76  0.  0.
   578  5.77  0.  0.
   579  5.78  0.  0.
   580  5.79  0.  0.
   581  5.80  0.  0.
   582  5.81  0.  0.
   583  5.82  0.  0.
   584  5.83  0.  0.
   585  5.84  0.  0.
   586  5.85  0.  0.
   587  5.86  0.  0.
   588  5.87  0.  0.
   589  5.88  0.  0.
   590  5.89  0.  0.
   591  5.90  0.  0.
   592  5.91  0.  0.
   593  5.92  0.  0.
   594  5.93  0.  0.
   595  5.94  0.  0.
   596  5.95  0.  0.
   597  5.96  0.  0.
   598  5.97  0.  0.
   599  5.98  0.  0.
   600  5.99  0.  0.
   1                         3.2171344118853E+00  8.0210335304769E-01
     1  0.0000000000000E+00 -1.0488521073881E-07  1.3329194839540E-07
     2  1.0000000000000E-02 -1.8055877704422E-03  3.0707786252252E-03
     3  2.0000000000000E-02 -7.1448988770504E-03  1.2184791562883E-02
     4  3.0000000000000E-02 -1.5787916862813E-02  2.7050028993983E-02
     5  4.0000000000000E-02 -2.7359014722856E-02  4.7189586228032E-02
     6  5.0000000000000E-02 -4.1348323708182E-02  7.1956036171346E-02
     7  6.0000000000000E-02 -5.7127192608105E-02  1.0055096916805E-01
     8  7.0000000000000E-02 -7.3967295731931E-02  1.3204913813159E-01
     9  8.0000000000000E-02 -9.1062842925203E-02  1.6542651359277E-01
    10  9.0000000000000E-02 -1.0755525526949E-01  1.9959143944166E-01
    11  1.0000000000000E-01 -1.2255959813809E-01  2.3341798894343E-01
    12  1.1000000000000E-01 -1.3519201104046E-01  2.6578055464681E-01
    13  1.2000000000000E-01 -1.4459734267430E-01  2.9558866697329E-01
    14  1.3000000000000E-01 -1.4997619072359E-01  3.2182102572288E-01
    15  1.4000000000000E-01 -1.5061055949541E-01  3.4355774682843E-01
    16  1.5000000000000E-01 -1.4588738416429E-01  3.6000987301568E-01
    17  1.6000000000000E-01 -1.3531922726818E-01  3.7054527038052E-01
    18  1.7000000000000E-01 -1.1856152966864E-01  3.7471013132944E-01
    19  1.8000000000000E-01 -9.5425892397616E-02  3.7224542519772E-01
    20  1.9000000000000E-01 -6.5888975123723E-02  3.6309777788757E-01
    21  2.0000000000000E-01 -3.0096718415721E-02  3.4742441724265E-01
    22  2.1000000000000E-01  1.1636272745788E-02  3.2559198734254E-01
    23  2.2000000000000E-01  5.8832211220016E-02  2.9816920788940E-01
    24  2.3000000000000E-01  1.1086036565072E-01  2.6591352959230E-01
    25  2.4000000000000E-01  1.6695180918713E-01  2.2975210809270E-01
    26  2.5000000000000E-01  2.2621830518727E-01  1.9075758273347E-01
    27  2.6000000000000E-01  2.8767483679070E-01  1.5011929776717E-01
    28  2.7000000000000E-01  3.5026518083144E-01  1.0911073815695E-01
    29  2.8000000000000E-01  4.1288983605594E-01  6.9054066112302E-02
    30  2.9000000000000E-01  4.7443554360577E-01  3.1282734632292E-02
    31  3.0000000000000E-01  5.3380558631781E-01 -2.8967820536188E-03
    32  3.1000000000000E-01  5.8995002413398E-01 -3.2243066096528E-02
    33  3.2000000000000E-01  6.4189501675125E-01 -5.5616561112690E-02
    34  3.3000000000000E-01  6.8877040190825E-01 -7.2014048641540E-02
    35  3.4000000000000E-01  7.2983473809142E-01 -8.0599793914546E-02
    36  3.5000000000000E-01  7.6449708301077E-01 -8.0732441212303E-02
    37  3.6000000000000E-01  7.9233486239602E-01 -7.1986847691023E-02
    38  3.7000000000000E-01  8.1310728537818E-01 -5.4170176656434E-02
    39  3.8000000000000E-01  8.2676388031225E-01 -2.7331723421936E-02
    40  3.9000000000000E-01  8.3344785527898E-01  8.2338848950540E-03
    41  4.0000000000000E-01  8.3349412722131E-01  5.1990294480743E-02
    42  4.1000000000000E-01  8.2742200899250E-01  1.0316982710909E-01
    43  4.2000000000000E-01  8.1592269060605E-01  1.6079048358324E-01
    44  4.3000000000000E-01  7.9984179569468E-01  2.2367916743151E-01
    45  4.4000000000000E-01  7.8015743265302E-01  2.9050057156027E-01
    46  4.5000000000000E-01  7.5795428833805E-01  3.5979100755145E-01
    47  4.6000000000000E-01  7.3439442695921E-01  4.2999631222926E-01
    48  4.7000000000000E-01  7.1068555467001E-01  4.9951284313251E-01
    49  4.8000000000000E-01  6.8804758856934E-01  5.6673047717880E-01
    50  4.9000000000000E-01  6.6767842503425E-01  6.3007645799466E-01
    51  5.0000000000000E-01  6.5071983480950E-01  6.8805889926951E-01
    52  5.1000000000000E-01  6.3822441997049E-01  7.3930874541633E-01
    53  5.2000000000000E-01  6.3112455030853E-01  7.8261901728596E-01
    54  5.3000000000000E-01  6.3020415408910E-01  8.1698022930878E-01
    55  5.4000000000000E-01  6.3607417140737E-01  8.4161095398174E-01
    56  5.5000000000000E-01  6.4915238906713E-01  8.5598262799389E-01
    57  5.6000000000000E-01  6.6964826621346E-01  8.5983783860680E-01
    58  5.7000000000000E-01  6.9755323259782E-01  8.5320149557227E-01
    59  5.8000000000000E-01  7.3263679958229E-01  8.3638447863774E-01
    60  5.9000000000000E-01  7.7444867144977E-01  8.0997954879443E-01
    61  6.0000000000000E-01  8.2232688525188E-01  7.7484951769262E-01
    62  6.1000000000000E-01  8.7541184548591E-01  7.3210787864427E-01
    63  6.2000000000000E-01  9.3266595964655E-01  6.8309230878578E-01
    64  6.3000000000000E-01  9.9289842644064E-01  6.2933164973629E-01
    65  6.4000000000000E-01  1.0547945843596E+00  5.7250715807949E-01
    66  6.5000000000000E-01  1.1169490983199E+00  5.1440898214805E-01
    67  6.6000000000000E-01  1.1779021498162E+00  4.5688896327985E-01
    68  6.7000000000000E-01  1.2361777046555E+00  4.0181097390350E-01
    69  6.8000000000000E-01  1.2903228645043E+00  3.5100008813331E-01
    70  6.9000000000000E-01  1.3389472662438E+00  3.0619193044510E-01
    71  7.0000000000000E-01  1.3807614778718E+00  2.6898356274472E-01
    72  7.1000000000000E-01  1.4146133521289E+00  2.4078724893193E-01
    73  7.2000000000000E-01  1.4395213391191E+00  2.2278837904050E-01
    74  7.3000000000000E-01  1.4547038261911E+00  2.1590874328655E-01
    75  7.4000000000000E-01  1.4596036657719E+00  2.2077622190680E-01
    76  7.5000000000000E-01  1.4539071675409E+00  2.3770180239110E-01
    77  7.6000000000000E-01  1.4375569675179E+00  2.6666465534626E-01
    78  7.7000000000000E-01  1.4107583399368E+00  3.0730579820431E-01
    79  7.8000000000000E-01  1.3739786843844E+00  3.5893065734161E-01
    80  7.9000000000000E-01  1.3279400963422E+00  4.2052060948426E-01
    81  8.0000000000000E-01  1.2736051094980E+00  4.9075334840711E-01
    82  8.1000000000000E-01  1.2121558783165E+00  5.6803168899104E-01
    83  8.2000000000000E-01  1.1449672446704E+00  6.5052019381300E-01
    84  8.3000000000000E-01  1.0735742982005E+00  7.3618879362598E-01
    85  8.4000000000000E-01  9.9963519206944E-01  8.2286237805943E-01
    86  8.5000000000000E-01  9.2489010978517E-01  9.0827516196190E-01
    87  8.6000000000000E-01  8.5111739111745E-01  9.9012849073120E-01
    88  8.7000000000000E-01  7.8008791265630E-01  1.0661506387742E+00
    89  8.8000000000000E-01  7.1351887872610E-01  1.1341570821265E+00
    90  8.9000000000000E-01  6.5302820931849E-01  1.1921096915596E+00
    91  9.0000000000000E-01  6.0009071232661E-01  1.2381732975474E+00
    92  9.1000000000000E-01  5.5599719731465E-01  1.2707681235943E+00
    93  9.2000000000000E-01  5.2181762778845E-01  1.2886166689274E+00
    94  9.3000000000000E-01  4.9836931968703E-01  1.2907837436961E+00
    95  9.4000000000000E-01  4.8619107758626E-01  1.2767085168916E+00
    96  9.5000000000000E-01  4.8552401960843E-01  1.2462276255298E+00
    97  9.6000000000000E-01  4.9629968061822E-01  1.1995886087728E+00
    98  9.7000000000000E-01  5.1813580494910E-01  1.1374531672821E+00
    99  9.8000000000000E-01  5.5034004892093E-01  1.0608900005442E+00
   100  9.9000000000000E-01  5.9192161471019E-01  9.7135723667755E-01
   101  1.0000000000000E+00  6.4161063560720E-01  8.7067473388394E-01
   102  1.0100000000000E+00  6.9788493358440E-01  7.6098679337245E-01
   103  1.0200000000000E+00  7.5900357832374E-01  6.4471607380171E-01
   104  1.0300000000000E+00  8.2304649763011E-01  5.2450973025063E-01
   105  1.0400000000000E+00  8.8795922707883E-01  4.0317901045749E-01
   106  1.0500000000000E+00  9.5160174589229E-01  2.8363372225347E-01
   107  1.0600000000000E+00  1.0118002306536E+00  1.6881313327867E-01
   108  1.0700000000000E+00  1.0664004712659E+00  6.1614973709027E-02
   109  1.0800000000000E+00  1.1133216372849E+00 -3.5175718658377E-02
   110  1.0900000000000E+00  1.1506090590286E+00 -1.1895614604223E-01
   111  1.1000000000000E+00  1.1764846976056E+00 -1.8737194471296E-01
   112  1.1100000000000E+00  1.1893940211838E+00 -2.3837834169291E-01
   113  1.1200000000000E+00  1.1880480807856E+00 -2.7029469602459E-01
   114  1.1300000000000E+00  1.1714596858342E+00 -2.8185099269828E-01
   115  1.1400000000000E+00  1.1389727152684E+00 -2.7222504091668E-01
   116  1.1500000000000E+00  1.0902837610585E+00 -2.4106934502121E-01
   117  1.1600000000000E+00  1.0254554835739E+00 -1.8852686098954E-01
   118  1.1700000000000E+00  9.4492125785492E-01 -1.1523511780670E-01
   119  1.1800000000000E+00  8.4948090214305E-01 -2.2318465490325E-02
   120  1.1900000000000E+00  7.4028749844117E-01  8.8631498584753E-02
   121  1.2000000000000E+00  6.1882553633094E-01  2.1558698025213E-01
   122  1.2100000000000E+00  4.8688082675117E-01  3.5612588663526E-01
   123  1.2200000000000E+00  3.4650284073873E-01  5.0748366798227E-01
   124  1.2300000000000E+00  1.9996031982911E-01  6.6661394768640E-01
   125  1.2400000000000E+00  4.9691177964683E-02  8.3025655823502E-01
   126  1.2500000000000E+00 -1.0175213621068E-01  9.9501140657993E-01
   127  1.2600000000000E+00 -2.5176052738489E-01  1.1574164364666E+00
   128  1.2700000000000E+00 -3.9772801249220E-01  1.3140278397256E+00
   129  1.2800000000000E+00 -5.3711191519228E-01  1.4615005986513E+00
   130  1.2900000000000E+00 -6.6749203952048E-01  1.5966674179513E+00
   131  1.3000000000000E+00 -7.8662738125795E-01  1.7166141289377E+00
   132  1.3100000000000E+00 -8.9250898643359E-01  1.8187497203788E+00
   133  1.3200000000000E+00 -9.8340765147094E-01  1.9008692674646E+00
   134  1.3300000000000E+00 -1.0579152777238E+00  1.9612081911271E+00
   135  1.3400000000000E+00 -1.1149788412659E+00  1.9984864801362E+00
   136  1.3500000000000E+00 -1.1539261134791E+00  2.0119417434879E+00
   137  1.3600000000000E+00 -1.1744824638260E+00  2.0013502234147E+00