P     ONCVPSP-4.0.1  r_core=   1.45503   1.55400   1.71009
     15.0000      5.0000      231019    zatom,zion,pspd
     8       2   2     4   600     0    pspcod,pspxc,lmax,lloc,mmax,r2well
  5.99000000  5.00000000  0.00000000    rchrg fchrg qchrg
     2     2     2     0     0    nproj
     1     1           extension_switch
   0                         6.7699055877441E+00  1.0129898485503E+00
     1  0.0000000000000E+00  5.4522617115582E-08 -1.2928922032973E-07
     2  1.0000000000000E-02  1.0179233574075E-02  5.4807066715606E-02
     3  2.0000000000000E-02  2.1009543090266E-02  1.0806884007850E-01
     4  3.0000000000000E-02  3.3122957419413E-02  1.5828445821349E-01
     5  4.0000000000000E-02  4.7113942647339E-02  2.0404067085700E-01
     6  5.0000000000000E-02  6.3521934470857E-02  2.4405255145106E-01
     7  6.0000000000000E-02  8.2815406641322E-02  2.7720059284934E-01
     8  7.0000000000000E-02  1.0537792115181E-01  3.0256313847325E-01
     9  8.0000000000000E-02  1.3149655134139E-01  3.1944323004502E-01
    10  9.0000000000000E-02  1.6135300376696E-01  3.2738910788777E-01
    11  1.0000000000000E-01  1.9501769034360E-01  3.2620777598821E-01
    12  1.1000000000000E-01  2.3244692090009E-01  3.1597123675032E-01
    13  1.2000000000000E-01  2.7348330014950E-01  2.9701520435425E-01
    14  1.3000000000000E-01  3.1785932448180E-01  2.6993031528630E-01
    15  1.4000000000000E-01  3.6520408536144E-01  2.3554606417240E-01
    16  1.5000000000000E-01  4.1505289987803E-01  1.9490789677179E-01
    17  1.6000000000000E-01  4.6685960751118E-01  1.4924808425828E-01
    18  1.7000000000000E-01  5.2001119766687E-01  9.9951178425979E-02
    19  1.8000000000000E-01  5.7384436707104E-01  4.8515001340039E-02
    20  1.9000000000000E-01  6.2766355147678E-01 -3.4917490748777E-03
    21  2.0000000000000E-01  6.8075993387299E-01 -5.4474097545973E-02
    22  2.1000000000000E-01  7.3243090266312E-01 -1.0285634793004E-01
    23  2.2000000000000E-01  7.8199941893608E-01 -1.4712731957626E-01
    24  2.3000000000000E-01  8.2883275241404E-01 -1.8588398876606E-01
    25  2.4000000000000E-01  8.7236006096943E-01 -2.1787229895786E-01
    26  2.5000000000000E-01  9.1208831839079E-01 -2.4202397644436E-01
    27  2.6000000000000E-01  9.4761613858371E-01 -2.5748829339605E-01
    28  2.7000000000000E-01  9.7864510048597E-01 -2.6365785536826E-01
    29  2.8000000000000E-01  1.0049882451761E+00 -2.6018765162093E-01
    30  2.9000000000000E-01  1.0265754931768E+00 -2.4700678974386E-01
    31  3.0000000000000E-01  1.0434558137551E+00 -2.2432253618613E-01
    32  3.1000000000000E-01  1.0557960668514E+00 -1.9261649596394E-01
    33  3.2000000000000E-01  1.0638765297312E+00 -1.5263298233253E-01
    34  3.3000000000000E-01  1.0680832120764E+00 -1.0535984463806E-01
    35  3.4000000000000E-01  1.0688971525203E+00 -5.2002233966611E-02
    36  3.5000000000000E-01  1.0668809741415E+00  6.0500142315608E-03
    37  3.6000000000000E-01  1.0626630538532E+00  6.7260519167250E-02
    38  3.7000000000000E-01  1.0569197288005E+00  1.2998899425866E-01
    39  3.8000000000000E-01  1.0503560199153E+00  1.9253723326353E-01
    40  3.9000000000000E-01  1.0436853970628E+00  2.5319718699627E-01
    41  4.0000000000000E-01  1.0376091404613E+00  3.1029980629365E-01
    42  4.1000000000000E-01  1.0327958683721E+00  3.6226329437498E-01
    43  4.2000000000000E-01  1.0298618009257E+00  4.0763941618058E-01
    44  4.3000000000000E-01  1.0293523142746E+00  4.4515655380584E-01
    45  4.4000000000000E-01  1.0317253083780E+00  4.7375827491875E-01
    46  4.5000000000000E-01  1.0373368663511E+00  4.9263629321157E-01
    47  4.6000000000000E-01  1.0464296245838E+00  5.0125684370754E-01
    48  4.7000000000000E-01  1.0591242022543E+00  4.9937966746283E-01
    49  4.8000000000000E-01  1.0754139582368E+00  4.8706899543614E-01
    50  4.9000000000000E-01  1.0951632548518E+00  4.6469613494206E-01
    51  5.0000000000000E-01  1.1181093137519E+00  4.3293348852212E-01
    52  5.1000000000000E-01  1.1438676519719E+00  3.9274006824321E-01
    53  5.2000000000000E-01  1.1719409884037E+00  3.4533880211480E-01
    54  5.3000000000000E-01  1.2017314153028E+00  2.9218615720114E-01
    55  5.4000000000000E-01  1.2325555384874E+00  2.3493481988675E-01
    56  5.5000000000000E-01  1.2636622061375E+00  1.7539037170867E-01
    57  5.6000000000000E-01  1.2942523718404E+00  1.1546307370285E-01
    58  5.7000000000000E-01  1.3235005748368E+00  5.7116018414089E-02
    59  5.8000000000000E-01  1.3505774710731E+00  2.3110223976144E-03
    60  5.9000000000000E-01  1.3746728140888E+00 -4.7046290157608E-02
    61  6.0000000000000E-01  1.3950182660230E+00 -8.9160722556428E-02
    62  6.1000000000000E-01  1.4109094167387E+00 -1.2239956957440E-01
    63  6.2000000000000E-01  1.4217264034436E+00 -1.4534106070653E-01
    64  6.3000000000000E-01  1.4269525539964E+00 -1.5681781284090E-01
    65  6.4000000000000E-01  1.4261905236428E+00 -1.5595403989719E-01
    66  6.5000000000000E-01  1.4191754561350E+00 -1.4219541925251E-01
    67  6.6000000000000E-01  1.4057847745419E+00 -1.1533069822821E-01
    68  6.7000000000000E-01  1.3860442927075E+00 -7.5504333966951E-02
    69  6.8000000000000E-01  1.3601304330796E+00 -2.3219691351220E-02
    70  6.9000000000000E-01  1.3283684380803E+00  4.0667429729258E-02
    71  7.0000000000000E-01  1.2912265677026E+00  1.1496491084971E-01
    72  7.1000000000000E-01  1.2493063828198E+00  1.9816979050958E-01
    73  7.2000000000000E-01  1.2033293189927E+00  2.8850256053398E-01
    74  7.3000000000000E-01  1.1541198565406E+00  3.8394950339395E-01
    75  7.4000000000000E-01  1.1025856866036E+00  4.8231206627961E-01
    76  7.5000000000000E-01  1.0496953573311E+00  5.8126206752450E-01
    77  7.6000000000000E-01  9.9645395685364E-01  6.7840136022153E-01
    78  7.7000000000000E-01  9.4387744832610E-01  7.7132444136545E-01
    79  7.8000000000000E-01  8.9296631539803E-01  8.5768239655644E-01
    80  7.9000000000000E-01  8.4467920267921E-01  9.3524651319677E-01
    81  8.0000000000000E-01  7.9990724429923E-01  1.0019698811217E+00
    82  8.1000000000000E-01  7.5944976410551E-01  1.0560453295457E+00
    83  8.2000000000000E-01  7.2399200348955E-01  1.0959581227535E+00
    84  8.3000000000000E-01  6.9408548783139E-01  1.1205319526363E+00
    85  8.4000000000000E-01  6.7013158111213E-01  1.1289669214040E+00
    86  8.5000000000000E-01  6.5236870182263E-01  1.1208683989267E+00
    87  8.6000000000000E-01  6.4086358373862E-01  1.0962658615848E+00
    88  8.7000000000000E-01  6.3550686465291E-01  1.0556210677540E+00
    89  8.8000000000000E-01  6.3601317726439E-01  9.9982519293717E-01
    90  8.9000000000000E-01  6.4192580187286E-01  9.3018482832800E-01
    91  9.0000000000000E-01  6.5262582324346E-01  8.4839703308268E-01
    92  9.1000000000000E-01  6.6734561699288E-01  7.5651391545375E-01
    93  9.2000000000000E-01  6.8518637714979E-01  6.5689749379221E-01
    94  9.3000000000000E-01  7.0513928912521E-01  5.5216584804449E-01
    95  9.4000000000000E-01  7.2610985402255E-01  4.4513180890180E-01
    96  9.5000000000000E-01  7.4694478364294E-01  3.3873563887600E-01
    97  9.6000000000000E-01  7.6646081303311E-01  2.3597333165867E-01
    98  9.7000000000000E-01  7.8347472097678E-01  1.3982228839972E-01
    99  9.8000000000000E-01  7.9683381001484E-01  5.3166218283503E-02
   100  9.9000000000000E-01  8.0544607757951E-01 -2.1278846780704E-02
   101  1.0000000000000E+00  8.0830930928649E-01 -8.1035538861590E-02
   102  1.0100000000000E+00  8.0453834451306E-01 -1.2393131096755E-01
   103  1.0200000000000E+00  7.9338980282124E-01 -1.4815803373314E-01
   104  1.0300000000000E+00  7.7428361670470E-01 -1.5232344690211E-01
   105  1.0400000000000E+00  7.4682079015767E-01 -1.3549306778667E-01
   106  1.0500000000000E+00  7.1079689216985E-01 -9.7221383686199E-02
   107  1.0600000000000E+00  6.6621089696271E-01 -3.7571411567920E-02
   108  1.0700000000000E+00  6.1326909625839E-01  4.2878009654148E-02
   109  1.0800000000000E+00  5.5238393047099E-01  1.4303752769546E-01
   110  1.0900000000000E+00  4.8416771180069E-01  2.6132520835101E-01
   111  1.1000000000000E+00  4.0942134055812E-01  3.9569679567529E-01
   112  1.1100000000000E+00  3.2911824233458E-01  5.4368769646355E-01
   113  1.1200000000000E+00  2.4438387561466E-01  7.0246578569659E-01
   114  1.1300000000000E+00  1.5647127325102E-01  8.6889385151064E-01
   115  1.1400000000000E+00  6.6733184406712E-02  1.0396002470019E+00
   116  1.1500000000000E+00 -2.3408526820696E-02  1.2110560989403E+00
   117  1.1600000000000E+00 -1.1249549605386E-01  1.3796572455985E+00
   118  1.1700000000000E+00 -1.9906670057433E-01  1.5418089424495E+00
   119  1.1800000000000E+00 -2.8169270585538E-01  1.6940112887920E+00
   120  1.1900000000000E+00 -3.5900947771966E-01  1.8329432931498E+00
   121  1.2000000000000E+00 -4.2975092583057E-01  1.9555435118571E+00
   122  1.2100000000000E+00 -4.9277936957795E-01  2.0590852627079E+00
   123  1.2200000000000E+00 -5.4711316353766E-01  2.1412445341683E+00
   124  1.2300000000000E+00 -5.9195078472619E-01  2.2001588756899E+00
   125  1.2400000000000E+00 -6.2669076686145E-01  2.2344757637268E+00
   126  1.2500000000000E+00 -6.5094696592960E-01  2.2433891864961E+00
   127  1.2600000000000E+00 -6.6455875304459E-01  2.2266634696318E+00
   128  1.2700000000000E+00 -6.6759585380549E-01  2.1846436720347E+00
   129  1.2800000000000E+00 -6.6035768375183E-01  2.1182522056147E+00
   130  1.2900000000000E+00 -6.4336716382984E-01  2.0289716661999E+00
   131  1.3000000000000E+00 -6.1735913609261E-01  1.9188142009371E+00
   132  1.3100000000000E+00 -5.8326363300174E-01  1.7902780672529E+00
   133  1.3200000000000E+00 -5.4218438113275E-01  1.6462923536472E+00
   134  1.3300000000000E+00 -4.9537303897789E-01  1.4901511262711E+00
   135  1.3400000000000E+00 -4.4419977520764E-01  1.3254385283375E+00
   136  1.3500000000000E+00 -3.9012088574864E-01  1.1559465859192E+00
   137  1.3600000000000E+00 -3.3464422475053E-01  9.8558766093124E-01
   138  1.3700000000000E+00 -2.7929326390928E-01  8.1830359933536E-01
   139  1.3800000000000E+00 -2.2557070296996E-01  6.5797383955134E-01
   140  1.3900000000000E+00 -1.7492014128223E-01  5.0832042285078E-01
   141  1.4000000000000E+00 -1.2869336480649E-01  3.7282431075364E-01
   142  1.4100000000000E+00 -8.8124588661887E-02  2.5465541688546E-01
   143  1.4200000000000E+00 -5.4292270657148E-02  1.5658222688840E-01
   144  1.4300000000000E+00 -2.8095562123363E-02  8.0913134056181E-02
   145  1.4400000000000E+00 -1.0189973251827E-02  2.9319131632542E-02
   146  1.4500000000000E+00 -1.2911101976527E-03  3.7130466382902E-03
   147  1.4600000000000E+00  1.4558526476213E-04 -4.1859030017213E-04
   148  1.4700000000000E+00 -3.6800378721891E-05  1.0581252728333E-04
   149  1.48  0. -0.
   150  1.49  0. -0.
   151  1.50  0.  0.
   152  1.51  0.  0.
   153  1.52  0.  0.
   154  1.53  0.  0.
   155  1.54  0.  0.
   156  1.55  0.  0.
   157  1.56  0.  0.
   158  1.57  0.  0.
   159  1.58  0.  0.
   160  1.59  0.  0.
   161  1.60  0.  0.
   162  1.61  0.  0.
   163  1.62  0.  0.
   164  1.63  0.  0.
   165  1.64  0.  0.
   166  1.65  0.  0.
   167  1.66  0.  0.
   168  1.67  0.  0.
   169  1.68  0.  0.
   170  1.69  0.  0.
   171  1.70  0.  0.
   172  1.71  0.  0.
   173  1.72  0.  0.
   174  1.73  0.  0.
   175  1.74  0.  0.
   176  1.75  0.  0.
   177  1.76  0.  0.
   178  1.77  0.  0.
   179  1.78  0.  0.
   180  1.79  0.  0.
   181  1.80  0.  0.
   182  1.81  0.  0.
   183  1.82  0.  0.
   184  1.83  0.  0.
   185  1.84  0.  0.
   186  1.85  0.  0.
   187  1.86  0.  0.
   188  1.87  0.  0.
   189  1.88  0.  0.
   190  1.89  0.  0.
   191  1.90  0.  0.
   192  1.91  0.  0.
   193  1.92  0.  0.
   194  1.93  0.  0.
   195  1.94  0.  0.
   196  1.95  0.  0.
   197  1.96  0.  0.
   198  1.97  0.  0.
   199  1.98  0.  0.
   200  1.99  0.  0.
   201  2.00  0.  0.
   202  2.01  0.  0.
   203  2.02  0.  0.
   204  2.03  0.  0.
   205  2.04  0.  0.
   206  2.05  0.  0.
   207  2.06  0.  0.
   208  2.07  0.  0.
   209  2.08  0.  0.
   210  2.09  0.  0.
   211  2.10  0.  0.
   212  2.11  0.  0.
   213  2.12  0.  0.
   214  2.13  0.  0.
   215  2.14  0.  0.
   216  2.15  0.  0.
   217  2.16  0.  0.
   218  2.17  0.  0.
   219  2.18  0.  0.
   220  2.19  0.  0.
   221  2.20  0.  0.
   222  2.21  0.  0.
   223  2.22  0.  0.
   224  2.23  0.  0.
   225  2.24  0.  0.
   226  2.25  0.  0.
   227  2.26  0.  0.
   228  2.27  0.  0.
   229  2.28  0.  0.
   230  2.29  0.  0.
   231  2.30  0.  0.
   232  2.31  0.  0.
   233  2.32  0.  0.
   234  2.33  0.  0.
   235  2.34  0.  0.
   236  2.35  0.  0.
   237  2.36  0.  0.
   238  2.37  0.  0.
   239  2.38  0.  0.
   240  2.39  0.  0.
   241  2.40  0.  0.
   242  2.41  0.  0.
   243  2.42  0.  0.
   244  2.43  0.  0.
   245  2.44  0.  0.
   246  2.45  0.  0.
   247  2.46  0.  0.
   248  2.47  0.  0.
   249  2.48  0.  0.
   250  2.49  0.  0.
   251  2.50  0.  0.
   252  2.51  0.  0.
   253  2.52  0.  0.
   254  2.53  0.  0.
   255  2.54  0.  0.
   256  2.55  0.  0.
   257  2.56  0.  0.
   258  2.57  0.  0.
   259  2.58  0.  0.
   260  2.59  0.  0.
   261  2.60  0.  0.
   262  2.61  0.  0.
   263  2.62  0.  0.
   264  2.63  0.  0.
   265  2.64  0.  0.
   266  2.65  0.  0.
   267  2.66  0.  0.
   268  2.67  0.  0.
   269  2.68  0.  0.
   270  2.69  0.  0.
   271  2.70  0.  0.
   272  2.71  0.  0.
   273  2.72  0.  0.
   274  2.73  0.  0.
   275  2.74  0.  0.
   276  2.75  0.  0.
   277  2.76  0.  0.
   278  2.77  0.  0.
   279  2.78  0.  0.
   280  2.79  0.  0.
   281  2.80  0.  0.
   282  2.81  0.  0.
   283  2.82  0.  0.
   284  2.83  0.  0.
   285  2.84  0.  0.
   286  2.85  0.  0.
   287  2.86  0.  0.
   288  2.87  0.  0.
   289  2.88  0.  0.
   290  2.89  0.  0.
   291  2.90  0.  0.
   292  2.91  0.  0.
   293  2.92  0.  0.
   294  2.93  0.  0.
   295  2.94  0.  0.
   296  2.95  0.  0.
   297  2.96  0.  0.
   298  2.97  0.  0.
   299  2.98  0.  0.
   300  2.99  0.  0.
   301  3.00  0.  0.
   302  3.01  0.  0.
   303  3.02  0.  0.
   304  3.03  0.  0.
   305  3.04  0.  0.
   306  3.05  0.  0.
   307  3.06  0.  0.
   308  3.07  0.  0.
   309  3.08  0.  0.
   310  3.09  0.  0.
   311  3.10  0.  0.
   312  3.11  0.  0.
   313  3.12  0.  0.
   314  3.13  0.  0.
   315  3.14  0.  0.
   316  3.15  0.  0.
   317  3.16  0.  0.
   318  3.17  0.  0.
   319  3.18  0.  0.
   320  3.19  0.  0.
   321  3.20  0.  0.
   322  3.21  0.  0.
   323  3.22  0.  0.
   324  3.23  0.  0.
   325  3.24  0.  0.
   326  3.25  0.  0.
   327  3.26  0.  0.
   328  3.27  0.  0.
   329  3.28  0.  0.
   330  3.29  0.  0.
   331  3.30  0.  0.
   332  3.31  0.  0.
   333  3.32  0.  0.
   334  3.33  0.  0.
   335  3.34  0.  0.
   336  3.35  0.  0.
   337  3.36  0.  0.
   338  3.37  0.  0.
   339  3.38  0.  0.
   340  3.39  0.  0.
   341  3.40  0.  0.
   342  3.41  0.  0.
   343  3.42  0.  0.
   344  3.43  0.  0.
   345  3.44  0.  0.
   346  3.45  0.  0.
   347  3.46  0.  0.
   348  3.47  0.  0.
   349  3.48  0.  0.
   350  3.49  0.  0.
   351  3.50  0.  0.
   352  3.51  0.  0.
   353  3.52  0.  0.
   354  3.53  0.  0.
   355  3.54  0.  0.
   356  3.55  0.  0.
   357  3.56  0.  0.
   358  3.57  0.  0.
   359  3.58  0.  0.
   360  3.59  0.  0.
   361  3.60  0.  0.
   362  3.61  0.  0.
   363  3.62  0.  0.
   364  3.63  0.  0.
   365  3.64  0.  0.
   366  3.65  0.  0.
   367  3.66  0.  0.
   368  3.67  0.  0.
   369  3.68  0.  0.
   370  3.69  0.  0.
   371  3.70  0.  0.
   372  3.71  0.  0.
   373  3.72  0.  0.
   374  3.73  0.  0.
   375  3.74  0.  0.
   376  3.75  0.  0.
   377  3.76  0.  0.
   378  3.77  0.  0.
   379  3.78  0.  0.
   380  3.79  0.  0.
   381  3.80  0.  0.
   382  3.81  0.  0.
   383  3.82  0.  0.
   384  3.83  0.  0.
   385  3.84  0.  0.
   386  3.85  0.  0.
   387  3.86  0.  0.
   388  3.87  0.  0.
   389  3.88  0.  0.
   390  3.89  0.  0.
   391  3.90  0.  0.
   392  3.91  0.  0.
   393  3.92  0.  0.
   394  3.93  0.  0.
   395  3.94  0.  0.
   396  3.95  0.  0.
   397  3.96  0.  0.
   398  3.97  0.  0.
   399  3.98  0.  0.
   400  3.99  0.  0.
   401  4.00  0.  0.
   402  4.01  0.  0.
   403  4.02  0.  0.
   404  4.03  0.  0.
   405  4.04  0.  0.
   406  4.05  0.  0.
   407  4.06  0.  0.
   408  4.07  0.  0.
   409  4.08  0.  0.
   410  4.09  0.  0.
   411  4.10  0.  0.
   412  4.11  0.  0.
   413  4.12  0.  0.
   414  4.13  0.  0.
   415  4.14  0.  0.
   416  4.15  0.  0.
   417  4.16  0.  0.
   418  4.17  0.  0.
   419  4.18  0.  0.
   420  4.19  0.  0.
   421  4.20  0.  0.
   422  4.21  0.  0.
   423  4.22  0.  0.
   424  4.23  0.  0.
   425  4.24  0.  0.
   426  4.25  0.  0.
   427  4.26  0.  0.
   428  4.27  0.  0.
   429  4.28  0.  0.
   430  4.29  0.  0.
   431  4.30  0.  0.
   432  4.31  0.  0.
   433  4.32  0.  0.
   434  4.33  0.  0.
   435  4.34  0.  0.
   436  4.35  0.  0.
   437  4.36  0.  0.
   438  4.37  0.  0.
   439  4.38  0.  0.
   440  4.39  0.  0.
   441  4.40  0.  0.
   442  4.41  0.  0.
   443  4.42  0.  0.
   444  4.43  0.  0.
   445  4.44  0.  0.
   446  4.45  0.  0.
   447  4.46  0.  0.
   448  4.47  0.  0.
   449  4.48  0.  0.
   450  4.49  0.  0.
   451  4.50  0.  0.
   452  4.51  0.  0.
   453  4.52  0.  0.
   454  4.53  0.  0.
   455  4.54  0.  0.
   456  4.55  0.  0.
   457  4.56  0.  0.
   458  4.57  0.  0.
   459  4.58  0.  0.
   460  4.59  0.  0.
   461  4.60  0.  0.
   462  4.61  0.  0.
   463  4.62  0.  0.
   464  4.63  0.  0.
   465  4.64  0.  0.
   466  4.65  0.  0.
   467  4.66  0.  0.
   468  4.67  0.  0.
   469  4.68  0.  0.
   470  4.69  0.  0.
   471  4.70  0.  0.
   472  4.71  0.  0.
   473  4.72  0.  0.
   474  4.73  0.  0.
   475  4.74  0.  0.
   476  4.75  0.  0.
   477  4.76  0.  0.
   478  4.77  0.  0.
   479  4.78  0.  0.
   480  4.79  0.  0.
   481  4.80  0.  0.
   482  4.81  0.  0.
   483  4.82  0.  0.
   484  4.83  0.  0.
   485  4.84  0.  0.
   486  4.85  0.  0.
   487  4.86  0.  0.
   488  4.87  0.  0.
   489  4.88  0.  0.
   490  4.89  0.  0.
   491  4.90  0.  0.
   492  4.91  0.  0.
   493  4.92  0.  0.
   494  4.93  0.  0.
   495  4.94  0.  0.
   496  4.95  0.  0.
   497  4.96  0.  0.
   498  4.97  0.  0.
   499  4.98  0.  0.
   500  4.99  0.  0.
   501  5.00  0.  0.
   502  5.01  0.  0.
   503  5.02  0.  0.
   504  5.03  0.  0.
   505  5.04  0.  0.
   506  5.05  0.  0.
   507  5.06  0.  0.
   508  5.07  0.  0.
   509  5.08  0.  0.
   510  5.09  0.  0.
   511  5.10  0.  0.
   512  5.11  0.  0.
   513  5.12  0.  0.
   514  5.13  0.  0.
   515  5.14  0.  0.
   516  5.15  0.  0.
   517  5.16  0.  0.
   518  5.17  0.  0.
   519  5.18  0.  0.
   520  5.19  0.  0.
   521  5.20  0.  0.
   522  5.21  0.  0.
   523  5.22  0.  0.
   524  5.23  0.  0.
   525  5.24  0.  0.
   526  5.25  0.  0.
   527  5.26  0.  0.
   528  5.27  0.  0.
   529  5.28  0.  0.
   530  5.29  0.  0.
   531  5.30  0.  0.
   532  5.31  0.  0.
   533  5.32  0.  0.
   534  5.33  0.  0.
   535  5.34  0.  0.
   536  5.35  0.  0.
   537  5.36  0.  0.
   538  5.37  0.  0.
   539  5.38  0.  0.
   540  5.39  0.  0.
   541  5.40  0.  0.
   542  5.41  0.  0.
   543  5.42  0.  0.
   544  5.43  0.  0.
   545  5.44  0.  0.
   546  5.45  0.  0.
   547  5.46  0.  0.
   548  5.47  0.  0.
   549  5.48  0.  0.
   550  5.49  0.  0.
   551  5.50  0.  0.
   552  5.51  0.  0.
   553  5.52  0.  0.
   554  5.53  0.  0.
   555  5.54  0.  0.
   556  5.55  0.  0.
   557  5.56  0.  0.
   558  5.57  0.  0.
   559  5.58  0.  0.
   560  5.59  0.  0.
   561  5.60  0.  0.
   562  5.61  0.  0.
   563  5.62  0.  0.
   564  5.63  0.  0.
   565  5.64  0.  0.
   566  5.65  0.  0.
   567  5.66  0.  0.
   568  5.67  0.  0.
   569  5.68  0.  0.
   570  5.69  0.  0.
   571  5.70  0.  0.
   572  5.71  0.  0.
   573  5.72  0.  0.
   574  5.73  0.  0.
   575  5.74  0.  0.
   576  5.75  0.  0.
   577  5.76  0.  0.
   578  5.77  0.  0.
   579  5.78  0.  0.
   580  5.79  0.  0.
   581  5.80  0.  0.
   582  5.81  0.  0.
   583  5.82  0.  0.
   584  5.83  0.  0.
   585  5.84  0.  0.
   586  5.85  0.  0.
   587  5.86  0.  0.
   588  5.87  0.  0.
   589  5.88  0.  0.
   590  5.89  0.  0.
   591  5.90  0.  0.
   592  5.91  0.  0.
   593  5.92  0.  0.
   594  5.93  0.  0.
   595  5.94  0.  0.
   596  5.95  0.  0.
   597  5.96  0.  0.
   598  5.97  0.  0.
   599  5.98  0.  0.
   600  5.99  0.  0.
   1                         3.2155994516555E+00  8.0142317704462E-01
     1  0.0000000000000E+00 -1.0479992018642E-07  1.3333378673375E-07
     2  1.0000000000000E-02 -1.8032158322780E-03  3.0711484077799E-03
     3  2.0000000000000E-02 -7.1354757826006E-03  1.2186239154968E-02
     4  3.0000000000000E-02 -1.5766955466518E-02  2.7053168761250E-02
     5  4.0000000000000E-02 -2.7322341714346E-02  4.7194879584597E-02
     6  5.0000000000000E-02 -4.1292192135033E-02  7.1963736923784E-02
     7  6.0000000000000E-02 -5.7048381834930E-02  1.0056107516640E-01
     8  7.0000000000000E-02 -7.3863195871660E-02  1.3206135072514E-01
     9  8.0000000000000E-02 -9.0931521223436E-02  1.6544020617152E-01
    10  9.0000000000000E-02 -1.0739550244077E-01  1.9960563609182E-01
    11  1.0000000000000E-01 -1.2237095322933E-01  2.3343135396352E-01
    12  1.1000000000000E-01 -1.3497476401565E-01  2.6579139336783E-01
    13  1.2000000000000E-01 -1.4435251455836E-01  2.9559493801030E-01
    14  1.3000000000000E-01 -1.4970549179419E-01  3.2182036446445E-01
    15  1.4000000000000E-01 -1.5031632665097E-01  3.4354749965395E-01
    16  1.5000000000000E-01 -1.4557249920672E-01  3.5998714142675E-01
    17  1.6000000000000E-01 -1.3498701840239E-01  3.7050696395007E-01
    18  1.7000000000000E-01 -1.1821565902163E-01  3.7465302811872E-01
    19  1.8000000000000E-01 -9.5070232783942E-02  3.7216623807337E-01
    20  1.9000000000000E-01 -6.5527479618528E-02  3.6299322499543E-01
    21  2.0000000000000E-01 -2.9733286531900E-02  3.4729129476585E-01
    22  2.1000000000000E-01  1.1997928350788E-02  3.2542724259332E-01
    23  2.2000000000000E-01  5.9188693563774E-02  2.9797001075832E-01
    24  2.3000000000000E-01  1.1120871392121E-01  2.6567734040705E-01
    25  2.4000000000000E-01  1.6728960726643E-01  2.2947674002000E-01
    26  2.5000000000000E-01  2.2654377486432E-01  1.9044125699026E-01
    27  2.6000000000000E-01  2.8798691272887E-01  1.4976069008796E-01
    28  2.7000000000000E-01  3.5056356484838E-01  1.0870901518772E-01
    29  2.8000000000000E-01  4.1317502883797E-01  6.8608910662430E-02
    30  2.9000000000000E-01  4.7470885260217E-01  3.0794359007425E-02
    31  3.0000000000000E-01  5.3406910922487E-01 -3.4276351006413E-03
    32  3.1000000000000E-01  5.9020660806621E-01 -3.2815134931183E-02
    33  3.2000000000000E-01  6.4214819388880E-01 -5.6228089101099E-02
    34  3.3000000000000E-01  6.8902430308687E-01 -7.2662819819388E-02
    35  3.4000000000000E-01  7.3009398644405E-01 -8.1283179594039E-02
    36  3.5000000000000E-01  7.6476667036125E-01 -8.1447456381306E-02
    37  3.6000000000000E-01  7.9262001162786E-01 -7.2730215790202E-02
    38  3.7000000000000E-01  8.1341330243989E-01 -5.4938401088362E-02
    39  3.8000000000000E-01  8.2709599986269E-01 -2.8121163957081E-02
    40  3.9000000000000E-01  8.3381108421077E-01  7.4269327914691E-03
    41  4.0000000000000E-01  8.3389309042055E-01  5.1169519465774E-02
    42  4.1000000000000E-01  8.2786080169392E-01  1.0233882302171E-01
    43  4.2000000000000E-01  8.1640474158322E-01  1.5995267382317E-01
    44  4.3000000000000E-01  8.0036974528699E-01  2.2283773465612E-01
    45  4.4000000000000E-01  7.8073302928010E-01  2.8965839456649E-01
    46  4.5000000000000E-01  7.5857830669658E-01  3.5895060702722E-01
    47  4.6000000000000E-01  7.3506661054758E-01  4.2915980683035E-01
    48  4.7000000000000E-01  7.1140458465761E-01  4.9868191707168E-01
    49  4.8000000000000E-01  6.8881108033522E-01  5.6590636021183E-01
    50  4.9000000000000E-01  6.6848295296244E-01  6.2925991836024E-01
    51  5.0000000000000E-01  6.5156098516550E-01  6.8725024979527E-01
    52  5.1000000000000E-01  6.3909687091532E-01  7.3850786265109E-01
    53  5.2000000000000E-01  6.3202217735403E-01  7.8182537316742E-01
    54  5.3000000000000E-01  6.3112015858181E-01  8.1619293453614E-01
    55  5.4000000000000E-01  6.3700122896758E-01  8.4082881194317E-01
    56  5.5000000000000E-01  6.5008281432351E-01  8.5520419780744E-01
    57  5.6000000000000E-01  6.7057418967863E-01  8.5906150557937E-01
    58  5.7000000000000E-01  6.9846678514053E-01  8.5242554717012E-01
    59  5.8000000000000E-01  7.3353029967974E-01  8.3560718390113E-01
    60  5.9000000000000E-01  7.7531481025725E-01  8.0919923902139E-01
    61  6.0000000000000E-01  8.2315890451221E-01  7.7406466616733E-01
    62  6.1000000000000E-01  8.7620370342006E-01  7.3131717719423E-01
    63  6.2000000000000E-01  9.3341248021744E-01  6.8229473902035E-01
    64  6.3000000000000E-01  9.9359542776002E-01  6.2852654694488E-01
    65  6.4000000000000E-01  1.0554389825039E+00  5.7169426594792E-01
    66  6.5000000000000E-01  1.1175389834239E+00  5.1358849668270E-01
    67  6.6000000000000E-01  1.1784368320084E+00  4.5606156460422E-01
    68  6.7000000000000E-01  1.2366577281668E+00  4.0097784490446E-01
    69  6.8000000000000E-01  1.2907499891100E+00  3.5016291927640E-01
    70  6.9000000000000E-01  1.3393244160521E+00  3.0535291044117E-01
    71  7.0000000000000E-01  1.3810926583468E+00  2.6814535512373E-01
    72  7.1000000000000E-01  1.4149035370919E+00  2.3995295495520E-01
    73  7.2000000000000E-01  1.4397763302980E+00  2.2196148774905E-01
    74  7.3000000000000E-01  1.4549300886563E+00  2.1509306983180E-01
    75  7.4000000000000E-01  1.4598081432865E+00  2.1997583563034E-01
    76  7.5000000000000E-01  1.4540970824497E+00  2.3692094640494E-01
    77  7.6000000000000E-01  1.4377396102786E+00  2.6590765960542E-01
    78  7.7000000000000E-01  1.4109408537525E+00  3.0657698825352E-01
    79  7.8000000000000E-01  1.3741678506103E+00  3.5823426105200E-01
    80  7.9000000000000E-01  1.3281421264090E+00  4.1986066416988E-01
    81  8.0000000000000E-01  1.2738254490148E+00  4.9013361072334E-01
    82  8.1000000000000E-01  1.2123990287854E+00  5.6745554996591E-01
    83  8.2000000000000E-01  1.1452366078723E+00  6.4999060124949E-01
    84  8.3000000000000E-01  1.0738720477970E+00  7.3570818394115E-01
    85  8.4000000000000E-01  9.9996217632835E-01  8.2243261939841E-01
    86  8.5000000000000E-01  9.2524578858986E-01  9.0789751014753E-01
    87  8.6000000000000E-01  8.5149980957627E-01  9.8980355928979E-01
    88  8.7000000000000E-01  7.8049371271558E-01  1.0658783839231E+00
    89  8.8000000000000E-01  7.1394334922668E-01  1.1339368032287E+00
    90  8.9000000000000E-01  6.5346537394670E-01  1.1919400471542E+00
    91  9.0000000000000E-01  6.0053345392235E-01  1.2380523366625E+00
    92  9.1000000000000E-01  5.5643741603566E-01  1.2706933316534E+00
    93  9.2000000000000E-01  5.2224642971725E-01  1.2885850271750E+00
    94  9.3000000000000E-01  4.9877723162905E-01  1.2907918007167E+00
    95  9.4000000000000E-01  4.8656828306644E-01  1.2767524704701E+00
    96  9.5000000000000E-01  4.8586061044967E-01  1.2463034128254E+00
    97  9.6000000000000E-01  4.9658591799597E-01  1.1996920025504E+00
    98  9.7000000000000E-01  5.1836238347567E-01  1.1375798757756E+00
    99  9.8000000000000E-01  5.5049835713160E-01  1.0610357684164E+00
   100  9.9000000000000E-01  5.9200398530752E-01  9.7151794449890E-01
   101  1.0000000000000E+00  6.4161057897214E-01  8.7084649357727E-01
   102  1.0100000000000E+00  6.9779734838114E-01  7.6116603715794E-01
   103  1.0200000000000E+00  7.5882493350337E-01  6.4489963433313E-01
   104  1.0300000000000E+00  8.2277498076613E-01  5.2469490984828E-01
   105  1.0400000000000E+00  8.8759485473086E-01  4.0336363761442E-01
   106  1.0500000000000E+00  9.5114643257501E-01  2.8381619391166E-01
   107  1.0600000000000E+00  1.0112578139658E+00  1.6899244173280E-01
   108  1.0700000000000E+00  1.0657766917854E+00  6.1790717388067E-02
   109  1.0800000000000E+00  1.1126240729325E+00 -3.5003340866533E-02
   110  1.0900000000000E+00  1.1498470147240E+00 -1.1878635683250E-01
   111  1.1000000000000E+00  1.1756690521477E+00 -1.8720342625421E-01
   112  1.1100000000000E+00  1.1885370343659E+00 -2.3820928843633E-01
   113  1.1200000000000E+00  1.1871631647657E+00 -2.7012288110369E-01
   114  1.1300000000000E+00  1.1705611457075E+00 -2.8167384623278E-01
   115  1.1400000000000E+00  1.1380754645999E+00 -2.7203973821288E-01
   116  1.1500000000000E+00  1.0894030188120E+00 -2.4087290239061E-01
   117  1.1600000000000E+00  1.0246064593983E+00 -1.8831623669488E-01
   118  1.1700000000000E+00  9.4411883305043E-01 -1.1500731549454E-01
   119  1.1800000000000E+00  8.4873931381104E-01 -2.2070637386722E-02
   120  1.1900000000000E+00  7.3962003432173E-01  8.8901951451620E-02
   121  1.2000000000000E+00  6.1824424764822E-01  2.1588231348079E-01
   122  1.2100000000000E+00  4.8639626602085E-01  3.5644792608228E-01
   123  1.2200000000000E+00  3.4612383095220E-01  5.0783373395333E-01
   124  1.2300000000000E+00  1.9969376072876E-01  6.6699279178860E-01
   125  1.2400000000000E+00  4.9541894278165E-02  8.3066431468029E-01
   126  1.2500000000000E+00 -1.0178150068131E-01  9.9544755937004E-01
   127  1.2600000000000E+00 -2.5166956699712E-01  1.1578798034915E+00
   128  1.2700000000000E+00 -3.9751856664927E-01  1.3145165743796E+00
   129  1.2800000000000E+00 -5.3678802441009E-01  1.4620122091253E+00
   130  1.2900000000000E+00 -6.6705985142275E-01  1.5971988039067E+00
   131  1.3000000000000E+00 -7.8609500845561E-01  1.7171616348204E+00
   132  1.3100000000000E+00 -8.9188631941236E-01  1.8193092041987E+00
   133  1.3200000000000E+00 -9.8270613071015E-01  1.9014361834613E+00
   134  1.3300000000000E+00 -1.0571476302714E+00  1.9617776843772E+00
   135  1.3400000000000E+00 -1.1141587878750E+00  1.9990534908358E+00
   136  1.3500000000000E+00 -1.1530680531465E+00  2.0125011183811E+00
   137  1.3600000000000E+00 -1.1736011431487E+00  2.0018968316377E+00
   138  1.3700000000000E+00 -1.1758884666589E+00  1.9675640381112E+00