P     ONCVPSP-4.0.1  r_core=   1.45503   1.55400   1.71009
     15.0000      5.0000      250925    zatom,zion,pspd
     8   -1012   2     4   600     0    pspcod,pspxc,lmax,lloc,mmax,r2well
  5.99000000  5.00000000  0.00000000    rchrg fchrg qchrg
     2     2     2     0    nproj
     3     1           extension_switch
     4     4     0    nprojso
   0                         6.7704849912833E+00  1.0134001930164E+00
     1  0.0000000000000E+00  5.4540441329909E-08 -1.2929089421299E-07
     2  1.0000000000000E-02  1.0167549496327E-02  5.4811093192620E-02
     3  2.0000000000000E-02  2.0986400420069E-02  1.0807688937740E-01
     4  3.0000000000000E-02  3.3088800902947E-02  1.5829652333195E-01
     5  4.0000000000000E-02  4.7069424016826E-02  2.0405674204708E-01
     6  5.0000000000000E-02  6.3467894462521E-02  2.4407261708667E-01
     7  6.0000000000000E-02  8.2752851809105E-02  2.7722464051881E-01
     8  7.0000000000000E-02  1.0530799612570E-01  3.0259115624505E-01
     9  8.0000000000000E-02  1.3142050730725E-01  3.1947520784523E-01
    10  9.0000000000000E-02  1.6127216405128E-01  3.2742503892026E-01
    11  1.0000000000000E-01  1.9493341406877E-01  3.2624765812390E-01
    12  1.1000000000000E-01  2.3236056573139E-01  3.1601507380938E-01
    13  1.2000000000000E-01  2.7339618518208E-01  2.9706300720577E-01
    14  1.3000000000000E-01  3.1777269431418E-01  2.6998210269299E-01
    15  1.4000000000000E-01  3.6511907637117E-01  2.3560186331429E-01
    16  1.5000000000000E-01  4.1497050965588E-01  1.9496774339121E-01
    17  1.6000000000000E-01  4.6678066832450E-01  1.4931202237963E-01
    18  1.7000000000000E-01  5.1993635471222E-01  1.0001925961679E-01
    19  1.8000000000000E-01  5.7377406214452E-01  4.8587283494685E-02
    20  1.9000000000000E-01  6.2759801254088E-01 -3.4152034314070E-03
    21  2.0000000000000E-01  6.8069917083513E-01 -5.4393223420073E-02
    22  2.1000000000000E-01  7.3237470950824E-01 -1.0277108045596E-01
    23  2.2000000000000E-01  7.8194738217814E-01 -1.4703759699896E-01
    24  2.3000000000000E-01  8.2878426565395E-01 -1.8578975574643E-01
    25  2.4000000000000E-01  8.7231434517464E-01 -2.1777351012177E-01
    26  2.5000000000000E-01  9.1204444734949E-01 -2.4192060008414E-01
    27  2.6000000000000E-01  9.4757306883857E-01 -2.5738031522283E-01
    28  2.7000000000000E-01  9.7860170492277E-01 -2.6354528220580E-01
    29  2.8000000000000E-01  1.0049433493353E+00 -2.6007051492708E-01
    30  2.9000000000000E-01  1.0265279132740E+00 -2.4688514884448E-01
    31  3.0000000000000E-01  1.0434043953417E+00 -2.2419648110869E-01
    32  3.1000000000000E-01  1.0557397230212E+00 -1.9248614976345E-01
    33  3.2000000000000E-01  1.0638142777846E+00 -1.5249850281203E-01
    34  3.3000000000000E-01  1.0680142075874E+00 -1.0522142537816E-01
    35  3.4000000000000E-01  1.0688207198163E+00 -5.1860104594556E-02
    36  3.5000000000000E-01  1.0667966322991E+00  6.1955885849218E-03
    37  3.6000000000000E-01  1.0625705374295E+00  6.7409239252962E-02
    38  3.7000000000000E-01  1.0568190026598E+00  1.3014052894608E-01
    39  3.8000000000000E-01  1.0502472876708E+00  1.9269122261203E-01
    40  3.9000000000000E-01  1.0435691028244E+00  2.5335324612286E-01
    41  4.0000000000000E-01  1.0374859637656E+00  3.1045752997260E-01
    42  4.1000000000000E-01  1.0326667123579E+00  3.6242226228276E-01
    43  4.2000000000000E-01  1.0297277740066E+00  4.0779919867734E-01
    44  4.3000000000000E-01  1.0292147057426E+00  4.4531671812526E-01
    45  4.4000000000000E-01  1.0315855585455E+00  4.7391839162137E-01
    46  4.5000000000000E-01  1.0371965319942E+00  4.9279594274330E-01
    47  4.6000000000000E-01  1.0462903405909E+00  5.0141562289556E-01
    48  4.7000000000000E-01  1.0589876404942E+00  4.9953719577583E-01
    49  4.8000000000000E-01  1.0752817847521E+00  4.8722492083545E-01
    50  4.9000000000000E-01  1.0950370865402E+00  4.6485013915390E-01
    51  5.0000000000000E-01  1.1179906757249E+00  4.3308529157063E-01
    52  5.1000000000000E-01  1.1437579367764E+00  3.9288943209710E-01
    53  5.2000000000000E-01  1.1718414182541E+00  3.4548553331907E-01
    54  5.3000000000000E-01  1.2016430084025E+00  2.9233010838719E-01
    55  5.4000000000000E-01  1.2324790804200E+00  2.3507589008069E-01
    56  5.5000000000000E-01  1.2635982271801E+00  1.7552850538656E-01
    57  5.6000000000000E-01  1.2942011309009E+00  1.1559825857349E-01
    58  5.7000000000000E-01  1.3234620505458E+00  5.7248281942955E-02
    59  5.8000000000000E-01  1.3505513603709E+00  2.4404271202404E-03
    60  5.9000000000000E-01  1.3746585384495E+00 -4.6919652450913E-02
    61  6.0000000000000E-01  1.3950149852525E+00 -8.9036737648896E-02
    62  6.1000000000000E-01  1.4109160500748E+00 -1.2227810851756E-01
    63  6.2000000000000E-01  1.4217416574877E+00 -1.4522198820616E-01
    64  6.3000000000000E-01  1.4269749568117E+00 -1.5670099613372E-01
    65  6.4000000000000E-01  1.4262184641813E+00 -1.5583935789749E-01
    66  6.5000000000000E-01  1.4192072279981E+00 -1.4208277173234E-01
    67  6.6000000000000E-01  1.4058186229498E+00 -1.1522001478452E-01
    68  6.7000000000000E-01  1.3860784634503E+00 -7.5395582525535E-02
    69  6.8000000000000E-01  1.3601632221529E+00 -2.3112885959804E-02
    70  6.9000000000000E-01  1.3283982406707E+00  4.0772222057874E-02
    71  7.0000000000000E-01  1.2912519251880E+00  1.1506756446768E-01
    72  7.1000000000000E-01  1.2493260264823E+00  1.9827011683914E-01
    73  7.2000000000000E-01  1.2033422092123E+00  2.8860030532179E-01
    74  7.3000000000000E-01  1.1541252163386E+00  3.8404434565632E-01
    75  7.4000000000000E-01  1.1025830285413E+00  4.8240361904214E-01
    76  7.5000000000000E-01  1.0496845029284E+00  5.8134988041920E-01
    77  7.6000000000000E-01  9.9643504788055E-01  6.7848492395933E-01
    78  7.7000000000000E-01  9.4385094952524E-01  7.7140319405680E-01
    79  7.8000000000000E-01  8.9293300841530E-01  8.5775573180528E-01
    80  7.9000000000000E-01  8.4464017120940E-01  9.3531378984748E-01
    81  8.0000000000000E-01  7.9986385068452E-01  1.0020304344930E+00
    82  8.1000000000000E-01  7.5940361785246E-01  1.0560984839450E+00
    83  8.2000000000000E-01  7.2394492238977E-01  1.0960032050254E+00
    84  8.3000000000000E-01  6.9403945257429E-01  1.1205683064680E+00
    85  8.4000000000000E-01  6.7008868446173E-01  1.1289939220809E+00
    86  8.5000000000000E-01  6.5233109358794E-01  1.1208854682140E+00
    87  8.6000000000000E-01  6.4083341289484E-01  1.0962724823953E+00
    88  8.7000000000000E-01  6.3548622006470E-01  1.0556167982591E+00
    89  8.8000000000000E-01  6.3600402852045E-01  9.9980967978015E-01
    90  8.9000000000000E-01  6.4192994176014E-01  9.3015781861086E-01
    91  9.0000000000000E-01  6.5264481336977E-01  8.4835838481794E-01
    92  9.1000000000000E-01  6.6738073800763E-01  7.5646360619905E-01
    93  9.2000000000000E-01  6.8523858491582E-01  6.5683562722153E-01
    94  9.3000000000000E-01  7.0520917806179E-01  5.5209265825146E-01
    95  9.4000000000000E-01  7.2619762867404E-01  4.4504766227790E-01
    96  9.5000000000000E-01  7.4705023933297E-01  3.3864103345870E-01
    97  9.6000000000000E-01  7.6658332624550E-01  2.3586889390061E-01
    98  9.7000000000000E-01  7.8361324986674E-01  1.3970876736764E-01
    99  9.8000000000000E-01  7.9698690520335E-01  5.3044477354966E-02
   100  9.9000000000000E-01  8.0561190312669E-01 -2.1407840596822E-02
   101  1.0000000000000E+00  8.0848567348242E-01 -8.1170727798405E-02
   102  1.0100000000000E+00  8.0472273987350E-01 -1.2407156133203E-01
   103  1.0200000000000E+00  7.9357945443764E-01 -1.4830215241316E-01
   104  1.0300000000000E+00  7.7447553787900E-01 -1.5247019922333E-01
   105  1.0400000000000E+00  7.4701184405817E-01 -1.3564119635892E-01
   106  1.0500000000000E+00  7.1098385808008E-01 -9.7369627852100E-02
   107  1.0600000000000E+00  6.6639053956564E-01 -3.7718527048693E-02
   108  1.0700000000000E+00  6.1343823630611E-01  4.2733231329690E-02
   109  1.0800000000000E+00  5.5253951513900E-01  1.4289624039106E-01
   110  1.0900000000000E+00  4.8430688301666E-01  2.6118849355430E-01
   111  1.1000000000000E+00  4.0954149962886E-01  3.9556564614124E-01
   112  1.1100000000000E+00  3.2921710927081E-01  5.4356300162120E-01
   113  1.1200000000000E+00  2.4445954166991E-01  7.0234831913194E-01
   114  1.1300000000000E+00  1.5652224534562E-01  8.6878426079206E-01
   115  1.1400000000000E+00  6.6758420296806E-02  1.0394990460616E+00
   116  1.1500000000000E+00 -2.3409593550326E-02  1.2109636631669E+00
   117  1.1600000000000E+00 -1.1252294185079E-01  1.3795738097334E+00
   118  1.1700000000000E+00 -1.9912010904929E-01  1.5417346013143E+00
   119  1.1800000000000E+00 -2.8177117632441E-01  1.6939460008087E+00
   120  1.1900000000000E+00 -3.5911164502001E-01  1.8328868865496E+00
   121  1.2000000000000E+00 -4.2987499099507E-01  1.9554956934107E+00
   122  1.2100000000000E+00 -4.9292314068353E-01  2.0590456287509E+00
   123  1.2200000000000E+00 -5.4727410579011E-01  2.1412125836409E+00
   124  1.2300000000000E+00 -5.9212607861198E-01  2.2001340248637E+00
   125  1.2400000000000E+00 -6.2687737299322E-01  2.2344573622507E+00
   126  1.2500000000000E+00 -6.5114169504157E-01  2.2433765343648E+00
   127  1.2600000000000E+00 -6.6475833946091E-01  2.2266558346570E+00
   128  1.2700000000000E+00 -6.6779703061217E-01  2.1846403073919E+00
   129  1.2800000000000E+00 -6.6055725785450E-01  2.1182523670357E+00
   130  1.2900000000000E+00 -6.4356208907551E-01  2.0289746283940E+00
   131  1.3000000000000E+00 -6.1754658267515E-01  1.9188192728447E+00
   132  1.3100000000000E+00 -5.8344105145640E-01  1.7902846057658E+00
   133  1.3200000000000E+00 -5.4234955935286E-01  1.6462997754715E+00
   134  1.3300000000000E+00 -4.9552415085437E-01  1.4901589176571E+00
   135  1.3400000000000E+00 -4.4433541969402E-01  1.3254462524551E+00
   136  1.3500000000000E+00 -3.9024011538727E-01  1.1559538877216E+00
   137  1.3600000000000E+00 -3.3474656295201E-01  9.8559426941045E-01
   138  1.3700000000000E+00 -2.7937871055757E-01  8.1830932716354E-01
   139  1.3800000000000E+00 -2.2563972819190E-01  6.5797858008457E-01
   140  1.3900000000000E+00 -1.7497366831938E-01  5.0832414806838E-01
   141  1.4000000000000E+00 -1.2873274129199E-01  3.7282706459638E-01
   142  1.4100000000000E+00 -8.8151544776454E-02  2.5465729572553E-01
   143  1.4200000000000E+00 -5.4308870065615E-02  1.5658336960990E-01
   144  1.4300000000000E+00 -2.8104145226927E-02  8.0913710452954E-02
   145  1.4400000000000E+00 -1.0193080638332E-02  2.9319329067570E-02
   146  1.4500000000000E+00 -1.2914973067733E-03  3.7130597303915E-03
   147  1.4600000000000E+00  1.4563262160409E-04 -4.1859830198977E-04
   148  1.4700000000000E+00 -3.6812095994057E-05  1.0581410578689E-04
   149  1.48  0.  0.
   150  1.49  0.  0.
   151  1.50  0.  0.
   152  1.51  0.  0.
   153  1.52  0.  0.
   154  1.53  0.  0.
   155  1.54  0.  0.
   156  1.55  0.  0.
   157  1.56  0.  0.
   158  1.57  0.  0.
   159  1.58  0.  0.
   160  1.59  0.  0.
   161  1.60  0.  0.
   162  1.61  0.  0.
   163  1.62  0.  0.
   164  1.63  0.  0.
   165  1.64  0.  0.
   166  1.65  0.  0.
   167  1.66  0.  0.
   168  1.67  0.  0.
   169  1.68  0.  0.
   170  1.69  0.  0.
   171  1.70  0.  0.
   172  1.71  0.  0.
   173  1.72  0.  0.
   174  1.73  0.  0.
   175  1.74  0.  0.
   176  1.75  0.  0.
   177  1.76  0.  0.
   178  1.77  0.  0.
   179  1.78  0.  0.
   180  1.79  0.  0.
   181  1.80  0.  0.
   182  1.81  0.  0.
   183  1.82  0.  0.
   184  1.83  0.  0.
   185  1.84  0.  0.
   186  1.85  0.  0.
   187  1.86  0.  0.
   188  1.87  0.  0.
   189  1.88  0.  0.
   190  1.89  0.  0.
   191  1.90  0.  0.
   192  1.91  0.  0.
   193  1.92  0.  0.
   194  1.93  0.  0.
   195  1.94  0.  0.
   196  1.95  0.  0.
   197  1.96  0.  0.
   198  1.97  0.  0.
   199  1.98  0.  0.
   200  1.99  0.  0.
   201  2.00  0.  0.
   202  2.01  0.  0.
   203  2.02  0.  0.
   204  2.03  0.  0.
   205  2.04  0.  0.
   206  2.05  0.  0.
   207  2.06  0.  0.
   208  2.07  0.  0.
   209  2.08  0.  0.
   210  2.09  0.  0.
   211  2.10  0.  0.
   212  2.11  0.  0.
   213  2.12  0.  0.
   214  2.13  0.  0.
   215  2.14  0.  0.
   216  2.15  0.  0.
   217  2.16  0.  0.
   218  2.17  0.  0.
   219  2.18  0.  0.
   220  2.19  0.  0.
   221  2.20  0.  0.
   222  2.21  0.  0.
   223  2.22  0.  0.
   224  2.23  0.  0.
   225  2.24  0.  0.
   226  2.25  0.  0.
   227  2.26  0.  0.
   228  2.27  0.  0.
   229  2.28  0.  0.
   230  2.29  0.  0.
   231  2.30  0.  0.
   232  2.31  0.  0.
   233  2.32  0.  0.
   234  2.33  0.  0.
   235  2.34  0.  0.
   236  2.35  0.  0.
   237  2.36  0.  0.
   238  2.37  0.  0.
   239  2.38  0.  0.
   240  2.39  0.  0.
   241  2.40  0.  0.
   242  2.41  0.  0.
   243  2.42  0.  0.
   244  2.43  0.  0.
   245  2.44  0.  0.
   246  2.45  0.  0.
   247  2.46  0.  0.
   248  2.47  0.  0.
   249  2.48  0.  0.
   250  2.49  0.  0.
   251  2.50  0.  0.
   252  2.51  0.  0.
   253  2.52  0.  0.
   254  2.53  0.  0.
   255  2.54  0.  0.
   256  2.55  0.  0.
   257  2.56  0.  0.
   258  2.57  0.  0.
   259  2.58  0.  0.
   260  2.59  0.  0.
   261  2.60  0.  0.
   262  2.61  0.  0.
   263  2.62  0.  0.
   264  2.63  0.  0.
   265  2.64  0.  0.
   266  2.65  0.  0.
   267  2.66  0.  0.
   268  2.67  0.  0.
   269  2.68  0.  0.
   270  2.69  0.  0.
   271  2.70  0.  0.
   272  2.71  0.  0.
   273  2.72  0.  0.
   274  2.73  0.  0.
   275  2.74  0.  0.
   276  2.75  0.  0.
   277  2.76  0.  0.
   278  2.77  0.  0.
   279  2.78  0.  0.
   280  2.79  0.  0.
   281  2.80  0.  0.
   282  2.81  0.  0.
   283  2.82  0.  0.
   284  2.83  0.  0.
   285  2.84  0.  0.
   286  2.85  0.  0.
   287  2.86  0.  0.
   288  2.87  0.  0.
   289  2.88  0.  0.
   290  2.89  0.  0.
   291  2.90  0.  0.
   292  2.91  0.  0.
   293  2.92  0.  0.
   294  2.93  0.  0.
   295  2.94  0.  0.
   296  2.95  0.  0.
   297  2.96  0.  0.
   298  2.97  0.  0.
   299  2.98  0.  0.
   300  2.99  0.  0.
   301  3.00  0.  0.
   302  3.01  0.  0.
   303  3.02  0.  0.
   304  3.03  0.  0.
   305  3.04  0.  0.
   306  3.05  0.  0.
   307  3.06  0.  0.
   308  3.07  0.  0.
   309  3.08  0.  0.
   310  3.09  0.  0.
   311  3.10  0.  0.
   312  3.11  0.  0.
   313  3.12  0.  0.
   314  3.13  0.  0.
   315  3.14  0.  0.
   316  3.15  0.  0.
   317  3.16  0.  0.
   318  3.17  0.  0.
   319  3.18  0.  0.
   320  3.19  0.  0.
   321  3.20  0.  0.
   322  3.21  0.  0.
   323  3.22  0.  0.
   324  3.23  0.  0.
   325  3.24  0.  0.
   326  3.25  0.  0.
   327  3.26  0.  0.
   328  3.27  0.  0.
   329  3.28  0.  0.
   330  3.29  0.  0.
   331  3.30  0.  0.
   332  3.31  0.  0.
   333  3.32  0.  0.
   334  3.33  0.  0.
   335  3.34  0.  0.
   336  3.35  0.  0.
   337  3.36  0.  0.
   338  3.37  0.  0.
   339  3.38  0.  0.
   340  3.39  0.  0.
   341  3.40  0.  0.
   342  3.41  0.  0.
   343  3.42  0.  0.
   344  3.43  0.  0.
   345  3.44  0.  0.
   346  3.45  0.  0.
   347  3.46  0.  0.
   348  3.47  0.  0.
   349  3.48  0.  0.
   350  3.49  0.  0.
   351  3.50  0.  0.
   352  3.51  0.  0.
   353  3.52  0.  0.
   354  3.53  0.  0.
   355  3.54  0.  0.
   356  3.55  0.  0.
   357  3.56  0.  0.
   358  3.57  0.  0.
   359  3.58  0.  0.
   360  3.59  0.  0.
   361  3.60  0.  0.
   362  3.61  0.  0.
   363  3.62  0.  0.
   364  3.63  0.  0.
   365  3.64  0.  0.
   366  3.65  0.  0.
   367  3.66  0.  0.
   368  3.67  0.  0.
   369  3.68  0.  0.
   370  3.69  0.  0.
   371  3.70  0.  0.
   372  3.71  0.  0.
   373  3.72  0.  0.
   374  3.73  0.  0.
   375  3.74  0.  0.
   376  3.75  0.  0.
   377  3.76  0.  0.
   378  3.77  0.  0.
   379  3.78  0.  0.
   380  3.79  0.  0.
   381  3.80  0.  0.
   382  3.81  0.  0.
   383  3.82  0.  0.
   384  3.83  0.  0.
   385  3.84  0.  0.
   386  3.85  0.  0.
   387  3.86  0.  0.
   388  3.87  0.  0.
   389  3.88  0.  0.
   390  3.89  0.  0.
   391  3.90  0.  0.
   392  3.91  0.  0.
   393  3.92  0.  0.
   394  3.93  0.  0.
   395  3.94  0.  0.
   396  3.95  0.  0.
   397  3.96  0.  0.
   398  3.97  0.  0.
   399  3.98  0.  0.
   400  3.99  0.  0.
   401  4.00  0.  0.
   402  4.01  0.  0.
   403  4.02  0.  0.
   404  4.03  0.  0.
   405  4.04  0.  0.
   406  4.05  0.  0.
   407  4.06  0.  0.
   408  4.07  0.  0.
   409  4.08  0.  0.
   410  4.09  0.  0.
   411  4.10  0.  0.
   412  4.11  0.  0.
   413  4.12  0.  0.
   414  4.13  0.  0.
   415  4.14  0.  0.
   416  4.15  0.  0.
   417  4.16  0.  0.
   418  4.17  0.  0.
   419  4.18  0.  0.
   420  4.19  0.  0.
   421  4.20  0.  0.
   422  4.21  0.  0.
   423  4.22  0.  0.
   424  4.23  0.  0.
   425  4.24  0.  0.
   426  4.25  0.  0.
   427  4.26  0.  0.
   428  4.27  0.  0.
   429  4.28  0.  0.
   430  4.29  0.  0.
   431  4.30  0.  0.
   432  4.31  0.  0.
   433  4.32  0.  0.
   434  4.33  0.  0.
   435  4.34  0.  0.
   436  4.35  0.  0.
   437  4.36  0.  0.
   438  4.37  0.  0.
   439  4.38  0.  0.
   440  4.39  0.  0.
   441  4.40  0.  0.
   442  4.41  0.  0.
   443  4.42  0.  0.
   444  4.43  0.  0.
   445  4.44  0.  0.
   446  4.45  0.  0.
   447  4.46  0.  0.
   448  4.47  0.  0.
   449  4.48  0.  0.
   450  4.49  0.  0.
   451  4.50  0.  0.
   452  4.51  0.  0.
   453  4.52  0.  0.
   454  4.53  0.  0.
   455  4.54  0.  0.
   456  4.55  0.  0.
   457  4.56  0.  0.
   458  4.57  0.  0.
   459  4.58  0.  0.
   460  4.59  0.  0.
   461  4.60  0.  0.
   462  4.61  0.  0.
   463  4.62  0.  0.
   464  4.63  0.  0.
   465  4.64  0.  0.
   466  4.65  0.  0.
   467  4.66  0.  0.
   468  4.67  0.  0.
   469  4.68  0.  0.
   470  4.69  0.  0.
   471  4.70  0.  0.
   472  4.71  0.  0.
   473  4.72  0.  0.
   474  4.73  0.  0.
   475  4.74  0.  0.
   476  4.75  0.  0.
   477  4.76  0.  0.
   478  4.77  0.  0.
   479  4.78  0.  0.
   480  4.79  0.  0.
   481  4.80  0.  0.
   482  4.81  0.  0.
   483  4.82  0.  0.
   484  4.83  0.  0.
   485  4.84  0.  0.
   486  4.85  0.  0.
   487  4.86  0.  0.
   488  4.87  0.  0.
   489  4.88  0.  0.
   490  4.89  0.  0.
   491  4.90  0.  0.
   492  4.91  0.  0.
   493  4.92  0.  0.
   494  4.93  0.  0.
   495  4.94  0.  0.
   496  4.95  0.  0.
   497  4.96  0.  0.
   498  4.97  0.  0.
   499  4.98  0.  0.
   500  4.99  0.  0.
   501  5.00  0.  0.
   502  5.01  0.  0.
   503  5.02  0.  0.
   504  5.03  0.  0.
   505  5.04  0.  0.
   506  5.05  0.  0.
   507  5.06  0.  0.
   508  5.07  0.  0.
   509  5.08  0.  0.
   510  5.09  0.  0.
   511  5.10  0.  0.
   512  5.11  0.  0.
   513  5.12  0.  0.
   514  5.13  0.  0.
   515  5.14  0.  0.
   516  5.15  0.  0.
   517  5.16  0.  0.
   518  5.17  0.  0.
   519  5.18  0.  0.
   520  5.19  0.  0.
   521  5.20  0.  0.
   522  5.21  0.  0.
   523  5.22  0.  0.
   524  5.23  0.  0.
   525  5.24  0.  0.
   526  5.25  0.  0.
   527  5.26  0.  0.
   528  5.27  0.  0.
   529  5.28  0.  0.
   530  5.29  0.  0.
   531  5.30  0.  0.
   532  5.31  0.  0.
   533  5.32  0.  0.
   534  5.33  0.  0.
   535  5.34  0.  0.
   536  5.35  0.  0.
   537  5.36  0.  0.
   538  5.37  0.  0.
   539  5.38  0.  0.
   540  5.39  0.  0.
   541  5.40  0.  0.
   542  5.41  0.  0.
   543  5.42  0.  0.
   544  5.43  0.  0.
   545  5.44  0.  0.
   546  5.45  0.  0.
   547  5.46  0.  0.
   548  5.47  0.  0.
   549  5.48  0.  0.
   550  5.49  0.  0.
   551  5.50  0.  0.
   552  5.51  0.  0.
   553  5.52  0.  0.
   554  5.53  0.  0.
   555  5.54  0.  0.
   556  5.55  0.  0.
   557  5.56  0.  0.
   558  5.57  0.  0.
   559  5.58  0.  0.
   560  5.59  0.  0.
   561  5.60  0.  0.
   562  5.61  0.  0.
   563  5.62  0.  0.
   564  5.63  0.  0.
   565  5.64  0.  0.
   566  5.65  0.  0.
   567  5.66  0.  0.
   568  5.67  0.  0.
   569  5.68  0.  0.
   570  5.69  0.  0.
   571  5.70  0.  0.
   572  5.71  0.  0.
   573  5.72  0.  0.
   574  5.73  0.  0.
   575  5.74  0.  0.
   576  5.75  0.  0.
   577  5.76  0.  0.
   578  5.77  0.  0.
   579  5.78  0.  0.
   580  5.79  0.  0.
   581  5.80  0.  0.
   582  5.81  0.  0.
   583  5.82  0.  0.
   584  5.83  0.  0.
   585  5.84  0.  0.
   586  5.85  0.  0.
   587  5.86  0.  0.
   588  5.87  0.  0.
   589  5.88  0.  0.
   590  5.89  0.  0.
   591  5.90  0.  0.
   592  5.91  0.  0.
   593  5.92  0.  0.
   594  5.93  0.  0.
   595  5.94  0.  0.
   596  5.95  0.  0.
   597  5.96  0.  0.
   598  5.97  0.  0.
   599  5.98  0.  0.
   600  5.99  0.  0.
   1                         3.2169487861228E+00  8.0201345223316E-01
     1  0.0000000000000E+00 -1.0485877958988E-07  1.3330309817094E-07
     2  1.0000000000000E-02 -1.8048019249460E-03  3.0708393229473E-03
     3  2.0000000000000E-02 -7.1417757967786E-03  1.2185026132767E-02
     4  3.0000000000000E-02 -1.5780965473536E-02  2.7050526201844E-02
     5  4.0000000000000E-02 -2.7346842525292E-02  4.7190394999549E-02
     6  5.0000000000000E-02 -4.1329672171044E-02  7.1957151397215E-02
     7  6.0000000000000E-02 -5.7100968662617E-02  1.0055231919187E-01
     8  7.0000000000000E-02 -7.3932598447315E-02  1.3205057431946E-01
     9  8.0000000000000E-02 -9.1018984582276E-02  1.6542780232534E-01
    10  9.0000000000000E-02 -1.0750177620964E-01  1.9959225680149E-01
    11  1.0000000000000E-01 -1.2249627494317E-01  2.3341791829480E-01
    12  1.1000000000000E-01 -1.3511885779058E-01  2.6577908722376E-01
    13  1.2000000000000E-01 -1.4451460522961E-01  2.9558520550672E-01
    14  1.3000000000000E-01 -1.4988433417761E-01  3.2181489105156E-01
    15  1.4000000000000E-01 -1.5051024914530E-01  3.4354818735363E-01
    16  1.5000000000000E-01 -1.4577946053250E-01  3.5999607677805E-01
    17  1.6000000000000E-01 -1.3520467588444E-01  3.7052637946185E-01
    18  1.7000000000000E-01 -1.1844144647651E-01  3.7468525821438E-01
    19  1.8000000000000E-01 -9.5301445781332E-02  3.7221367067224E-01
    20  1.9000000000000E-01 -6.5761365655103E-02  3.6305825000427E-01
    21  2.0000000000000E-01 -2.9967137494234E-02  3.4737625084889E-01
    22  2.1000000000000E-01  1.1766684146080E-02  3.2553436364701E-01
    23  2.2000000000000E-01  5.8962402476501E-02  2.9810137353637E-01
    24  2.3000000000000E-01  1.1098941389913E-01  2.6583481472139E-01
    25  2.4000000000000E-01  1.6707895307921E-01  2.2966194288448E-01
    26  2.5000000000000E-01  2.2634297396337E-01  1.9065551197767E-01
    27  2.6000000000000E-01  2.8779667375604E-01  1.5000499303990E-01
    28  2.7000000000000E-01  3.5038406047574E-01  1.0898400725392E-01
    29  2.8000000000000E-01  4.1300587423007E-01  6.8914859456209E-02
    30  2.9000000000000E-01  4.7454910036085E-01  3.1131148451616E-02
    31  3.0000000000000E-01  5.3391726121707E-01 -3.0605058920488E-03
    32  3.1000000000000E-01  5.9006064405962E-01 -3.2418543629969E-02
    33  3.2000000000000E-01  6.4200561644206E-01 -5.5803273138385E-02
    34  3.3000000000000E-01  6.8888219767284E-01 -7.2211350735346E-02
    35  3.4000000000000E-01  7.2994909534052E-01 -8.0806929375819E-02
    36  3.5000000000000E-01  7.6461547843518E-01 -8.0948556618656E-02
    37  3.6000000000000E-01  7.9245884177853E-01 -7.2211010674684E-02
    38  3.7000000000000E-01  8.1323841816396E-01 -5.4401395452019E-02
    39  3.8000000000000E-01  8.2690371216881E-01 -2.7568967685310E-02
    40  3.9000000000000E-01  8.3359785995026E-01  7.9916625341505E-03
    41  4.0000000000000E-01  8.3365565901882E-01  5.1744136692372E-02
    42  4.1000000000000E-01  8.2759625726834E-01  1.0292075053097E-01
    43  4.2000000000000E-01  8.1611063751698E-01  1.6053945844316E-01
    44  4.3000000000000E-01  8.0004417849491E-01  2.2342709866217E-01
    45  4.4000000000000E-01  7.8037471164646E-01  2.9024828190702E-01
    46  4.5000000000000E-01  7.5818662148200E-01  3.5953922312255E-01
    47  4.6000000000000E-01  7.3464165194335E-01  4.2974565087482E-01
    48  4.7000000000000E-01  7.1094717910219E-01  4.9926380596394E-01
    49  4.8000000000000E-01  6.8832278868744E-01  5.6648344345750E-01
    50  4.9000000000000E-01  6.6796605313712E-01  6.2983168352892E-01
    51  5.0000000000000E-01  6.5101843536552E-01  6.8781651836404E-01
    52  5.1000000000000E-01  6.3853225412610E-01  7.3906877632320E-01
    53  5.2000000000000E-01  6.3143962828709E-01  7.8238137101004E-01
    54  5.3000000000000E-01  6.3052427474963E-01  8.1674472152894E-01
    55  5.4000000000000E-01  6.3639696802837E-01  8.4137731976277E-01
    56  5.5000000000000E-01  6.4947538023923E-01  8.5575053888602E-01
    57  5.6000000000000E-01  6.6996891057075E-01  8.5960692166201E-01
    58  5.7000000000000E-01  6.9786898599583E-01  8.5297135375095E-01
    59  5.8000000000000E-01  7.3294517324495E-01  8.3615471203769E-01
    60  5.9000000000000E-01  7.7474728955995E-01  8.0974977610724E-01
    61  6.0000000000000E-01  8.2261354045316E-01  7.7461939728193E-01
    62  6.1000000000000E-01  8.7568455079682E-01  7.3187712864558E-01
    63  6.2000000000000E-01  9.3292299536275E-01  6.8286072564926E-01
    64  6.3000000000000E-01  9.9313838071375E-01  6.2909912467169E-01
    65  6.4000000000000E-01  1.0550163862910E+00  5.7227369091415E-01
    66  6.5000000000000E-01  1.1171520425901E+00  5.1417469217562E-01
    67  6.6000000000000E-01  1.1780859120824E+00  4.5665409675492E-01
    68  6.7000000000000E-01  1.2363423471823E+00  4.0157590792533E-01
    69  6.8000000000000E-01  1.2904688317459E+00  3.5076533075764E-01
    70  6.9000000000000E-01  1.3390753703575E+00  3.0595811696366E-01
    71  7.0000000000000E-01  1.3808728744088E+00  2.6875144817553E-01
    72  7.1000000000000E-01  1.4147095064121E+00  2.4055769686659E-01
    73  7.2000000000000E-01  1.4396039840716E+00  2.2256234709480E-01
    74  7.3000000000000E-01  1.4547749126158E+00  2.1568726549518E-01
    75  7.4000000000000E-01  1.4596653062949E+00  2.2056038848929E-01
    76  7.5000000000000E-01  1.4539615756193E+00  2.3749273739143E-01
    77  7.6000000000000E-01  1.4376063930599E+00  2.6646349271166E-01
    78  7.7000000000000E-01  1.4108050031961E+00  3.0711365691693E-01
    79  7.8000000000000E-01  1.3740247098602E+00  3.5874861624908E-01
    80  7.9000000000000E-01  1.3279874484425E+00  4.2034968249056E-01
    81  8.0000000000000E-01  1.2736555317026E+00  4.9059446068313E-01
    82  8.1000000000000E-01  1.2122108375126E+00  5.6788565484432E-01
    83  8.2000000000000E-01  1.1450278822239E+00  6.5038769681949E-01
    84  8.3000000000000E-01  1.0736413891721E+00  7.3607036957295E-01
    85  8.4000000000000E-01  9.9970911379667E-01  8.2275840118057E-01
    86  8.5000000000000E-01  9.2497082082583E-01  9.0818583486369E-01
    87  8.6000000000000E-01  8.5120442129555E-01  9.9005383831624E-01
    88  8.7000000000000E-01  7.8018036467643E-01  1.0660905063653E+00
    89  8.8000000000000E-01  7.1361544152952E-01  1.1341111378866E+00
    90  8.9000000000000E-01  6.5312718305374E-01  1.1920774331905E+00
    91  9.0000000000000E-01  6.0019004450615E-01  1.2381540631382E+00
    92  9.1000000000000E-01  5.5609452943427E-01  1.2707611063796E+00
    93  9.2000000000000E-01  5.2191035140622E-01  1.2886209356102E+00
    94  9.3000000000000E-01  4.9845464070034E-01  1.2907982558959E+00
    95  9.4000000000000E-01  4.8626608721572E-01  1.2767321551893E+00
    96  9.5000000000000E-01  4.8558577040271E-01  1.2462592155105E+00
    97  9.6000000000000E-01  4.9634526563952E-01  1.1996269484092E+00
    98  9.7000000000000E-01  5.1816243818880E-01  1.1374970549619E+00
    99  9.8000000000000E-01  5.5034514493322E-01  1.0609382630209E+00
   100  9.9000000000000E-01  5.9190286543930E-01  9.7140875622016E-01
   101  1.0000000000000E+00  6.4156608242300E-01  8.7072847391913E-01
   102  1.0100000000000E+00  6.9781303263045E-01  7.6104182194358E-01
   103  1.0200000000000E+00  7.5890325741998E-01  6.4477158422342E-01
   104  1.0300000000000E+00  8.2291720315674E-01  5.2456505840601E-01
   105  1.0400000000000E+00  8.8780095949332E-01  4.0323364826919E-01
   106  1.0500000000000E+00  9.5141508279375E-01  2.8368732695703E-01
   107  1.0600000000000E+00  1.0115863366013E+00  1.6886553223450E-01
   108  1.0700000000000E+00  1.0661610938741E+00  6.1666164604433E-02
   109  1.0800000000000E+00  1.1130590894482E+00 -3.5125572244949E-02
   110  1.0900000000000E+00  1.1503261874692E+00 -1.1890672362093E-01
   111  1.1000000000000E+00  1.1761848382733E+00 -1.8732278219185E-01
   112  1.1100000000000E+00  1.1890809423674E+00 -2.3832884868685E-01
   113  1.1200000000000E+00  1.1877259151046E+00 -2.7024417672586E-01
   114  1.1300000000000E+00  1.1711328525651E+00 -2.8179866977375E-01
   115  1.1400000000000E+00  1.1386458347135E+00 -2.7217008181289E-01
   116  1.1500000000000E+00  1.0899615628766E+00 -2.4101088999024E-01
   117  1.1600000000000E+00  1.0251427111608E+00 -1.8846405209820E-01
   118  1.1700000000000E+00  9.4462257098021E-01 -1.1516712816002E-01
   119  1.1800000000000E+00  8.4920078011510E-01 -2.2244527888795E-02
   120  1.1900000000000E+00  7.4003014608250E-01  8.8712064325981E-02
   121  1.2000000000000E+00  6.1859479500099E-01  2.1567474206429E-01
   122  1.2100000000000E+00  4.8668009255366E-01  3.5622127773070E-01
   123  1.2200000000000E+00  3.4633499189723E-01  5.0758696778853E-01
   124  1.2300000000000E+00  1.9982765501199E-01  6.6672526672091E-01
   125  1.2400000000000E+00  4.9595367093132E-02  8.3037582736204E-01
   126  1.2500000000000E+00 -1.0181008742494E-01  9.9513837097980E-01
   127  1.2600000000000E+00 -2.5178029824445E-01  1.1575506545260E+00
   128  1.2700000000000E+00 -3.9770997287758E-01  1.3141686869300E+00
   129  1.2800000000000E+00 -5.3705711566091E-01  1.4616472764293E+00
   130  1.2900000000000E+00 -6.6740218608570E-01  1.5968189672917E+00
   131  1.3000000000000E+00 -7.8650479535947E-01  1.7167694484711E+00
   132  1.3100000000000E+00 -8.9235655096759E-01  1.8189075884983E+00
   133  1.3200000000000E+00 -9.8322874408543E-01  1.9010283679481E+00
   134  1.3300000000000E+00 -1.0577136928953E+00  1.9613671416299E+00
   135  1.3400000000000E+00 -1.1147587029483E+00  1.9986438628395E+00
   136  1.3500000000000E+00 -1.1536917803491E+00  2.0120961371276E+00
   137  1.3600000000000E+00 -1.1742384293345E+00  2.0015002358720E+00