Ga    ONCVPSP-4.0.1  r_core=   1.65620   1.75830   1.90049
     31.0000     13.0000      250925    zatom,zion,pspd
     8   -1012   2     4   600     0    pspcod,pspxc,lmax,lloc,mmax,r2well
  5.99000000  5.00000000  0.00000000    rchrg fchrg qchrg
     2     3     2     0    nproj
     3     1           extension_switch
     3     3     0    nprojso
   0                         6.8552065996003E+00  1.0898515634429E+00
     1  0.0000000000000E+00 -6.8001370090442E-09  1.3354537919952E-08
     2  1.0000000000000E-02  5.1236566570751E-02 -5.5192989531556E-02
     3  2.0000000000000E-02  1.0202924509723E-01 -1.0952087441922E-01
     4  3.0000000000000E-02  1.5194122263017E-01 -1.6213244778816E-01
     5  4.0000000000000E-02  2.0054972343567E-01 -2.1220407663027E-01
     6  5.0000000000000E-02  2.4745274693383E-01 -2.5895293802994E-01
     7  6.0000000000000E-02  2.9227547375566E-01 -3.0164960420618E-01
     8  7.0000000000000E-02  3.3467623741266E-01 -3.3962977525912E-01
     9  8.0000000000000E-02  3.7435196587288E-01 -3.7230497186382E-01
    10  9.0000000000000E-02  4.1104300563968E-01 -3.9917201645688E-01
    11  1.0000000000000E-01  4.4453725060475E-01 -4.1982115046260E-01
    12  1.1000000000000E-01  4.7467350884789E-01 -4.3394265650990E-01
    13  1.2000000000000E-01  5.0134405251363E-01 -4.4133187807122E-01
    14  1.3000000000000E-01  5.2449630872514E-01 -4.4189255414546E-01
    15  1.4000000000000E-01  5.4413366300087E-01 -4.3563841312138E-01
    16  1.5000000000000E-01  5.6031536061077E-01 -4.2269299738454E-01
    17  1.6000000000000E-01  5.7315550552978E-01 -4.0328771814607E-01
    18  1.7000000000000E-01  5.8282117089832E-01 -3.7775816794219E-01
    19  1.8000000000000E-01  5.8952964895949E-01 -3.4653874584584E-01
    20  1.9000000000000E-01  5.9354488209447E-01 -3.1015567721652E-01
    21  2.0000000000000E-01  5.9517312960749E-01 -2.6921853537487E-01
    22  2.1000000000000E-01  5.9475793711652E-01 -2.2441039652468E-01
    23  2.2000000000000E-01  5.9267448659621E-01 -1.7647678118319E-01
    24  2.3000000000000E-01  5.8932341511704E-01 -1.2621355497426E-01
    25  2.4000000000000E-01  5.8512419897462E-01 -7.4453978580160E-02
    26  2.5000000000000E-01  5.8050820706569E-01 -2.2055110666165E-02
    27  2.6000000000000E-01  5.7591153292956E-01  3.0116221536819E-02
    28  2.7000000000000E-01  5.7176771874374E-01  8.1197661760843E-02
    29  2.8000000000000E-01  5.6850048667670E-01  1.3034554801434E-01
    30  2.9000000000000E-01  5.6651659332078E-01  1.7674889278423E-01
    31  3.0000000000000E-01  5.6619892144315E-01  2.1964289620522E-01
    32  3.1000000000000E-01  5.6789992002152E-01  2.5832177475779E-01
    33  3.2000000000000E-01  5.7193549851646E-01  2.9215069796195E-01
    34  3.3000000000000E-01  5.7857947464763E-01  3.2057663871614E-01
    35  3.4000000000000E-01  5.8805866668299E-01  3.4313795920039E-01
    36  3.5000000000000E-01  6.0054871154117E-01  3.5947257337671E-01
    37  3.6000000000000E-01  6.1617067899197E-01  3.6932454879363E-01
    38  3.7000000000000E-01  6.3498854008389E-01  3.7254903430973E-01
    39  3.8000000000000E-01  6.5700753481428E-01  3.6911542613075E-01
    40  3.9000000000000E-01  6.8217347018530E-01  3.5910871181665E-01
    41  4.0000000000000E-01  7.1037296536992E-01  3.4272896024139E-01
    42  4.1000000000000E-01  7.4143464596503E-01  3.2028895444704E-01
    43  4.2000000000000E-01  7.7513127446196E-01  2.9220999347867E-01
    44  4.3000000000000E-01  8.1118278934487E-01  2.5901591816911E-01
    45  4.4000000000000E-01  8.4926021086384E-01  2.2132544401396E-01
    46  4.5000000000000E-01  8.8899035774419E-01  1.7984291129988E-01
    47  4.6000000000000E-01  9.2996130610249E-01  1.3534758809993E-01
    48  4.7000000000000E-01  9.7172850984621E-01  8.8681685227731E-02
    49  4.8000000000000E-01  1.0138214910283E+00  4.0737263376473E-02
    50  4.9000000000000E-01  1.0557509991815E+00 -7.5577688796103E-03
    51  5.0000000000000E-01  1.0970165307234E+00 -5.5254352071910E-02
    52  5.1000000000000E-01  1.1371140932287E+00 -1.0139744142502E-01
    53  5.2000000000000E-01  1.1755440948220E+00 -1.4504140586029E-01
    54  5.3000000000000E-01  1.2118192362195E+00 -1.8526542002395E-01
    55  5.4000000000000E-01  1.2454722821077E+00 -2.2118860743724E-01
    56  5.5000000000000E-01  1.2760635896019E+00 -2.5198469508723E-01
    57  5.6000000000000E-01  1.3031882744760E+00 -2.7689594572289E-01
    58  5.7000000000000E-01  1.3264829006632E+00 -2.9524614371600E-01
    59  5.8000000000000E-01  1.3456315851333E+00 -3.0645242346643E-01
    60  5.9000000000000E-01  1.3603714185528E+00 -3.1003574579350E-01
    61  6.0000000000000E-01  1.3704971120318E+00 -3.0562984732476E-01
    62  6.1000000000000E-01  1.3758647915925E+00 -2.9298851028974E-01
    63  6.2000000000000E-01  1.3763948746057E+00 -2.7199102502081E-01
    64  6.3000000000000E-01  1.3720739761465E+00 -2.4264574448761E-01
    65  6.4000000000000E-01  1.3629558078086E+00 -2.0509165894656E-01
    66  6.5000000000000E-01  1.3491610467754E+00 -1.5959794883831E-01
    67  6.6000000000000E-01  1.3308761686473E+00 -1.0656150496564E-01
    68  6.7000000000000E-01  1.3083512534230E+00 -4.6502436257510E-02
    69  6.8000000000000E-01  1.2818967898948E+00  1.9942383397074E-02
    70  6.9000000000000E-01  1.2518795192958E+00  9.2027647165126E-02
    71  7.0000000000000E-01  1.2187173740927E+00  1.6890971450396E-01
    72  7.1000000000000E-01  1.1828735821170E+00  2.4965833794232E-01
    73  7.2000000000000E-01  1.1448500195526E+00  3.3326985163792E-01
    74  7.3000000000000E-01  1.1051799084280E+00  4.1868163220415E-01
    75  7.4000000000000E-01  1.0644199650177E+00  5.0478762129089E-01
    76  7.5000000000000E-01  1.0231421147603E+00  5.9045468147155E-01
    77  7.6000000000000E-01  9.8192489679931E-01  6.7453954242110E-01
    78  7.7000000000000E-01  9.4134468692575E-01  7.5590608340830E-01
    79  7.8000000000000E-01  9.0196687145168E-01  8.3344269096707E-01
    80  7.9000000000000E-01  8.6433710629852E-01  9.0607942738163E-01
    81  8.0000000000000E-01  8.2897279530698E-01  9.7280474640029E-01
    82  8.1000000000000E-01  7.9635491945853E-01  1.0326814973908E+00
    83  8.2000000000000E-01  7.6692034436265E-01  1.0848619679226E+00
    84  8.3000000000000E-01  7.4105472706352E-01  1.1286017274001E+00
    85  8.4000000000000E-01  7.1908613503954E-01  1.1632720507056E+00
    86  8.5000000000000E-01  7.0127948031845E-01  1.1883707206220E+00
    87  8.6000000000000E-01  6.8783186005318E-01  1.2035310308085E+00
    88  8.7000000000000E-01  6.7886888186265E-01  1.2085288369761E+00
    89  8.8000000000000E-01  6.7444203792612E-01  1.2032875322695E+00
    90  8.9000000000000E-01  6.7452717644008E-01  1.1878808533092E+00
    91  9.0000000000000E-01  6.7902410282756E-01  1.1625334554119E+00
    92  9.1000000000000E-01  6.8775732627287E-01  1.1276192287403E+00
    93  9.2000000000000E-01  7.0047794999022E-01  1.0836573610118E+00
    94  9.3000000000000E-01  7.1686668638162E-01  1.0313061864322E+00
    95  9.4000000000000E-01  7.3653796115519E-01  9.7135489418834E-01
    96  9.5000000000000E-01  7.5904505382129E-01  9.0471320262964E-01
    97  9.6000000000000E-01  7.8388620601532E-01  8.3239913668209E-01
    98  9.7000000000000E-01  8.1051161405370E-01  7.5552507559838E-01
    99  9.8000000000000E-01  8.3833120825368E-01  6.7528226538099E-01
   100  9.9000000000000E-01  8.6672310904437E-01  5.9292401471449E-01
   101  1.0000000000000E+00  8.9504263897074E-01  5.0974781460736E-01
   102  1.0100000000000E+00  9.2263176051512E-01  4.2707663983553E-01
   103  1.0200000000000E+00  9.4882880238073E-01  3.4623970441007E-01
   104  1.0300000000000E+00  9.7297833161450E-01  2.6855295343252E-01
   105  1.0400000000000E+00  9.9444102579557E-01  1.9529957965185E-01
   106  1.0500000000000E+00  1.0126033985228E+00  1.2771085471868E-01
   107  1.0600000000000E+00  1.0268872326446E+00  6.6947562457251E-02
   108  1.0700000000000E+00  1.0367585790667E+00  1.4082314489401E-02
   109  1.0800000000000E+00  1.0417361845135E+00 -2.9916982683258E-02
   110  1.0900000000000E+00  1.0413992192531E+00 -6.4202255390298E-02
   111  1.1000000000000E+00  1.0353941853651E+00 -8.8058750725410E-02
   112  1.1100000000000E+00  1.0234408976033E+00 -1.0091667304868E-01
   113  1.1200000000000E+00  1.0053374419763E+00 -1.0236078347399E-01
   114  1.1300000000000E+00  9.8096403182031E-01 -9.2137805929853E-02
   115  1.1400000000000E+00  9.5028569697159E-01 -7.0161514868219E-02
   116  1.1500000000000E+00  9.1335375863394E-01 -3.6515413441549E-02
   117  1.1600000000000E+00  8.7030606019989E-01  8.5470539714457E-03
   118  1.1700000000000E+00  8.2136594262923E-01  6.4604774634355E-02
   119  1.1800000000000E+00  7.6683997142881E-01  1.3107370891812E-01
   120  1.1900000000000E+00  7.0711444089922E-01  2.0721404669574E-01
   121  1.2000000000000E+00  6.4265069945341E-01  2.9213968911244E-01
   122  1.2100000000000E+00  5.7397935755714E-01  3.8482993110000E-01
   123  1.2200000000000E+00  5.0169345664839E-01  4.8414318681051E-01
   124  1.2300000000000E+00  4.2644069314445E-01  5.8883256906693E-01
   125  1.2400000000000E+00  3.4891480612206E-01  6.9756310540083E-01
   126  1.2500000000000E+00  2.6984625008592E-01  8.0893034800351E-01
   127  1.2600000000000E+00  1.8999228542909E-01  9.2148011294611E-01
   128  1.2700000000000E+00  1.1012662839572E-01  1.0337290659963E+00
   129  1.2800000000000E+00  3.1028809501565E-02  1.1441858584308E+00
   130  1.2900000000000E+00 -4.6526605627162E-02  1.2513725065710E+00
   131  1.3000000000000E+00 -1.2178077634237E-01  1.3538457036815E+00
   132  1.3100000000000E+00 -1.9400117091750E-01  1.4502177523069E+00
   133  1.3200000000000E+00 -2.6249181919804E-01  1.5391768091990E+00
   134  1.3300000000000E+00 -3.2660308304289E-01  1.6195061436438E+00
   135  1.3400000000000E+00 -3.8574080011887E-01  1.6901021231014E+00
   136  1.3500000000000E+00 -4.3937466522730E-01  1.7499906574144E+00
   137  1.3600000000000E+00 -4.8704572406033E-01  1.7983418543406E+00
   138  1.3700000000000E+00 -5.2837286682737E-01  1.8344826642771E+00
   139  1.3800000000000E+00 -5.6305822348121E-01  1.8579073206014E+00
   140  1.3900000000000E+00 -5.9089137800878E-01  1.8682854134721E+00
   141  1.4000000000000E+00 -6.1175233636080E-01  1.8654674690554E+00
   142  1.4100000000000E+00 -6.2561320059728E-01  1.8494879420267E+00
   143  1.4200000000000E+00 -6.3253852067920E-01  1.8205655667446E+00
   144  1.4300000000000E+00 -6.3268431458770E-01  1.7791010508156E+00
   145  1.4400000000000E+00 -6.2629576694875E-01  1.7256721335582E+00
   146  1.4500000000000E+00 -6.1370363573512E-01  1.6610260704379E+00
   147  1.4600000000000E+00 -5.9531941557250E-01  1.5860696422210E+00
   148  1.4700000000000E+00 -5.7162932450699E-01  1.5018568240118E+00
   149  1.4800000000000E+00 -5.4318719846757E-01  1.4095742838403E+00
   150  1.4900000000000E+00 -5.1060639380045E-01  1.3105249125067E+00
   151  1.5000000000000E+00 -4.7455081297612E-01  1.2061096155934E+00
   152  1.5100000000000E+00 -4.3572518163153E-01  1.0978076244424E+00
   153  1.5200000000000E+00 -3.9486471626113E-01  9.8715560497727E-01
   154  1.5300000000000E+00 -3.5272433102758E-01  8.7572586135471E-01
   155  1.5400000000000E+00 -3.1006753912861E-01  7.6510394517757E-01
   156  1.5500000000000E+00 -2.6765520928459E-01  6.5686599079258E-01
   157  1.5600000000000E+00 -2.2623433662146E-01  5.5255609690544E-01
   158  1.5700000000000E+00 -1.8652700227030E-01  4.5366409374965E-01
   159  1.5800000000000E+00 -1.4921870867668E-01  3.6160273530320E-01
   160  1.5900000000000E+00 -1.1494827638765E-01  2.7768753069815E-01
   161  1.6000000000000E+00 -8.4303194488770E-02  2.0312392002470E-01
   162  1.6100000000000E+00 -5.7806060959403E-02  1.3898289418209E-01
   163  1.6200000000000E+00 -3.5906689898685E-02  8.6185410485118E-02
   164  1.6300000000000E+00 -1.8980798054192E-02  4.5502530658155E-02
   165  1.6400000000000E+00 -7.2670381266623E-03  1.7407229286269E-02
   166  1.6500000000000E+00 -1.1743586196457E-03  2.8118233472401E-03
   167  1.6600000000000E+00  1.3473411288592E-04 -3.2254313357942E-04
   168  1.6700000000000E+00 -3.9940302726539E-05  9.5613034772398E-05
   169  1.68  0.  0.
   170  1.69  0.  0.
   171  1.70  0.  0.
   172  1.71  0.  0.
   173  1.72  0.  0.
   174  1.73  0.  0.
   175  1.74  0.  0.
   176  1.75  0.  0.
   177  1.76  0.  0.
   178  1.77  0.  0.
   179  1.78  0.  0.
   180  1.79  0.  0.
   181  1.80  0.  0.
   182  1.81  0.  0.
   183  1.82  0.  0.
   184  1.83  0.  0.
   185  1.84  0.  0.
   186  1.85  0.  0.
   187  1.86  0.  0.
   188  1.87  0.  0.
   189  1.88  0.  0.
   190  1.89  0.  0.
   191  1.90  0.  0.
   192  1.91  0.  0.
   193  1.92  0.  0.
   194  1.93  0.  0.
   195  1.94  0.  0.
   196  1.95  0.  0.
   197  1.96  0.  0.
   198  1.97  0.  0.
   199  1.98  0.  0.
   200  1.99  0.  0.
   201  2.00  0.  0.
   202  2.01  0.  0.
   203  2.02  0.  0.
   204  2.03  0.  0.
   205  2.04  0.  0.
   206  2.05  0.  0.
   207  2.06  0.  0.
   208  2.07  0.  0.
   209  2.08  0.  0.
   210  2.09  0.  0.
   211  2.10  0.  0.
   212  2.11  0.  0.
   213  2.12  0.  0.
   214  2.13  0.  0.
   215  2.14  0.  0.
   216  2.15  0.  0.
   217  2.16  0.  0.
   218  2.17  0.  0.
   219  2.18  0.  0.
   220  2.19  0.  0.
   221  2.20  0.  0.
   222  2.21  0.  0.
   223  2.22  0.  0.
   224  2.23  0.  0.
   225  2.24  0.  0.
   226  2.25  0.  0.
   227  2.26  0.  0.
   228  2.27  0.  0.
   229  2.28  0.  0.
   230  2.29  0.  0.
   231  2.30  0.  0.
   232  2.31  0.  0.
   233  2.32  0.  0.
   234  2.33  0.  0.
   235  2.34  0.  0.
   236  2.35  0.  0.
   237  2.36  0.  0.
   238  2.37  0.  0.
   239  2.38  0.  0.
   240  2.39  0.  0.
   241  2.40  0.  0.
   242  2.41  0.  0.
   243  2.42  0.  0.
   244  2.43  0.  0.
   245  2.44  0.  0.
   246  2.45  0.  0.
   247  2.46  0.  0.
   248  2.47  0.  0.
   249  2.48  0.  0.
   250  2.49  0.  0.
   251  2.50  0.  0.
   252  2.51  0.  0.
   253  2.52  0.  0.
   254  2.53  0.  0.
   255  2.54  0.  0.
   256  2.55  0.  0.
   257  2.56  0.  0.
   258  2.57  0.  0.
   259  2.58  0.  0.
   260  2.59  0.  0.
   261  2.60  0.  0.
   262  2.61  0.  0.
   263  2.62  0.  0.
   264  2.63  0.  0.
   265  2.64  0.  0.
   266  2.65  0.  0.
   267  2.66  0.  0.
   268  2.67  0.  0.
   269  2.68  0.  0.
   270  2.69  0.  0.
   271  2.70  0.  0.
   272  2.71  0.  0.
   273  2.72  0.  0.
   274  2.73  0.  0.
   275  2.74  0.  0.
   276  2.75  0.  0.
   277  2.76  0.  0.
   278  2.77  0.  0.
   279  2.78  0.  0.
   280  2.79  0.  0.
   281  2.80  0.  0.
   282  2.81  0.  0.
   283  2.82  0.  0.
   284  2.83  0.  0.
   285  2.84  0.  0.
   286  2.85  0.  0.
   287  2.86  0.  0.
   288  2.87  0.  0.
   289  2.88  0.  0.
   290  2.89  0.  0.
   291  2.90  0.  0.
   292  2.91  0.  0.
   293  2.92  0.  0.
   294  2.93  0.  0.
   295  2.94  0.  0.
   296  2.95  0.  0.
   297  2.96  0.  0.
   298  2.97  0.  0.
   299  2.98  0.  0.
   300  2.99  0.  0.
   301  3.00  0.  0.
   302  3.01  0.  0.
   303  3.02  0.  0.
   304  3.03  0.  0.
   305  3.04  0.  0.
   306  3.05  0.  0.
   307  3.06  0.  0.
   308  3.07  0.  0.
   309  3.08  0.  0.
   310  3.09  0.  0.
   311  3.10  0.  0.
   312  3.11  0.  0.
   313  3.12  0.  0.
   314  3.13  0.  0.
   315  3.14  0.  0.
   316  3.15  0.  0.
   317  3.16  0.  0.
   318  3.17  0.  0.
   319  3.18  0.  0.
   320  3.19  0.  0.
   321  3.20  0.  0.
   322  3.21  0.  0.
   323  3.22  0.  0.
   324  3.23  0.  0.
   325  3.24  0.  0.
   326  3.25  0.  0.
   327  3.26  0.  0.
   328  3.27  0.  0.
   329  3.28  0.  0.
   330  3.29  0.  0.
   331  3.30  0.  0.
   332  3.31  0.  0.
   333  3.32  0.  0.
   334  3.33  0.  0.
   335  3.34  0.  0.
   336  3.35  0.  0.
   337  3.36  0.  0.
   338  3.37  0.  0.
   339  3.38  0.  0.
   340  3.39  0.  0.
   341  3.40  0.  0.
   342  3.41  0.  0.
   343  3.42  0.  0.
   344  3.43  0.  0.
   345  3.44  0.  0.
   346  3.45  0.  0.
   347  3.46  0.  0.
   348  3.47  0.  0.
   349  3.48  0.  0.
   350  3.49  0.  0.
   351  3.50  0.  0.
   352  3.51  0.  0.
   353  3.52  0.  0.
   354  3.53  0.  0.
   355  3.54  0.  0.
   356  3.55  0.  0.
   357  3.56  0.  0.
   358  3.57  0.  0.
   359  3.58  0.  0.
   360  3.59  0.  0.
   361  3.60  0.  0.
   362  3.61  0.  0.
   363  3.62  0.  0.
   364  3.63  0.  0.
   365  3.64  0.  0.
   366  3.65  0.  0.
   367  3.66  0.  0.
   368  3.67  0.  0.
   369  3.68  0.  0.
   370  3.69  0.  0.
   371  3.70  0.  0.
   372  3.71  0.  0.
   373  3.72  0.  0.
   374  3.73  0.  0.
   375  3.74  0.  0.
   376  3.75  0.  0.
   377  3.76  0.  0.
   378  3.77  0.  0.
   379  3.78  0.  0.
   380  3.79  0.  0.
   381  3.80  0.  0.
   382  3.81  0.  0.
   383  3.82  0.  0.
   384  3.83  0.  0.
   385  3.84  0.  0.
   386  3.85  0.  0.
   387  3.86  0.  0.
   388  3.87  0.  0.
   389  3.88  0.  0.
   390  3.89  0.  0.
   391  3.90  0.  0.
   392  3.91  0.  0.
   393  3.92  0.  0.
   394  3.93  0.  0.
   395  3.94  0.  0.
   396  3.95  0.  0.
   397  3.96  0.  0.
   398  3.97  0.  0.
   399  3.98  0.  0.
   400  3.99  0.  0.
   401  4.00  0.  0.
   402  4.01  0.  0.
   403  4.02  0.  0.
   404  4.03  0.  0.
   405  4.04  0.  0.
   406  4.05  0.  0.
   407  4.06  0.  0.
   408  4.07  0.  0.
   409  4.08  0.  0.
   410  4.09  0.  0.
   411  4.10  0.  0.
   412  4.11  0.  0.
   413  4.12  0.  0.
   414  4.13  0.  0.
   415  4.14  0.  0.
   416  4.15  0.  0.
   417  4.16  0.  0.
   418  4.17  0.  0.
   419  4.18  0.  0.
   420  4.19  0.  0.
   421  4.20  0.  0.
   422  4.21  0.  0.
   423  4.22  0.  0.
   424  4.23  0.  0.
   425  4.24  0.  0.
   426  4.25  0.  0.
   427  4.26  0.  0.
   428  4.27  0.  0.
   429  4.28  0.  0.
   430  4.29  0.  0.
   431  4.30  0.  0.
   432  4.31  0.  0.
   433  4.32  0.  0.
   434  4.33  0.  0.
   435  4.34  0.  0.
   436  4.35  0.  0.
   437  4.36  0.  0.
   438  4.37  0.  0.
   439  4.38  0.  0.
   440  4.39  0.  0.
   441  4.40  0.  0.
   442  4.41  0.  0.
   443  4.42  0.  0.
   444  4.43  0.  0.
   445  4.44  0.  0.
   446  4.45  0.  0.
   447  4.46  0.  0.
   448  4.47  0.  0.
   449  4.48  0.  0.
   450  4.49  0.  0.
   451  4.50  0.  0.
   452  4.51  0.  0.
   453  4.52  0.  0.
   454  4.53  0.  0.
   455  4.54  0.  0.
   456  4.55  0.  0.
   457  4.56  0.  0.
   458  4.57  0.  0.
   459  4.58  0.  0.
   460  4.59  0.  0.
   461  4.60  0.  0.
   462  4.61  0.  0.
   463  4.62  0.  0.
   464  4.63  0.  0.
   465  4.64  0.  0.
   466  4.65  0.  0.
   467  4.66  0.  0.
   468  4.67  0.  0.
   469  4.68  0.  0.
   470  4.69  0.  0.
   471  4.70  0.  0.
   472  4.71  0.  0.
   473  4.72  0.  0.
   474  4.73  0.  0.
   475  4.74  0.  0.
   476  4.75  0.  0.
   477  4.76  0.  0.
   478  4.77  0.  0.
   479  4.78  0.  0.
   480  4.79  0.  0.
   481  4.80  0.  0.
   482  4.81  0.  0.
   483  4.82  0.  0.
   484  4.83  0.  0.
   485  4.84  0.  0.
   486  4.85  0.  0.
   487  4.86  0.  0.
   488  4.87  0.  0.
   489  4.88  0.  0.
   490  4.89  0.  0.
   491  4.90  0.  0.
   492  4.91  0.  0.
   493  4.92  0.  0.
   494  4.93  0.  0.
   495  4.94  0.  0.
   496  4.95  0.  0.
   497  4.96  0.  0.
   498  4.97  0.  0.
   499  4.98  0.  0.
   500  4.99  0.  0.
   501  5.00  0.  0.
   502  5.01  0.  0.
   503  5.02  0.  0.
   504  5.03  0.  0.
   505  5.04  0.  0.
   506  5.05  0.  0.
   507  5.06  0.  0.
   508  5.07  0.  0.
   509  5.08  0.  0.
   510  5.09  0.  0.
   511  5.10  0.  0.
   512  5.11  0.  0.
   513  5.12  0.  0.
   514  5.13  0.  0.
   515  5.14  0.  0.
   516  5.15  0.  0.
   517  5.16  0.  0.
   518  5.17  0.  0.
   519  5.18  0.  0.
   520  5.19  0.  0.
   521  5.20  0.  0.
   522  5.21  0.  0.
   523  5.22  0.  0.
   524  5.23  0.  0.
   525  5.24  0.  0.
   526  5.25  0.  0.
   527  5.26  0.  0.
   528  5.27  0.  0.
   529  5.28  0.  0.
   530  5.29  0.  0.
   531  5.30  0.  0.
   532  5.31  0.  0.
   533  5.32  0.  0.
   534  5.33  0.  0.
   535  5.34  0.  0.
   536  5.35  0.  0.
   537  5.36  0.  0.
   538  5.37  0.  0.
   539  5.38  0.  0.
   540  5.39  0.  0.
   541  5.40  0.  0.
   542  5.41  0.  0.
   543  5.42  0.  0.
   544  5.43  0.  0.
   545  5.44  0.  0.
   546  5.45  0.  0.
   547  5.46  0.  0.
   548  5.47  0.  0.
   549  5.48  0.  0.
   550  5.49  0.  0.
   551  5.50  0.  0.
   552  5.51  0.  0.
   553  5.52  0.  0.
   554  5.53  0.  0.
   555  5.54  0.  0.
   556  5.55  0.  0.
   557  5.56  0.  0.
   558  5.57  0.  0.
   559  5.58  0.  0.
   560  5.59  0.  0.
   561  5.60  0.  0.
   562  5.61  0.  0.
   563  5.62  0.  0.
   564  5.63  0.  0.
   565  5.64  0.  0.
   566  5.65  0.  0.
   567  5.66  0.  0.
   568  5.67  0.  0.
   569  5.68  0.  0.
   570  5.69  0.  0.
   571  5.70  0.  0.
   572  5.71  0.  0.
   573  5.72  0.  0.
   574  5.73  0.  0.
   575  5.74  0.  0.
   576  5.75  0.  0.
   577  5.76  0.  0.
   578  5.77  0.  0.
   579  5.78  0.  0.
   580  5.79  0.  0.
   581  5.80  0.  0.
   582  5.81  0.  0.
   583  5.82  0.  0.
   584  5.83  0.  0.
   585  5.84  0.  0.
   586  5.85  0.  0.
   587  5.86  0.  0.
   588  5.87  0.  0.
   589  5.88  0.  0.
   590  5.89  0.  0.
   591  5.90  0.  0.
   592  5.91  0.  0.
   593  5.92  0.  0.
   594  5.93  0.  0.
   595  5.94  0.  0.
   596  5.95  0.  0.
   597  5.96  0.  0.
   598  5.97  0.  0.
   599  5.98  0.  0.
   600  5.99  0.  0.
   1                         5.3206979384777E+00  1.0273562669532E+00  6.0700633339678E-03
     1  0.0000000000000E+00  1.5175730408434E-08 -1.5345472198502E-08  6.7942993592363E-09
     2  1.0000000000000E-02  1.5825300325020E-03 -1.1933968022025E-03 -1.4890846584478E-04
     3  2.0000000000000E-02  6.3013684341580E-03 -4.7454851685265E-03 -6.0699712565840E-04
     4  3.0000000000000E-02  1.4070773954572E-02 -1.0572472790344E-02 -1.4081253542615E-03
     5  4.0000000000000E-02  2.4749548593394E-02 -1.8536409710474E-02 -2.6079612921920E-03
     6  5.0000000000000E-02  3.8143563394596E-02 -2.8447713446023E-02 -4.2828491670679E-03
     7  6.0000000000000E-02  5.4009234407495E-02 -4.0068643257408E-02 -6.5282504145250E-03
     8  7.0000000000000E-02  7.2057889848664E-02 -5.3117663872388E-02 -9.4567849474326E-03
     9  8.0000000000000E-02  9.1960954323141E-02 -6.7274623628420E-02 -1.3195905716385E-02
    10  9.0000000000000E-02  1.1335586200440E-01 -8.2186657894944E-02 -1.7885245959682E-02
    11  1.0000000000000E-01  1.3585259816053E-01 -9.7474716014184E-02 -2.3673684162648E-02
    12  1.1000000000000E-01  1.5904075755585E-01 -1.1274059906570E-01 -3.0716176636156E-02
    13  1.2000000000000E-01  1.8249699923314E-01 -1.2757438669985E-01 -3.9170411706973E-02
    14  1.3000000000000E-01  2.0579277014239E-01 -1.4156212425215E-01 -4.9193342719331E-02
    15  1.4000000000000E-01  2.2850216514746E-01 -1.5429363646411E-01 -6.0937659324192E-02
    16  1.5000000000000E-01  2.5020978819579E-01 -1.6537033148341E-01 -7.4548257842588E-02
    17  1.6000000000000E-01  2.7051847892997E-01 -1.7441285844530E-01 -9.0158771807811E-02
    18  1.7000000000000E-01  2.8905677076617E-01 -1.8106848386094E-01 -1.0788822311182E-01
    19  1.8000000000000E-01  3.0548595044077E-01 -1.8501805623250E-01 -1.2783785251102E-01
    20  1.9000000000000E-01  3.1950659517429E-01 -1.8598243471516E-01 -1.5008818561115E-01
    21  2.0000000000000E-01  3.3086447182727E-01 -1.8372826615682E-01 -1.7469638688925E-01
    22  2.1000000000000E-01  3.3935569259678E-01 -1.7807300533196E-01 -2.0169394987718E-01
    23  2.2000000000000E-01  3.4483103376691E-01 -1.6888908548244E-01 -2.3108476639426E-01
    24  2.3000000000000E-01  3.4719933759100E-01 -1.5610716018905E-01 -2.6284361175900E-01
    25  2.4000000000000E-01  3.4642993233281E-01 -1.3971835289974E-01 -2.9691507632250E-01
    26  2.5000000000000E-01  3.4255402158894E-01 -1.1977546688857E-01 -3.3321296655534E-01
    27  2.6000000000000E-01  3.3566501099794E-01 -9.6393125746955E-02 -3.7162019139471E-01
    28  2.7000000000000E-01  3.2591775803907E-01 -6.9746832433957E-02 -4.1198914174160E-01
    29  2.8000000000000E-01  3.1352674855069E-01 -4.0070953144195E-02 -4.5414256301040E-01
    30  2.9000000000000E-01  2.9876322156509E-01 -7.6556504906682E-03 -4.9787491260395E-01
    31  3.0000000000000E-01  2.8195128176899E-01  2.7157191554122E-02 -5.4295418624560E-01
    32  3.1000000000000E-01  2.6346305606871E-01  6.3978991158523E-02 -5.8912418937061E-01
    33  3.2000000000000E-01  2.4371296708221E-01  1.0238036429465E-01 -6.3610722239082E-01
    34  3.3000000000000E-01  2.2315121162757E-01  1.4189780096008E-01 -6.8360714171597E-01
    35  3.4000000000000E-01  2.0225654617465E-01  1.8204101644200E-01 -7.3131275205694E-01
    36  3.5000000000000E-01  1.8152849353976E-01  2.2230085984445E-01 -7.7890147985418E-01
    37  3.6000000000000E-01  1.6147909562400E-01  2.6215765169734E-01 -8.2604327276465E-01
    38  3.7000000000000E-01  1.4262434554183E-01  3.0108981410739E-01 -8.7240466608229E-01
    39  3.8000000000000E-01  1.2547543890828E-01  3.3858265074702E-01 -9.1765295383346E-01
    40  3.9000000000000E-01  1.1052998823211E-01  3.7413713012360E-01 -9.6146040013123E-01
    41  4.0000000000000E-01  9.8263346218475E-02  4.0727852410651E-01 -1.0035084252338E+00
    42  4.1000000000000E-01  8.9120183270597E-02  4.3756475465608E-01 -1.0434917006558E+00
    43  4.2000000000000E-01  8.3506461591248E-02  4.6459430509696E-01 -1.0811220886310E+00
    44  4.3000000000000E-01  8.1781943050042E-02  4.8801355807289E-01 -1.1161323632219E+00
    45  4.4000000000000E-01  8.4253360471811E-02  5.0752343043305E-01 -1.1482796533717E+00
    46  4.5000000000000E-01  9.1168372319663E-02  5.2288518561870E-01 -1.1773485521838E+00
    47  4.6000000000000E-01  1.0271040903500E-01  5.3392531649198E-01 -1.2031538416017E+00
    48  4.7000000000000E-01  1.1899450573025E-01  5.4053940579111E-01 -1.2255427874081E+00
    49  4.8000000000000E-01  1.4006420071358E-01  5.4269488729302E-01 -1.2443969659588E+00
    50  4.9000000000000E-01  1.6588956269177E-01  5.4043264806956E-01 -1.2596335912232E+00
    51  5.0000000000000E-01  1.9636639170457E-01  5.3386743066934E-01 -1.2712063184155E+00
    52  5.1000000000000E-01  2.3131662016917E-01  5.2318701335394E-01 -1.2791055086373E+00
    53  5.2000000000000E-01  2.7048992115036E-01  5.0865016635937E-01 -1.2833579473996E+00
    54  5.3000000000000E-01  3.1356651142535E-01  4.9058340222576E-01 -1.2840260185145E+00
    55  5.4000000000000E-01  3.6016111739372E-01  4.6937655821657E-01 -1.2812063434996E+00
    56  5.5000000000000E-01  4.0982805270652E-01  4.4547726841077E-01 -1.2750279052043E+00
    57  5.6000000000000E-01  4.6206733796319E-01  4.1938440187718E-01 -1.2656496826888E+00
    58  5.7000000000000E-01  5.1633177525436E-01  3.9164056111937E-01 -1.2532578323437E+00
    59  5.8000000000000E-01  5.7203487400023E-01  3.6282375141605E-01 -1.2380624577042E+00
    60  5.9000000000000E-01  6.2855950972083E-01  3.3353834649904E-01 -1.2202940172506E+00
    61  6.0000000000000E-01  6.8526718432487E-01  3.0440548895440E-01 -1.2001994256030E+00
    62  6.1000000000000E-01  7.4150774544114E-01  2.7605307457712E-01 -1.1780379088002E+00
    63  6.2000000000000E-01  7.9662941343456E-01  2.4910547846159E-01 -1.1540766787090E+00
    64  6.3000000000000E-01  8.4998895820765E-01  2.2417318670928E-01 -1.1285864949732E+00
    65  6.4000000000000E-01  9.0096186381171E-01  2.0184250116082E-01 -1.1018371852161E+00
    66  6.5000000000000E-01  9.4895231736719E-01  1.8266548542996E-01 -1.0740931954101E+00
    67  6.6000000000000E-01  9.9340285986513E-01  1.6715031869180E-01 -1.0456092424002E+00
    68  6.7000000000000E-01  1.0338035400972E+00  1.5575221916014E-01 -1.0166261394993E+00
    69  6.8000000000000E-01  1.0697004192055E+00  1.4886509202367E-01 -9.8736686387380E-01
    70  6.9000000000000E-01  1.1007032820778E+00  1.4681404688634E-01 -9.5803293113416E-01
    71  7.0000000000000E-01  1.1264924229228E+00  1.4984891760279E-01 -9.2880113817538E-01
    72  7.1000000000000E-01  1.1468243856889E+00  1.5813890298423E-01 -8.9982072994199E-01
    73  7.2000000000000E-01  1.1615365553482E+00  1.7176843037982E-01 -8.7121103949761E-01
    74  7.3000000000000E-01  1.1705505132246E+00  1.9073432585584E-01 -8.4305964364515E-01
    75  7.4000000000000E-01  1.1738740882581E+00  2.1494435486834E-01 -8.1542106848449E-01
    76  7.5000000000000E-01  1.1716020560680E+00  2.4421717625752E-01 -7.8831607082037E-01
    77  7.6000000000000E-01  1.1639154586167E+00  2.7828373040221E-01 -7.6173151237578E-01
    78  7.7000000000000E-01  1.1510795388533E+00  3.1679005979884E-01 -7.3562083445916E-01
    79  7.8000000000000E-01  1.1334403065995E+00  3.5930153752542E-01 -7.0990513122290E-01
    80  7.9000000000000E-01  1.1114197737876E+00  4.0530845637207E-01 -6.8447481008033E-01
    81  8.0000000000000E-01  1.0855099186271E+00  4.5423290922722E-01 -6.5919181836799E-01
    82  8.1000000000000E-01  1.0562654590214E+00  5.0543686995655E-01 -6.3389240610289E-01
    83  8.2000000000000E-01  1.0242955352464E+00  5.5823136384661E-01 -6.0839038582758E-01
    84  8.3000000000000E-01  9.9025442021899E-01  6.1188659803591E-01 -5.8248084221273E-01
    85  8.4000000000000E-01  9.5483139232453E-01  6.6564290553271E-01 -5.5594423642013E-01
    86  8.5000000000000E-01  9.1873992046530E-01  7.1872234170440E-01 -5.2855084335363E-01
    87  8.6000000000000E-01  8.8270632348258E-01  7.7034075977064E-01 -5.0006545394775E-01
    88  8.7000000000000E-01  8.4745807618352E-01  8.1972018206112E-01 -4.7025226966952E-01
    89  8.8000000000000E-01  8.1371194168558E-01  8.6610127678718E-01 -4.3887991252255E-01
    90  8.9000000000000E-01  7.8216211453784E-01  9.0875574596512E-01 -4.0572647111189E-01
    91  9.0000000000000E-01  7.5346856098933E-01  9.4699842901044E-01 -3.7058450181151E-01
    92  9.1000000000000E-01  7.2824574179458E-01  9.8019892844689E-01 -3.3326590379775E-01
    93  9.2000000000000E-01  7.0705189906303E-01  1.0077925691424E+00 -2.9360658770197E-01
    94  9.3000000000000E-01  6.9037908190839E-01  1.0292905104498E+00 -2.5147085987145E-01
    95  9.4000000000000E-01  6.7864407611251E-01  1.0442888415012E+00 -2.0675544770173E-01