Ga    ONCVPSP-4.0.1  r_core=   1.65620   1.75830   1.90049
     31.0000     13.0000      250217    zatom,zion,pspd
     8       2   2     4   600     0    pspcod,pspxc,lmax,lloc,mmax,r2well
  5.99000000  5.00000000  0.00000000    rchrg fchrg qchrg
     2     3     2     0    nproj
     3     1           extension_switch
     3     3     0    nprojso
   0                         6.8536301642909E+00  1.0898881070534E+00
     1  0.0000000000000E+00 -6.8039300304967E-09  1.3354958305900E-08
     2  1.0000000000000E-02  5.1250270029819E-02 -5.5169707125135E-02
     3  2.0000000000000E-02  1.0205642098193E-01 -1.0947441525899E-01
     4  3.0000000000000E-02  1.5198141262804E-01 -1.6206302245486E-01
     5  4.0000000000000E-02  2.0060224940278E-01 -2.1211199918501E-01
     6  5.0000000000000E-02  2.4751672191365E-01 -2.5883862384588E-01
     7  6.0000000000000E-02  2.9234981638939E-01 -3.0151356708376E-01
     8  7.0000000000000E-02  3.3475968950533E-01 -3.3947262383114E-01
     9  8.0000000000000E-02  3.7444311282809E-01 -3.7212740529869E-01
    10  9.0000000000000E-02  4.1114029942867E-01 -3.9897481947150E-01
    11  1.0000000000000E-01  4.4463903489397E-01 -4.1960518765954E-01
    12  1.1000000000000E-01  4.7477804587349E-01 -4.3370886605757E-01
    13  1.2000000000000E-01  5.0144955126254E-01 -4.4108126475047E-01
    14  1.3000000000000E-01  5.2460095396048E-01 -4.4162618179110E-01
    15  1.4000000000000E-01  5.4423564465519E-01 -4.3535739649313E-01
    16  1.5000000000000E-01  5.6041290306386E-01 -4.2239849350832E-01
    17  1.6000000000000E-01  5.7324689628926E-01 -4.0298091717324E-01
    18  1.7000000000000E-01  5.8290478821003E-01 -3.7744028358188E-01
    19  1.8000000000000E-01  5.8960398789162E-01 -3.4621100543290E-01
    20  1.9000000000000E-01  5.9360857866345E-01 -3.0981931148542E-01
    21  2.0000000000000E-01  5.9522498254488E-01 -2.6887476801741E-01
    22  2.1000000000000E-01  5.9479692691417E-01 -2.2406043361721E-01
    23  2.2000000000000E-01  5.9269979151030E-01 -1.7612180057571E-01
    24  2.3000000000000E-01  5.8933442386118E-01 -1.2585469574100E-01
    25  2.4000000000000E-01  5.8512051988535E-01 -7.4092330636526E-02
    26  2.5000000000000E-01  5.8048967358116E-01 -2.1691704662650E-02
    27  2.6000000000000E-01  5.7587820528200E-01  3.0480423930065E-02
    28  2.7000000000000E-01  5.7171988182817E-01  8.1561777061587E-02
    29  2.8000000000000E-01  5.6843864412082E-01  1.3070877951005E-01
    30  2.9000000000000E-01  5.6644145784329E-01  1.7711053837045E-01
    31  3.0000000000000E-01  5.6611140164899E-01  2.2000235536438E-01
    32  3.1000000000000E-01  5.6780110384145E-01  2.5867855456659E-01
    33  3.2000000000000E-01  5.7182663355409E-01  2.9250441802073E-01
    34  3.3000000000000E-01  5.7846194574900E-01  3.2092703490106E-01
    35  3.4000000000000E-01  5.8793397109064E-01  3.4348488614849E-01
    36  3.5000000000000E-01  6.0041843203587E-01  3.5981600562507E-01
    37  3.6000000000000E-01  6.1603645546024E-01  3.6966458050677E-01
    38  3.7000000000000E-01  6.3485203997756E-01  3.7288587754376E-01
    39  3.8000000000000E-01  6.5687042298892E-01  3.6944940759872E-01
    40  3.9000000000000E-01  6.8203737861735E-01  3.5944026813736E-01
    41  4.0000000000000E-01  7.1023946325733E-01  3.4305863167173E-01
    42  4.1000000000000E-01  7.4130521071311E-01  3.2061737711801E-01
    43  4.2000000000000E-01  7.7500726404496E-01  2.9253789017494E-01
    44  4.3000000000000E-01  8.1106541651474E-01  2.5934408771238E-01
    45  4.4000000000000E-01  8.4915051965092E-01  2.2165474933121E-01
    46  4.5000000000000E-01  8.8888920266061E-01  1.8017426627746E-01
    47  4.6000000000000E-01  9.2986933441821E-01  1.3568194334447E-01
    48  4.7000000000000E-01  9.7164614726088E-01  8.9020012873559E-02
    49  4.8000000000000E-01  1.0137489310098E+00  4.1080541096833E-02
    50  4.9000000000000E-01  1.0556881961849E+00 -7.2085744839488E-03
    51  5.0000000000000E-01  1.0969631974437E+00 -5.4898302519066E-02
    52  5.1000000000000E-01  1.1370697019767E+00 -1.0103364363327E-01
    53  5.2000000000000E-01  1.1755078830482E+00 -1.4466902945411E-01
    54  5.3000000000000E-01  1.2117902161431E+00 -1.8488371444801E-01
    55  5.4000000000000E-01  1.2454492543444E+00 -2.2079691865597E-01
    56  5.5000000000000E-01  1.2760451606161E+00 -2.5158248164681E-01
    57  5.6000000000000E-01  1.3031728776237E+00 -2.7648279395316E-01
    58  5.7000000000000E-01  1.3264688205311E+00 -2.9482178185459E-01
    59  5.8000000000000E-01  1.3456169848239E+00 -3.0601673449476E-01
    60  5.9000000000000E-01  1.3603543695178E+00 -3.0958877878479E-01
    61  6.0000000000000E-01  1.3704756260085E+00 -3.0517182711798E-01
    62  6.1000000000000E-01  1.3758368541638E+00 -2.9251984531971E-01
    63  6.2000000000000E-01  1.3763584798716E+00 -2.7151231315381E-01
    64  6.3000000000000E-01  1.3720271619735E+00 -2.4215777673366E-01
    65  6.4000000000000E-01  1.3628966911082E+00 -2.0459542094301E-01
    66  6.5000000000000E-01  1.3490878582576E+00 -1.5909462002614E-01
    67  6.6000000000000E-01  1.3307872864963E+00 -1.0605245540601E-01
    68  6.7000000000000E-01  1.3082452353538E+00 -4.5989221066012E-02
    69  6.8000000000000E-01  1.2817724030688E+00  2.0458031992065E-02
    70  6.9000000000000E-01  1.2517357675999E+00  9.2543830103174E-02
    71  7.0000000000000E-01  1.2185535223225E+00  1.6942437844581E-01
    72  7.1000000000000E-01  1.1826891766481E+00  2.5016928999860E-01
    73  7.2000000000000E-01  1.1446449051295E+00  3.3377477614797E-01
    74  7.3000000000000E-01  1.1049542407597E+00  4.1917810941102E-01
    75  7.4000000000000E-01  1.0641742189266E+00  5.0527314773286E-01
    76  7.5000000000000E-01  1.0228770876963E+00  5.9092669188596E-01
    77  7.6000000000000E-01  9.8164170759779E-01  6.7499543293417E-01
    78  7.7000000000000E-01  9.4104476976119E-01  7.5634323576545E-01
    79  7.8000000000000E-01  9.0165196500661E-01  8.3385849754137E-01
    80  7.9000000000000E-01  8.6400923824126E-01  9.0647131668581E-01
    81  8.0000000000000E-01  8.2863426224210E-01  9.7317020881646E-01
    82  8.1000000000000E-01  7.9600826258231E-01  1.0330181108268E+00
    83  8.2000000000000E-01  7.6656832112194E-01  1.0851674231008E+00
    84  8.3000000000000E-01  7.4070027917861E-01  1.1288738524857E+00
    85  8.4000000000000E-01  7.1873235330782E-01  1.1635088349864E+00
    86  8.5000000000000E-01  7.0092956666770E-01  1.1885703369591E+00
    87  8.6000000000000E-01  6.8748908735718E-01  1.2036918565917E+00
    88  8.7000000000000E-01  6.7853655206942E-01  1.2086494733298E+00
    89  8.8000000000000E-01  6.7412343907869E-01  1.2033668212782E+00
    90  8.9000000000000E-01  6.7422553919019E-01  1.1879178930478E+00
    91  9.0000000000000E-01  6.7874255705576E-01  1.1625276125965E+00
    92  9.1000000000000E-01  6.8749885843136E-01  1.1275701488369E+00
    93  9.2000000000000E-01  7.0024536177968E-01  1.0835649756721E+00
    94  9.3000000000000E-01  7.1666255535862E-01  1.0311707181556E+00
    95  9.4000000000000E-01  7.3636460384333E-01  9.7117685814031E-01
    96  9.5000000000000E-01  7.5890449186770E-01  9.0449340558095E-01
    97  9.6000000000000E-01  7.8378013589428E-01  8.3213867306428E-01
    98  9.7000000000000E-01  8.1044138077167E-01  7.5522532070596E-01
    99  9.8000000000000E-01  8.3829778345615E-01  6.7494486578262E-01
   100  9.9000000000000E-01  8.6672707386446E-01  5.9255087596769E-01
   101  1.0000000000000E+00  8.9508417189432E-01  5.0934108640139E-01
   102  1.0100000000000E+00  9.2271063046741E-01  4.2663869871685E-01
   103  1.0200000000000E+00  9.4894436716626E-01  3.4577313427186E-01
   104  1.0300000000000E+00  9.7312954176751E-01  2.6806052397383E-01
   105  1.0400000000000E+00  9.9462643382110E-01  1.9478422303566E-01
   106  1.0500000000000E+00  1.0128211734330E+00  1.2717564067593E-01
   107  1.0600000000000E+00  1.0271351796188E+00  6.6395672102062E-02
   108  1.0700000000000E+00  1.0370341639916E+00  1.3517013122723E-02
   109  1.0800000000000E+00  1.0420365630895E+00 -3.0492373494011E-02
   110  1.0900000000000E+00  1.0417212702866E+00 -6.4784386160977E-02
   111  1.1000000000000E+00  1.0357345478077E+00 -8.8644272537361E-02
   112  1.1100000000000E+00  1.0237960108438E+00 -1.0150226586667E-01
   113  1.1200000000000E+00  1.0057035888439E+00 -1.0294318400617E-01
   114  1.1300000000000E+00  9.8133738371762E-01 -9.2713834744107E-02
   115  1.1400000000000E+00  9.5066236052565E-01 -7.0728102488833E-02
   116  1.1500000000000E+00  9.1372982322943E-01 -3.7069625163470E-02
   117  1.1600000000000E+00  8.7067764574535E-01  8.0079947974449E-03
   118  1.1700000000000E+00  8.2172924690265E-01  6.4083465073442E-02
   119  1.1800000000000E+00  7.6719131635350E-01  1.3057254688760E-01
   120  1.1900000000000E+00  7.0745031711517E-01  2.0673521354920E-01
   121  1.2000000000000E+00  6.4296780857207E-01  2.9168513453208E-01
   122  1.2100000000000E+00  5.7427465151989E-01  3.8440136042959E-01
   123  1.2200000000000E+00  5.0196417364878E-01  4.8374205093545E-01
   124  1.2300000000000E+00  4.2668438962251E-01  5.8846005691882E-01
   125  1.2400000000000E+00  3.4912938439389E-01  6.9722013913618E-01
   126  1.2500000000000E+00  2.7002998123335E-01  8.0861758087645E-01
   127  1.2600000000000E+00  1.9014382714047E-01  9.2119792986754E-01
   128  1.2700000000000E+00  1.1024503752066E-01  1.0334775867428E+00
   129  1.2800000000000E+00  3.1113549156929E-02  1.1439649434399E+00
   130  1.2900000000000E+00 -4.6475664485593E-02  1.2511817652319E+00
   131  1.3000000000000E+00 -1.2176335888994E-01  1.3536845050075E+00
   132  1.3100000000000E+00 -1.9401660790104E-01  1.4500852378488E+00
   133  1.3200000000000E+00 -2.6253906169770E-01  1.5390719080409E+00
   134  1.3300000000000E+00 -3.2668072233127E-01  1.6194275892991E+00
   135  1.3400000000000E+00 -3.8584709232080E-01  1.6900484721119E+00
   136  1.3500000000000E+00 -4.3950756041559E-01  1.7499603094372E+00
   137  1.3600000000000E+00 -4.8720289936003E-01  1.7983330734971E+00
   138  1.3700000000000E+00 -5.2855176304425E-01  1.8344936015253E+00
   139  1.3800000000000E+00 -5.6325608472009E-01  1.8579360368856E+00
   140  1.3900000000000E+00 -5.9110529370566E-01  1.8683299033979E+00
   141  1.4000000000000E+00 -6.1197928511810E-01  1.8655256848365E+00
   142  1.4100000000000E+00 -6.2585009518686E-01  1.8495578174463E+00
   143  1.4200000000000E+00 -6.3278225356152E-01  1.8206450408794E+00
   144  1.4300000000000E+00 -6.3293180328871E-01  1.7791880912745E+00
   145  1.4400000000000E+00 -6.2654399863885E-01  1.7257647589924E+00
   146  1.4500000000000E+00 -6.1394971036682E-01  1.6611223720920E+00
   147  1.4600000000000E+00 -5.9556058695476E-01  1.5861678043050E+00
   148  1.4700000000000E+00 -5.7186303872447E-01  1.5019551426870E+00
   149  1.4800000000000E+00 -5.4341112909218E-01  1.4096711846291E+00
   150  1.4900000000000E+00 -5.1081847338927E-01  1.3106189659543E+00
   151  1.5000000000000E+00 -4.7474926040412E-01  1.2061995510286E+00
   152  1.5100000000000E+00 -4.3590852486816E-01  1.0978923417052E+00
   153  1.5200000000000E+00 -3.9503181026614E-01  9.8723418400410E-01
   154  1.5300000000000E+00 -3.5287437051287E-01  8.7579756953683E-01
   155  1.5400000000000E+00 -3.1020006600728E-01  7.6516824242994E-01
   156  1.5500000000000E+00 -2.6777011470679E-01  6.5692253229939E-01
   157  1.5600000000000E+00 -2.2633185757011E-01  5.5260473352612E-01
   158  1.5700000000000E+00 -1.8660771279354E-01  4.5370487012821E-01
   159  1.5800000000000E+00 -1.4928350411650E-01  3.6163588344272E-01
   160  1.5900000000000E+00 -1.1499835177791E-01  2.7771345993330E-01
   161  1.6000000000000E+00 -8.4340027615264E-02  2.0314321706390E-01
   162  1.6100000000000E+00 -5.7831384021251E-02  1.3899631283517E-01
   163  1.6200000000000E+00 -3.5922456778909E-02  8.6193858603403E-02
   164  1.6300000000000E+00 -1.8989150165889E-02  4.5507054990179E-02
   165  1.6400000000000E+00 -7.2702416626281E-03  1.7408983289939E-02
   166  1.6500000000000E+00 -1.1748771684010E-03  2.8121104390839E-03
   167  1.6600000000000E+00  1.3479367151422E-04 -3.2257636720058E-04
   168  1.6700000000000E+00 -3.9957948400703E-05  9.5622837544275E-05
   169  1.68  0.  0.
   170  1.69  0.  0.
   171  1.70  0.  0.
   172  1.71  0.  0.
   173  1.72  0.  0.
   174  1.73  0.  0.
   175  1.74  0.  0.
   176  1.75  0.  0.
   177  1.76  0.  0.
   178  1.77  0.  0.
   179  1.78  0.  0.
   180  1.79  0.  0.
   181  1.80  0.  0.
   182  1.81  0.  0.
   183  1.82  0.  0.
   184  1.83  0.  0.
   185  1.84  0.  0.
   186  1.85  0.  0.
   187  1.86  0.  0.
   188  1.87  0.  0.
   189  1.88  0.  0.
   190  1.89  0.  0.
   191  1.90  0.  0.
   192  1.91  0.  0.
   193  1.92  0.  0.
   194  1.93  0.  0.
   195  1.94  0.  0.
   196  1.95  0.  0.
   197  1.96  0.  0.
   198  1.97  0.  0.
   199  1.98  0.  0.
   200  1.99  0.  0.
   201  2.00  0.  0.
   202  2.01  0.  0.
   203  2.02  0.  0.
   204  2.03  0.  0.
   205  2.04  0.  0.
   206  2.05  0.  0.
   207  2.06  0.  0.
   208  2.07  0.  0.
   209  2.08  0.  0.
   210  2.09  0.  0.
   211  2.10  0.  0.
   212  2.11  0.  0.
   213  2.12  0.  0.
   214  2.13  0.  0.
   215  2.14  0.  0.
   216  2.15  0.  0.
   217  2.16  0.  0.
   218  2.17  0.  0.
   219  2.18  0.  0.
   220  2.19  0.  0.
   221  2.20  0.  0.
   222  2.21  0.  0.
   223  2.22  0.  0.
   224  2.23  0.  0.
   225  2.24  0.  0.
   226  2.25  0.  0.
   227  2.26  0.  0.
   228  2.27  0.  0.
   229  2.28  0.  0.
   230  2.29  0.  0.
   231  2.30  0.  0.
   232  2.31  0.  0.
   233  2.32  0.  0.
   234  2.33  0.  0.
   235  2.34  0.  0.
   236  2.35  0.  0.
   237  2.36  0.  0.
   238  2.37  0.  0.
   239  2.38  0.  0.
   240  2.39  0.  0.
   241  2.40  0.  0.
   242  2.41  0.  0.
   243  2.42  0.  0.
   244  2.43  0.  0.
   245  2.44  0.  0.
   246  2.45  0.  0.
   247  2.46  0.  0.
   248  2.47  0.  0.
   249  2.48  0.  0.
   250  2.49  0.  0.
   251  2.50  0.  0.
   252  2.51  0.  0.
   253  2.52  0.  0.
   254  2.53  0.  0.
   255  2.54  0.  0.
   256  2.55  0.  0.
   257  2.56  0.  0.
   258  2.57  0.  0.
   259  2.58  0.  0.
   260  2.59  0.  0.
   261  2.60  0.  0.
   262  2.61  0.  0.
   263  2.62  0.  0.
   264  2.63  0.  0.
   265  2.64  0.  0.
   266  2.65  0.  0.
   267  2.66  0.  0.
   268  2.67  0.  0.
   269  2.68  0.  0.
   270  2.69  0.  0.
   271  2.70  0.  0.
   272  2.71  0.  0.
   273  2.72  0.  0.
   274  2.73  0.  0.
   275  2.74  0.  0.
   276  2.75  0.  0.
   277  2.76  0.  0.
   278  2.77  0.  0.
   279  2.78  0.  0.
   280  2.79  0.  0.
   281  2.80  0.  0.
   282  2.81  0.  0.
   283  2.82  0.  0.
   284  2.83  0.  0.
   285  2.84  0.  0.
   286  2.85  0.  0.
   287  2.86  0.  0.
   288  2.87  0.  0.
   289  2.88  0.  0.
   290  2.89  0.  0.
   291  2.90  0.  0.
   292  2.91  0.  0.
   293  2.92  0.  0.
   294  2.93  0.  0.
   295  2.94  0.  0.
   296  2.95  0.  0.
   297  2.96  0.  0.
   298  2.97  0.  0.
   299  2.98  0.  0.
   300  2.99  0.  0.
   301  3.00  0.  0.
   302  3.01  0.  0.
   303  3.02  0.  0.
   304  3.03  0.  0.
   305  3.04  0.  0.
   306  3.05  0.  0.
   307  3.06  0.  0.
   308  3.07  0.  0.
   309  3.08  0.  0.
   310  3.09  0.  0.
   311  3.10  0.  0.
   312  3.11  0.  0.
   313  3.12  0.  0.
   314  3.13  0.  0.
   315  3.14  0.  0.
   316  3.15  0.  0.
   317  3.16  0.  0.
   318  3.17  0.  0.
   319  3.18  0.  0.
   320  3.19  0.  0.
   321  3.20  0.  0.
   322  3.21  0.  0.
   323  3.22  0.  0.
   324  3.23  0.  0.
   325  3.24  0.  0.
   326  3.25  0.  0.
   327  3.26  0.  0.
   328  3.27  0.  0.
   329  3.28  0.  0.
   330  3.29  0.  0.
   331  3.30  0.  0.
   332  3.31  0.  0.
   333  3.32  0.  0.
   334  3.33  0.  0.
   335  3.34  0.  0.
   336  3.35  0.  0.
   337  3.36  0.  0.
   338  3.37  0.  0.
   339  3.38  0.  0.
   340  3.39  0.  0.
   341  3.40  0.  0.
   342  3.41  0.  0.
   343  3.42  0.  0.
   344  3.43  0.  0.
   345  3.44  0.  0.
   346  3.45  0.  0.
   347  3.46  0.  0.
   348  3.47  0.  0.
   349  3.48  0.  0.
   350  3.49  0.  0.
   351  3.50  0.  0.
   352  3.51  0.  0.
   353  3.52  0.  0.
   354  3.53  0.  0.
   355  3.54  0.  0.
   356  3.55  0.  0.
   357  3.56  0.  0.
   358  3.57  0.  0.
   359  3.58  0.  0.
   360  3.59  0.  0.
   361  3.60  0.  0.
   362  3.61  0.  0.
   363  3.62  0.  0.
   364  3.63  0.  0.
   365  3.64  0.  0.
   366  3.65  0.  0.
   367  3.66  0.  0.
   368  3.67  0.  0.
   369  3.68  0.  0.
   370  3.69  0.  0.
   371  3.70  0.  0.
   372  3.71  0.  0.
   373  3.72  0.  0.
   374  3.73  0.  0.
   375  3.74  0.  0.
   376  3.75  0.  0.
   377  3.76  0.  0.
   378  3.77  0.  0.
   379  3.78  0.  0.
   380  3.79  0.  0.
   381  3.80  0.  0.
   382  3.81  0.  0.
   383  3.82  0.  0.
   384  3.83  0.  0.
   385  3.84  0.  0.
   386  3.85  0.  0.
   387  3.86  0.  0.
   388  3.87  0.  0.
   389  3.88  0.  0.
   390  3.89  0.  0.
   391  3.90  0.  0.
   392  3.91  0.  0.
   393  3.92  0.  0.
   394  3.93  0.  0.
   395  3.94  0.  0.
   396  3.95  0.  0.
   397  3.96  0.  0.
   398  3.97  0.  0.
   399  3.98  0.  0.
   400  3.99  0.  0.
   401  4.00  0.  0.
   402  4.01  0.  0.
   403  4.02  0.  0.
   404  4.03  0.  0.
   405  4.04  0.  0.
   406  4.05  0.  0.
   407  4.06  0.  0.
   408  4.07  0.  0.
   409  4.08  0.  0.
   410  4.09  0.  0.
   411  4.10  0.  0.
   412  4.11  0.  0.
   413  4.12  0.  0.
   414  4.13  0.  0.
   415  4.14  0.  0.
   416  4.15  0.  0.
   417  4.16  0.  0.
   418  4.17  0.  0.
   419  4.18  0.  0.
   420  4.19  0.  0.
   421  4.20  0.  0.
   422  4.21  0.  0.
   423  4.22  0.  0.
   424  4.23  0.  0.
   425  4.24  0.  0.
   426  4.25  0.  0.
   427  4.26  0.  0.
   428  4.27  0.  0.
   429  4.28  0.  0.
   430  4.29  0.  0.
   431  4.30  0.  0.
   432  4.31  0.  0.
   433  4.32  0.  0.
   434  4.33  0.  0.
   435  4.34  0.  0.
   436  4.35  0.  0.
   437  4.36  0.  0.
   438  4.37  0.  0.
   439  4.38  0.  0.
   440  4.39  0.  0.
   441  4.40  0.  0.
   442  4.41  0.  0.
   443  4.42  0.  0.
   444  4.43  0.  0.
   445  4.44  0.  0.
   446  4.45  0.  0.
   447  4.46  0.  0.
   448  4.47  0.  0.
   449  4.48  0.  0.
   450  4.49  0.  0.
   451  4.50  0.  0.
   452  4.51  0.  0.
   453  4.52  0.  0.
   454  4.53  0.  0.
   455  4.54  0.  0.
   456  4.55  0.  0.
   457  4.56  0.  0.
   458  4.57  0.  0.
   459  4.58  0.  0.
   460  4.59  0.  0.
   461  4.60  0.  0.
   462  4.61  0.  0.
   463  4.62  0.  0.
   464  4.63  0.  0.
   465  4.64  0.  0.
   466  4.65  0.  0.
   467  4.66  0.  0.
   468  4.67  0.  0.
   469  4.68  0.  0.
   470  4.69  0.  0.
   471  4.70  0.  0.
   472  4.71  0.  0.
   473  4.72  0.  0.
   474  4.73  0.  0.
   475  4.74  0.  0.
   476  4.75  0.  0.
   477  4.76  0.  0.
   478  4.77  0.  0.
   479  4.78  0.  0.
   480  4.79  0.  0.
   481  4.80  0.  0.
   482  4.81  0.  0.
   483  4.82  0.  0.
   484  4.83  0.  0.
   485  4.84  0.  0.
   486  4.85  0.  0.
   487  4.86  0.  0.
   488  4.87  0.  0.
   489  4.88  0.  0.
   490  4.89  0.  0.
   491  4.90  0.  0.
   492  4.91  0.  0.
   493  4.92  0.  0.
   494  4.93  0.  0.
   495  4.94  0.  0.
   496  4.95  0.  0.
   497  4.96  0.  0.
   498  4.97  0.  0.
   499  4.98  0.  0.
   500  4.99  0.  0.
   501  5.00  0.  0.
   502  5.01  0.  0.
   503  5.02  0.  0.
   504  5.03  0.  0.
   505  5.04  0.  0.
   506  5.05  0.  0.
   507  5.06  0.  0.
   508  5.07  0.  0.
   509  5.08  0.  0.
   510  5.09  0.  0.
   511  5.10  0.  0.
   512  5.11  0.  0.
   513  5.12  0.  0.
   514  5.13  0.  0.
   515  5.14  0.  0.
   516  5.15  0.  0.
   517  5.16  0.  0.
   518  5.17  0.  0.
   519  5.18  0.  0.
   520  5.19  0.  0.
   521  5.20  0.  0.
   522  5.21  0.  0.
   523  5.22  0.  0.
   524  5.23  0.  0.
   525  5.24  0.  0.
   526  5.25  0.  0.
   527  5.26  0.  0.
   528  5.27  0.  0.
   529  5.28  0.  0.
   530  5.29  0.  0.
   531  5.30  0.  0.
   532  5.31  0.  0.
   533  5.32  0.  0.
   534  5.33  0.  0.
   535  5.34  0.  0.
   536  5.35  0.  0.
   537  5.36  0.  0.
   538  5.37  0.  0.
   539  5.38  0.  0.
   540  5.39  0.  0.
   541  5.40  0.  0.
   542  5.41  0.  0.
   543  5.42  0.  0.
   544  5.43  0.  0.
   545  5.44  0.  0.
   546  5.45  0.  0.
   547  5.46  0.  0.
   548  5.47  0.  0.
   549  5.48  0.  0.
   550  5.49  0.  0.
   551  5.50  0.  0.
   552  5.51  0.  0.
   553  5.52  0.  0.
   554  5.53  0.  0.
   555  5.54  0.  0.
   556  5.55  0.  0.
   557  5.56  0.  0.
   558  5.57  0.  0.
   559  5.58  0.  0.
   560  5.59  0.  0.
   561  5.60  0.  0.
   562  5.61  0.  0.
   563  5.62  0.  0.
   564  5.63  0.  0.
   565  5.64  0.  0.
   566  5.65  0.  0.
   567  5.66  0.  0.
   568  5.67  0.  0.
   569  5.68  0.  0.
   570  5.69  0.  0.
   571  5.70  0.  0.
   572  5.71  0.  0.
   573  5.72  0.  0.
   574  5.73  0.  0.
   575  5.74  0.  0.
   576  5.75  0.  0.
   577  5.76  0.  0.
   578  5.77  0.  0.
   579  5.78  0.  0.
   580  5.79  0.  0.
   581  5.80  0.  0.
   582  5.81  0.  0.
   583  5.82  0.  0.
   584  5.83  0.  0.
   585  5.84  0.  0.
   586  5.85  0.  0.
   587  5.86  0.  0.
   588  5.87  0.  0.
   589  5.88  0.  0.
   590  5.89  0.  0.
   591  5.90  0.  0.
   592  5.91  0.  0.
   593  5.92  0.  0.
   594  5.93  0.  0.
   595  5.94  0.  0.
   596  5.95  0.  0.
   597  5.96  0.  0.
   598  5.97  0.  0.
   599  5.98  0.  0.
   600  5.99  0.  0.
   1                         5.3211656211482E+00  1.0271771930480E+00  6.0725620414857E-03
     1  0.0000000000000E+00  1.5183568277677E-08 -1.5340052464397E-08  6.7879109624802E-09
     2  1.0000000000000E-02  1.5827331744476E-03 -1.1926763750479E-03 -1.4973074228106E-04
     3  2.0000000000000E-02  6.3021680325855E-03 -4.7426152400335E-03 -6.1027373932925E-04
     4  3.0000000000000E-02  1.4072524673299E-02 -1.0566059432159E-02 -1.4154511023821E-03
     5  4.0000000000000E-02  2.4752541531738E-02 -1.8525116925297E-02 -2.6208695709827E-03
     6  5.0000000000000E-02  3.8148002437931E-02 -2.8430284995645E-02 -4.3027888792955E-03
     7  6.0000000000000E-02  5.4015214316780E-02 -4.0043923172155E-02 -6.5565643155023E-03
     8  7.0000000000000E-02  7.2065376533092E-02 -5.3084615301631E-02 -9.4946897987365E-03
     9  8.0000000000000E-02  9.1969767701739E-02 -6.7232345718329E-02 -1.3244474585918E-02
    10  9.0000000000000E-02  1.1336566181696E-01 -8.2134400411243E-02 -1.7945392971093E-02
    11  1.0000000000000E-01  1.3586287303635E-01 -9.7411891463793E-02 -2.3746151955556E-02
    12  1.1000000000000E-01  1.5905081759141E-01 -1.1266679211128E-01 -3.0801526753033E-02
    13  1.2000000000000E-01  1.8250597226773E-01 -1.2748936070482E-01 -3.9269018073107E-02
    14  1.3000000000000E-01  2.0579960185550E-01 -1.4146582483983E-01 -4.9305388330166E-02
    15  1.4000000000000E-01  2.2850562303353E-01 -1.5418619202307E-01 -6.1063136199661E-02
    16  1.5000000000000E-01  2.5020846940313E-01 -1.6525205060035E-01 -7.4686970252802E-02
    17  1.6000000000000E-01  2.7051082188126E-01 -1.7428422429666E-01 -9.0310342718795E-02
    18  1.7000000000000E-01  2.8904107040994E-01 -1.8093014564431E-01 -1.0805210374464E-01
    19  1.8000000000000E-01  3.0546037691744E-01 -1.8487081776687E-01 -1.2801333485440E-01
    20  1.9000000000000E-01  3.1946921561798E-01 -1.8582724038619E-01 -1.5027441767683E-01
    21  2.0000000000000E-01  3.3081327496656E-01 -1.8356618442688E-01 -1.7489239045150E-01
    22  2.1000000000000E-01  3.3928861576518E-01 -1.7790521007553E-01 -2.0189864039439E-01
    23  2.2000000000000E-01  3.4474599188768E-01 -1.6871683544429E-01 -2.3129697477226E-01
    24  2.3000000000000E-01  3.4709425366207E-01 -1.5593177689442E-01 -2.6306210758235E-01
    25  2.4000000000000E-01  3.4630276890642E-01 -1.3954119737315E-01 -2.9713859215351E-01
    26  2.5000000000000E-01  3.4240281271807E-01 -1.1959791555916E-01 -3.3344022287952E-01
    27  2.6000000000000E-01  3.3548789410791E-01 -9.6216545933853E-02 -3.7184992177903E-01
    28  2.7000000000000E-01  3.2571300517785E-01 -6.9572557814553E-02 -4.1222011776486E-01
    29  2.8000000000000E-01  3.1329279647626E-01 -3.9900259611270E-02 -4.5437361852677E-01
    30  2.9000000000000E-01  2.9849870014185E-01 -7.4897328006731E-03 -4.9810496690942E-01
    31  3.0000000000000E-01  2.8165504016819E-01  2.7317241949173E-02 -5.4318226573260E-01
    32  3.1000000000000E-01  2.6313418629929E-01  6.4132206719451E-02 -5.8934944727962E-01
    33  3.2000000000000E-01  2.4335082441822E-01  1.0252592009012E-01 -6.3632895629729E-01
    34  3.3000000000000E-01  2.2275543154567E-01  1.4203503112279E-01 -6.8382480842685E-01
    35  3.4000000000000E-01  2.0182705746926E-01  1.8216942809439E-01 -7.3152597963334E-01
    36  3.5000000000000E-01  1.8106552734372E-01  2.2242014424083E-01 -7.7911007652334E-01
    37  3.6000000000000E-01  1.6098319012748E-01  2.6226769237236E-01 -8.2624723253594E-01
    38  3.7000000000000E-01  1.4209634627161E-01  3.0119069186740E-01 -8.7260417093679E-01
    39  3.8000000000000E-01  1.2491649450099E-01  3.3867464539085E-01 -9.1784837241412E-01
    40  3.9000000000000E-01  1.0994154170910E-01  3.7422071883092E-01 -9.6165228292030E-01
    41  4.0000000000000E-01  9.7647121843429E-02  4.0735437648562E-01 -1.0036974962642E+00
    42  4.1000000000000E-01  8.8478169144607E-02  4.3763372449694E-01 -1.0436788458628E+00
    43  4.2000000000000E-01  8.2840888211034E-02  4.6465741892910E-01 -1.0813083410103E+00
    44  4.3000000000000E-01  8.1095258123135E-02  4.8807200068050E-01 -1.1163188850147E+00
    45  4.4000000000000E-01  8.3548200346175E-02  5.0757852753050E-01 -1.1484677155543E+00
    46  4.5000000000000E-01  9.0447530443572E-02  5.2293838393770E-01 -1.1775395115851E+00
    47  4.6000000000000E-01  1.0197680191491E-01  5.3397816157609E-01 -1.2033491160187E+00
    48  4.7000000000000E-01  1.1825113689902E-01  5.4059351783365E-01 -1.2257438291289E+00
    49  4.8000000000000E-01  1.3931412325810E-01  5.4275193538957E-01 -1.2446052341324E+00
    50  4.9000000000000E-01  1.6513584091687E-01  5.4049432328607E-01 -1.2598505235449E+00
    51  5.0000000000000E-01  1.9561206252878E-01  5.3393541835049E-01 -1.2714333026110E+00
    52  5.1000000000000E-01  2.3056465485722E-01  5.2326296511334E-01 -1.2793438542417E+00
    53  5.2000000000000E-01  2.6974318798637E-01  5.0873567220363E-01 -1.2836088583290E+00
    54  5.3000000000000E-01  3.1282773992049E-01  4.9067996326730E-01 -1.2842905669198E+00
    55  5.4000000000000E-01  3.5943286460172E-01  4.6948556042610E-01 -1.2814854453819E+00
    56  5.5000000000000E-01  4.0911267219091E-01  4.4559995784902E-01 -1.2753222982446E+00
    57  5.6000000000000E-01  4.6136695192143E-01  4.1952186182670E-01 -1.2659599067170E+00
    58  5.7000000000000E-01  5.1564825025692E-01  3.9179369151202E-01 -1.2535842128344E+00
    59  5.8000000000000E-01  5.7136980074778E-01  3.6299325091956E-01 -1.2384050926403E+00
    60  5.9000000000000E-01  6.2791418716096E-01  3.3372469758785E-01 -1.2206527676467E+00
    61  6.0000000000000E-01  6.8464260840200E-01  3.0460894624610E-01 -1.2005739099236E+00
    62  6.1000000000000E-01  7.4090460268054E-01  2.7627365666686E-01 -1.1784275014460E+00
    63  6.2000000000000E-01  7.9604807948527E-01  2.4934296343371E-01 -1.1544805126806E+00
    64  6.3000000000000E-01  8.4942950138964E-01  2.2442711144867E-01 -1.1290034687536E+00
    65  6.4000000000000E-01  9.0042405363285E-01  2.0211216452727E-01 -1.1022659738439E+00
    66  6.5000000000000E-01  9.4843563789492E-01  1.8294995529756E-01 -1.0745322656455E+00
    67  6.6000000000000E-01  9.9290652775878E-01  1.6744844279375E-01 -1.0460568718167E+00
    68  6.7000000000000E-01  1.0333265270304E+00  1.5606263961764E-01 -1.0170804392655E+00
    69  6.8000000000000E-01  1.0692414783356E+00  1.4918626337695E-01 -9.8782580492615E-01
    70  6.9000000000000E-01  1.1002609781505E+00  1.4714425738783E-01 -9.5849437337813E-01
    71  7.0000000000000E-01  1.1260651655399E+00  1.5018631347679E-01 -9.2926286229867E-01
    72  7.1000000000000E-01  1.1464104652113E+00  1.5848151530655E-01 -9.0028047137094E-01
    73  7.2000000000000E-01  1.1611341808600E+00  1.7211420418426E-01 -8.7166652398539E-01
    74  7.3000000000000E-01  1.1701578519468E+00  1.9108115103379E-01 -8.4350862394345E-01
    75  7.4000000000000E-01  1.1734893057707E+00  2.1529009839335E-01 -8.1586136152345E-01
    76  7.5000000000000E-01  1.1712233566830E+00  2.4455971523943E-01 -7.8874559480088E-01
    77  7.6000000000000E-01  1.1635411252346E+00  2.7862098545555E-01 -7.6214832316936E-01
    78  7.7000000000000E-01  1.1507079716391E+00  3.1712002819838E-01 -7.3602316071028E-01
    79  7.8000000000000E-01  1.1330700598271E+00  3.5962232561806E-01 -7.1029140755673E-01
    80  7.9000000000000E-01  1.1110495902249E+00  4.0561831071883E-01 -6.8484370783884E-01
    81  8.0000000000000E-01  1.0851387608675E+00  4.5453024596238E-01 -6.5954227332540E-01
    82  8.1000000000000E-01  1.0558925372120E+00  5.0572030187226E-01 -6.3422364264824E-01
    83  8.2000000000000E-01  1.0239203307131E+00  5.5849972474062E-01 -6.0870193714982E-01
    84  8.3000000000000E-01  9.8987670455168E-01  6.1213896389749E-01 -5.8277256607650E-01
    85  8.4000000000000E-01  9.5445124155268E-01  6.6587861218584E-01 -5.5621632618346E-01
    86  8.5000000000000E-01  9.1835772402820E-01  7.1894099857835E-01 -5.2880383394641E-01
    87  8.6000000000000E-01  8.8232278777921E-01  7.7054225952493E-01 -5.0030022260356E-01
    88  8.7000000000000E-01  8.4707422257023E-01  8.1990470585331E-01 -4.7047003128186E-01
    89  8.8000000000000E-01  8.1332909887635E-01  8.6626929503820E-01 -4.3908220957821E-01
    90  8.9000000000000E-01  7.8178190545016E-01  9.0890801454553E-01 -4.0591515823767E-01
    91  9.0000000000000E-01  7.5309288416682E-01  9.4713598084231E-01 -3.7076172505409E-01
    92  9.1000000000000E-01  7.2787674762430E-01  9.8032306058789E-01 -3.3343407484250E-01
    93  9.2000000000000E-01  7.0669196108976E-01  1.0079048254906E+00 -2.9376835331662E-01
    94  9.3000000000000E-01  6.9003076362861E-01  1.0293926602780E+00 -2.5162906693964E-01
    95  9.4000000000000E-01  6.7831009370574E-01  1.0443828540983E+00 -2.0691310428803E-01