Ga    ONCVPSP-4.0.1  r_core=   1.65620   1.75830   1.90049
     31.0000     13.0000      231019    zatom,zion,pspd
     8       2   2     4   600     0    pspcod,pspxc,lmax,lloc,mmax,r2well
  5.99000000  5.00000000  0.00000000    rchrg fchrg qchrg
     2     2     2     0     0    nproj
     1     1           extension_switch
   0                         6.8509537067170E+00  1.0881742818200E+00
     1  0.0000000000000E+00 -6.7936503644894E-09  1.3356491690431E-08
     2  1.0000000000000E-02  5.1222905724122E-02 -5.5220084804571E-02
     3  2.0000000000000E-02  1.0200232283845E-01 -1.0957484212277E-01
     4  3.0000000000000E-02  1.5190183105481E-01 -1.6221284505197E-01
     5  4.0000000000000E-02  2.0049903386238E-01 -2.1231024614906E-01
     6  5.0000000000000E-02  2.4739229001698E-01 -2.5908401636157E-01
     7  6.0000000000000E-02  2.9220711346804E-01 -3.0180453266736E-01
     8  7.0000000000000E-02  3.3460213931576E-01 -3.3980731327739E-01
     9  8.0000000000000E-02  3.7427456018473E-01 -3.7250371261245E-01
    10  9.0000000000000E-02  4.1096494569426E-01 -3.9939040457067E-01
    11  1.0000000000000E-01  4.4446136737196E-01 -4.2005750160533E-01
    12  1.1000000000000E-01  4.7460276224752E-01 -4.3419517854136E-01
    13  1.2000000000000E-01  5.0128148030996E-01 -4.4159869354144E-01
    14  1.3000000000000E-01  5.2444497382936E-01 -4.4217172382759E-01
    15  1.4000000000000E-01  5.4409660003656E-01 -4.3592796028220E-01
    16  1.5000000000000E-01  5.6029552261181E-01 -4.2299093248332E-01
    17  1.6000000000000E-01  5.7315571164101E-01 -4.0359206364816E-01
    18  1.7000000000000E-01  5.8284405593612E-01 -3.7806698293360E-01
    19  1.8000000000000E-01  5.8957761566295E-01 -3.4685015013908E-01
    20  1.9000000000000E-01  5.9362005685817E-01 -3.1046787464607E-01
    21  2.0000000000000E-01  5.9527732243420E-01 -2.6952983599232E-01
    22  2.1000000000000E-01  5.9489260646458E-01 -2.2471923741950E-01
    23  2.2000000000000E-01  5.9284070972047E-01 -1.7678174567362E-01
    24  2.3000000000000E-01  5.8952186441807E-01 -1.2651338993515E-01
    25  2.4000000000000E-01  5.8535512477712E-01 -7.4747609699554E-02
    26  2.5000000000000E-01  5.8077142714684E-01 -2.2341655449514E-02
    27  2.6000000000000E-01  5.7620642901196E-01  2.9837443166633E-02
    28  2.7000000000000E-01  5.7209324005769E-01  8.0927119388317E-02
    29  2.8000000000000E-01  5.6885516058459E-01  1.3008349526994E-01
    30  2.9000000000000E-01  5.6689854288348E-01  1.7649536455275E-01
    31  3.0000000000000E-01  5.6660588969704E-01  2.1939770852669E-01
    32  3.1000000000000E-01  5.6832930062616E-01  2.5808452741145E-01
    33  3.2000000000000E-01  5.7238437232944E-01  2.9192077969065E-01
    34  3.3000000000000E-01  5.7904465168512E-01  3.2035323501824E-01
    35  3.4000000000000E-01  5.8853673283540E-01  3.4292006258563E-01
    36  3.5000000000000E-01  6.0103607933266E-01  3.5925899595484E-01
    37  3.6000000000000E-01  6.1666364160280E-01  3.6911393703859E-01
    38  3.7000000000000E-01  6.3548332779670E-01  3.7233988581830E-01
    39  3.8000000000000E-01  6.5750037299989E-01  3.6890610817391E-01
    40  3.9000000000000E-01  6.8266063791203E-01  3.5889748146338E-01
    41  4.0000000000000E-01  7.1085085370238E-01  3.4251398581992E-01
    42  4.1000000000000E-01  7.4189981501550E-01  3.2006833809576E-01
    43  4.2000000000000E-01  7.7558050826833E-01  2.9198179453083E-01
    44  4.3000000000000E-01  8.1161314767549E-01  2.5877817710887E-01
    45  4.4000000000000E-01  8.4966907708933E-01  2.2107620673941E-01
    46  4.5000000000000E-01  8.8937548197063E-01  1.7958025342877E-01
    47  4.6000000000000E-01  9.3032084282694E-01  1.3506963905742E-01
    48  4.7000000000000E-01  9.7206104947480E-01  8.8386651862051E-02
    49  4.8000000000000E-01  1.0141260846870E+00  4.0423452857011E-02
    50  4.9000000000000E-01  1.0560271763496E+00 -7.8919271154295E-03
    51  5.0000000000000E-01  1.0972643093269E+00 -5.5610285542954E-02
    52  5.1000000000000E-01  1.1373339819467E+00 -1.0177641520645E-01
    53  5.2000000000000E-01  1.1757370874769E+00 -1.4544450474559E-01
    54  5.3000000000000E-01  1.2119867982460E+00 -1.8569353241725E-01
    55  5.4000000000000E-01  1.2456163292190E+00 -2.2164241112327E-01
    56  5.5000000000000E-01  1.2761864588931E+00 -2.5246464500561E-01
    57  5.6000000000000E-01  1.3032926883286E+00 -2.7740226385149E-01
    58  5.7000000000000E-01  1.3265719239280E+00 -2.9577881114595E-01
    59  5.8000000000000E-01  1.3457085761807E+00 -3.0701117472974E-01
    60  5.9000000000000E-01  1.3604399748813E+00 -3.1062006548104E-01
    61  6.0000000000000E-01  1.3705610112179E+00 -3.0623896901149E-01
    62  6.1000000000000E-01  1.3759279284464E+00 -2.9362141776263E-01
    63  6.2000000000000E-01  1.3764611954674E+00 -2.7264645578396E-01
    64  6.3000000000000E-01  1.3721474113109E+00 -2.4332219549983E-01
    65  6.4000000000000E-01  1.3630402031094E+00 -2.0578739452804E-01
    66  6.5000000000000E-01  1.3492600953835E+00 -1.6031101066531E-01
    67  6.6000000000000E-01  1.3309933441486E+00 -1.0728972405609E-01
    68  6.7000000000000E-01  1.3084897452340E+00 -4.7243446835249E-02
    69  6.8000000000000E-01  1.2820594420507E+00  1.9191128285186E-02
    70  6.9000000000000E-01  1.2520687736081E+00  9.1268858417270E-02
    71  7.0000000000000E-01  1.2189352186182E+00  1.6814624826554E-01
    72  7.1000000000000E-01  1.1831215058104E+00  2.4889317560064E-01
    73  7.2000000000000E-01  1.1451289738916E+00  3.3250607867581E-01
    74  7.3000000000000E-01  1.1054902767030E+00  4.1792241608591E-01
    75  7.4000000000000E-01  1.0647615398717E+00  5.0403618855899E-01
    76  7.5000000000000E-01  1.0235140844449E+00  5.8971429423741E-01
    77  7.6000000000000E-01  9.8232584048674E-01  6.7381347443522E-01
    78  7.7000000000000E-01  9.4177257928574E-01  7.5519759589765E-01
    79  7.8000000000000E-01  9.0241909656231E-01  8.3275500842762E-01
    80  7.9000000000000E-01  8.6481048082215E-01  9.0541571351368E-01
    81  8.0000000000000E-01  8.2946360072120E-01  9.7216808037256E-01
    82  8.1000000000000E-01  7.9685894299392E-01  1.0320748506164E+00
    83  8.2000000000000E-01  7.6743292816411E-01  1.0842881815265E+00
    84  8.3000000000000E-01  7.4157082496342E-01  1.1280634905530E+00
    85  8.4000000000000E-01  7.1960037620945E-01  1.1627718799931E+00
    86  8.5000000000000E-01  7.0178623895541E-01  1.1879109406116E+00
    87  8.6000000000000E-01  6.8832533015660E-01  1.2031137559693E+00
    88  8.7000000000000E-01  6.7934315607104E-01  1.2081559550960E+00
    89  8.8000000000000E-01  6.7489118931144E-01  1.2029606895084E+00
    90  8.9000000000000E-01  6.7494534210066E-01  1.1876014410109E+00
    91  9.0000000000000E-01  6.7940556808133E-01  1.1623025987917E+00
    92  9.1000000000000E-01  6.8809660823065E-01  1.1274377775473E+00
    93  9.2000000000000E-01  7.0076987928452E-01  1.0835258822549E+00
    94  9.3000000000000E-01  7.1710648584102E-01  1.0312249592423E+00
    95  9.4000000000000E-01  7.3672132024594E-01  9.7132390687570E-01
    96  9.5000000000000E-01  7.5916819772877E-01  9.0473215197710E-01
    97  9.6000000000000E-01  7.8394595830447E-01  8.3246742949888E-01
    98  9.7000000000000E-01  8.1050545193147E-01  7.5564183254205E-01
    99  9.8000000000000E-01  8.3825730955560E-01  6.7544632703540E-01
   100  9.9000000000000E-01  8.6658039017939E-01  5.9313394989457E-01
   101  1.0000000000000E+00  8.9483078318434E-01  5.1000193084007E-01
   102  1.0100000000000E+00  9.2235123596503E-01  4.2737299594984E-01
   103  1.0200000000000E+00  9.4848086966451E-01  3.4657612514720E-01
   104  1.0300000000000E+00  9.7256504053831E-01  2.6892704596928E-01
   105  1.0400000000000E+00  9.9396520132811E-01  1.9570875191150E-01
   106  1.0500000000000E+00  1.0120686160353E+00  1.2815233532461E-01
   107  1.0600000000000E+00  1.0262977826940E+00  6.7418422168302E-02
   108  1.0700000000000E+00  1.0361194221326E+00  1.4579488938030E-02
   109  1.0800000000000E+00  1.0410528962492E+00 -2.9396669142935E-02
   110  1.0900000000000E+00  1.0406779269502E+00 -6.3662064931948E-02
   111  1.1000000000000E+00  1.0346414964663E+00 -8.7502006616285E-02
   112  1.1100000000000E+00  1.0226638212163E+00 -1.0034673376180E-01
   113  1.1200000000000E+00  1.0045433044492E+00 -1.0178101658323E-01
   114  1.1300000000000E+00  9.8016038753241E-01 -9.1551562031529E-02
   115  1.1400000000000E+00  9.4948023556861E-01 -6.9572101775322E-02
   116  1.1500000000000E+00  9.1255420999466E-01 -3.5926070897797E-02
   117  1.1600000000000E+00  8.6952009846120E-01  9.1331788129565E-03
   118  1.1700000000000E+00  8.2060109061645E-01  6.5184650727651E-02
   119  1.1800000000000E+00  7.6610350683893E-01  1.3164444360333E-01
   120  1.1900000000000E+00  7.0641330556495E-01  2.0777290651851E-01
   121  1.2000000000000E+00  6.4199141297710E-01  2.9268411897495E-01
   122  1.2100000000000E+00  5.7336793654553E-01  3.8535757155023E-01
   123  1.2200000000000E+00  5.0113534070195E-01  4.8465188929556E-01
   124  1.2300000000000E+00  4.2594067866180E-01  5.8932040899644E-01
   125  1.2400000000000E+00  3.4847698886961E-01  6.9802839288989E-01
   126  1.2500000000000E+00  2.6947397735847E-01  8.0937163618942E-01
   127  1.2600000000000E+00  1.8968811849008E-01  9.2189620380014E-01
   128  1.2700000000000E+00  1.0989231573824E-01  1.0341190135793E+00
   129  1.2800000000000E+00  3.0865271314876E-02  1.1445489695717E+00
   130  1.2900000000000E+00 -4.6619281562944E-02  1.2517083389745E+00
   131  1.3000000000000E+00 -1.2180332727713E-01  1.3541540615048E+00
   132  1.3100000000000E+00 -1.9395514037862E-01  1.4504986792720E+00
   133  1.3200000000000E+00 -2.6237952714162E-01  1.5394305793381E+00
   134  1.3300000000000E+00 -3.2642758534843E-01  1.6197332498035E+00
   135  1.3400000000000E+00 -3.8550583802368E-01  1.6903032633581E+00
   136  1.3500000000000E+00 -4.3908460544452E-01  1.7501667195784E+00
   137  1.3600000000000E+00 -4.8670549046164E-01  1.7984938987508E+00
   138  1.3700000000000E+00 -5.2798786469605E-01  1.8346119051072E+00
   139  1.3800000000000E+00 -5.6263425745026E-01  1.8580151059170E+00
   140  1.3900000000000E+00 -5.9043456489281E-01  1.8683732042940E+00
   141  1.4000000000000E+00 -6.1126901416487E-01  1.8655368176941E+00
   142  1.4100000000000E+00 -6.2510983504307E-01  1.8495404699620E+00
   143  1.4200000000000E+00 -6.3202161062483E-01  1.8206029423285E+00
   144  1.4300000000000E+00 -6.3216029773399E-01  1.7791249670771E+00
   145  1.4400000000000E+00 -6.2577092721954E-01  1.7256842863844E+00
   146  1.4500000000000E+00 -6.1318401369424E-01  1.6610281374003E+00
   147  1.4600000000000E+00 -5.9481072319404E-01  1.5860632623037E+00
   148  1.4700000000000E+00 -5.7113686555017E-01  1.5018435784846E+00
   149  1.4800000000000E+00 -5.4271579562296E-01  1.4095556785011E+00
   150  1.4900000000000E+00 -5.1016032367312E-01  1.3105023614968E+00
   151  1.5000000000000E+00 -4.7413374985312E-01  1.2060844269666E+00
   152  1.5100000000000E+00 -4.3534015084947E-01  1.0977809876398E+00
   153  1.5200000000000E+00 -3.9451405784543E-01  9.8712858033335E-01
   154  1.5300000000000E+00 -3.5240967412048E-01  8.7569937172869E-01
   155  1.5400000000000E+00 -3.0978978756119E-01  7.6507876977193E-01
   156  1.5500000000000E+00 -2.6741453848086E-01  6.5684276119026E-01
   157  1.5600000000000E+00 -2.2603020185090E-01  5.5253529531509E-01
   158  1.5700000000000E+00 -1.8635815809980E-01  4.5364605344459E-01
   159  1.5800000000000E+00 -1.4908323888132E-01  3.6158764079632E-01
   160  1.5900000000000E+00 -1.1484363432350E-01  2.7767542049733E-01
   161  1.6000000000000E+00 -8.4226255360218E-02  2.0311470337977E-01
   162  1.6100000000000E+00 -5.7753180939467E-02  1.3897635720954E-01
   163  1.6200000000000E+00 -3.5873773211628E-02  8.6181223743392E-02
   164  1.6300000000000E+00 -1.8963366133656E-02  4.5500257862423E-02
   165  1.6400000000000E+00 -7.2603573900957E-03  1.7406344592335E-02
   166  1.6500000000000E+00 -1.1732873103184E-03  2.8116933878837E-03
   167  1.6600000000000E+00  1.3460221477542E-04 -3.2251327038969E-04
   168  1.6700000000000E+00 -3.9902221299549E-05  9.5605881264087E-05
   169  1.68  0. -0.
   170  1.69  0. -0.
   171  1.70  0.  0.
   172  1.71  0.  0.
   173  1.72  0.  0.
   174  1.73  0.  0.
   175  1.74  0.  0.
   176  1.75  0.  0.
   177  1.76  0.  0.
   178  1.77  0.  0.
   179  1.78  0.  0.
   180  1.79  0.  0.
   181  1.80  0.  0.
   182  1.81  0.  0.
   183  1.82  0.  0.
   184  1.83  0.  0.
   185  1.84  0.  0.
   186  1.85  0.  0.
   187  1.86  0.  0.
   188  1.87  0.  0.
   189  1.88  0.  0.
   190  1.89  0.  0.
   191  1.90  0.  0.
   192  1.91  0.  0.
   193  1.92  0.  0.
   194  1.93  0.  0.
   195  1.94  0.  0.
   196  1.95  0.  0.
   197  1.96  0.  0.
   198  1.97  0.  0.
   199  1.98  0.  0.
   200  1.99  0.  0.
   201  2.00  0.  0.
   202  2.01  0.  0.
   203  2.02  0.  0.
   204  2.03  0.  0.
   205  2.04  0.  0.
   206  2.05  0.  0.
   207  2.06  0.  0.
   208  2.07  0.  0.
   209  2.08  0.  0.
   210  2.09  0.  0.
   211  2.10  0.  0.
   212  2.11  0.  0.
   213  2.12  0.  0.
   214  2.13  0.  0.
   215  2.14  0.  0.
   216  2.15  0.  0.
   217  2.16  0.  0.
   218  2.17  0.  0.
   219  2.18  0.  0.
   220  2.19  0.  0.
   221  2.20  0.  0.
   222  2.21  0.  0.
   223  2.22  0.  0.
   224  2.23  0.  0.
   225  2.24  0.  0.
   226  2.25  0.  0.
   227  2.26  0.  0.
   228  2.27  0.  0.
   229  2.28  0.  0.
   230  2.29  0.  0.
   231  2.30  0.  0.
   232  2.31  0.  0.
   233  2.32  0.  0.
   234  2.33  0.  0.
   235  2.34  0.  0.
   236  2.35  0.  0.
   237  2.36  0.  0.
   238  2.37  0.  0.
   239  2.38  0.  0.
   240  2.39  0.  0.
   241  2.40  0.  0.
   242  2.41  0.  0.
   243  2.42  0.  0.
   244  2.43  0.  0.
   245  2.44  0.  0.
   246  2.45  0.  0.
   247  2.46  0.  0.
   248  2.47  0.  0.
   249  2.48  0.  0.
   250  2.49  0.  0.
   251  2.50  0.  0.
   252  2.51  0.  0.
   253  2.52  0.  0.
   254  2.53  0.  0.
   255  2.54  0.  0.
   256  2.55  0.  0.
   257  2.56  0.  0.
   258  2.57  0.  0.
   259  2.58  0.  0.
   260  2.59  0.  0.
   261  2.60  0.  0.
   262  2.61  0.  0.
   263  2.62  0.  0.
   264  2.63  0.  0.
   265  2.64  0.  0.
   266  2.65  0.  0.
   267  2.66  0.  0.
   268  2.67  0.  0.
   269  2.68  0.  0.
   270  2.69  0.  0.
   271  2.70  0.  0.
   272  2.71  0.  0.
   273  2.72  0.  0.
   274  2.73  0.  0.
   275  2.74  0.  0.
   276  2.75  0.  0.
   277  2.76  0.  0.
   278  2.77  0.  0.
   279  2.78  0.  0.
   280  2.79  0.  0.
   281  2.80  0.  0.
   282  2.81  0.  0.
   283  2.82  0.  0.
   284  2.83  0.  0.
   285  2.84  0.  0.
   286  2.85  0.  0.
   287  2.86  0.  0.
   288  2.87  0.  0.
   289  2.88  0.  0.
   290  2.89  0.  0.
   291  2.90  0.  0.
   292  2.91  0.  0.
   293  2.92  0.  0.
   294  2.93  0.  0.
   295  2.94  0.  0.
   296  2.95  0.  0.
   297  2.96  0.  0.
   298  2.97  0.  0.
   299  2.98  0.  0.
   300  2.99  0.  0.
   301  3.00  0.  0.
   302  3.01  0.  0.
   303  3.02  0.  0.
   304  3.03  0.  0.
   305  3.04  0.  0.
   306  3.05  0.  0.
   307  3.06  0.  0.
   308  3.07  0.  0.
   309  3.08  0.  0.
   310  3.09  0.  0.
   311  3.10  0.  0.
   312  3.11  0.  0.
   313  3.12  0.  0.
   314  3.13  0.  0.
   315  3.14  0.  0.
   316  3.15  0.  0.
   317  3.16  0.  0.
   318  3.17  0.  0.
   319  3.18  0.  0.
   320  3.19  0.  0.
   321  3.20  0.  0.
   322  3.21  0.  0.
   323  3.22  0.  0.
   324  3.23  0.  0.
   325  3.24  0.  0.
   326  3.25  0.  0.
   327  3.26  0.  0.
   328  3.27  0.  0.
   329  3.28  0.  0.
   330  3.29  0.  0.
   331  3.30  0.  0.
   332  3.31  0.  0.
   333  3.32  0.  0.
   334  3.33  0.  0.
   335  3.34  0.  0.
   336  3.35  0.  0.
   337  3.36  0.  0.
   338  3.37  0.  0.
   339  3.38  0.  0.
   340  3.39  0.  0.
   341  3.40  0.  0.
   342  3.41  0.  0.
   343  3.42  0.  0.
   344  3.43  0.  0.
   345  3.44  0.  0.
   346  3.45  0.  0.
   347  3.46  0.  0.
   348  3.47  0.  0.
   349  3.48  0.  0.
   350  3.49  0.  0.
   351  3.50  0.  0.
   352  3.51  0.  0.
   353  3.52  0.  0.
   354  3.53  0.  0.
   355  3.54  0.  0.
   356  3.55  0.  0.
   357  3.56  0.  0.
   358  3.57  0.  0.
   359  3.58  0.  0.
   360  3.59  0.  0.
   361  3.60  0.  0.
   362  3.61  0.  0.
   363  3.62  0.  0.
   364  3.63  0.  0.
   365  3.64  0.  0.
   366  3.65  0.  0.
   367  3.66  0.  0.
   368  3.67  0.  0.
   369  3.68  0.  0.
   370  3.69  0.  0.
   371  3.70  0.  0.
   372  3.71  0.  0.
   373  3.72  0.  0.
   374  3.73  0.  0.
   375  3.74  0.  0.
   376  3.75  0.  0.
   377  3.76  0.  0.
   378  3.77  0.  0.
   379  3.78  0.  0.
   380  3.79  0.  0.
   381  3.80  0.  0.
   382  3.81  0.  0.
   383  3.82  0.  0.
   384  3.83  0.  0.
   385  3.84  0.  0.
   386  3.85  0.  0.
   387  3.86  0.  0.
   388  3.87  0.  0.
   389  3.88  0.  0.
   390  3.89  0.  0.
   391  3.90  0.  0.
   392  3.91  0.  0.
   393  3.92  0.  0.
   394  3.93  0.  0.
   395  3.94  0.  0.
   396  3.95  0.  0.
   397  3.96  0.  0.
   398  3.97  0.  0.
   399  3.98  0.  0.
   400  3.99  0.  0.
   401  4.00  0.  0.
   402  4.01  0.  0.
   403  4.02  0.  0.
   404  4.03  0.  0.
   405  4.04  0.  0.
   406  4.05  0.  0.
   407  4.06  0.  0.
   408  4.07  0.  0.
   409  4.08  0.  0.
   410  4.09  0.  0.
   411  4.10  0.  0.
   412  4.11  0.  0.
   413  4.12  0.  0.
   414  4.13  0.  0.
   415  4.14  0.  0.
   416  4.15  0.  0.
   417  4.16  0.  0.
   418  4.17  0.  0.
   419  4.18  0.  0.
   420  4.19  0.  0.
   421  4.20  0.  0.
   422  4.21  0.  0.
   423  4.22  0.  0.
   424  4.23  0.  0.
   425  4.24  0.  0.
   426  4.25  0.  0.
   427  4.26  0.  0.
   428  4.27  0.  0.
   429  4.28  0.  0.
   430  4.29  0.  0.
   431  4.30  0.  0.
   432  4.31  0.  0.
   433  4.32  0.  0.
   434  4.33  0.  0.
   435  4.34  0.  0.
   436  4.35  0.  0.
   437  4.36  0.  0.
   438  4.37  0.  0.
   439  4.38  0.  0.
   440  4.39  0.  0.
   441  4.40  0.  0.
   442  4.41  0.  0.
   443  4.42  0.  0.
   444  4.43  0.  0.
   445  4.44  0.  0.
   446  4.45  0.  0.
   447  4.46  0.  0.
   448  4.47  0.  0.
   449  4.48  0.  0.
   450  4.49  0.  0.
   451  4.50  0.  0.
   452  4.51  0.  0.
   453  4.52  0.  0.
   454  4.53  0.  0.
   455  4.54  0.  0.
   456  4.55  0.  0.
   457  4.56  0.  0.
   458  4.57  0.  0.
   459  4.58  0.  0.
   460  4.59  0.  0.
   461  4.60  0.  0.
   462  4.61  0.  0.
   463  4.62  0.  0.
   464  4.63  0.  0.
   465  4.64  0.  0.
   466  4.65  0.  0.
   467  4.66  0.  0.
   468  4.67  0.  0.
   469  4.68  0.  0.
   470  4.69  0.  0.
   471  4.70  0.  0.
   472  4.71  0.  0.
   473  4.72  0.  0.
   474  4.73  0.  0.
   475  4.74  0.  0.
   476  4.75  0.  0.
   477  4.76  0.  0.
   478  4.77  0.  0.
   479  4.78  0.  0.
   480  4.79  0.  0.
   481  4.80  0.  0.
   482  4.81  0.  0.
   483  4.82  0.  0.
   484  4.83  0.  0.
   485  4.84  0.  0.
   486  4.85  0.  0.
   487  4.86  0.  0.
   488  4.87  0.  0.
   489  4.88  0.  0.
   490  4.89  0.  0.
   491  4.90  0.  0.
   492  4.91  0.  0.
   493  4.92  0.  0.
   494  4.93  0.  0.
   495  4.94  0.  0.
   496  4.95  0.  0.
   497  4.96  0.  0.
   498  4.97  0.  0.
   499  4.98  0.  0.
   500  4.99  0.  0.
   501  5.00  0.  0.
   502  5.01  0.  0.
   503  5.02  0.  0.
   504  5.03  0.  0.
   505  5.04  0.  0.
   506  5.05  0.  0.
   507  5.06  0.  0.
   508  5.07  0.  0.
   509  5.08  0.  0.
   510  5.09  0.  0.
   511  5.10  0.  0.
   512  5.11  0.  0.
   513  5.12  0.  0.
   514  5.13  0.  0.
   515  5.14  0.  0.
   516  5.15  0.  0.
   517  5.16  0.  0.
   518  5.17  0.  0.
   519  5.18  0.  0.
   520  5.19  0.  0.
   521  5.20  0.  0.
   522  5.21  0.  0.
   523  5.22  0.  0.
   524  5.23  0.  0.
   525  5.24  0.  0.
   526  5.25  0.  0.
   527  5.26  0.  0.
   528  5.27  0.  0.
   529  5.28  0.  0.
   530  5.29  0.  0.
   531  5.30  0.  0.
   532  5.31  0.  0.
   533  5.32  0.  0.
   534  5.33  0.  0.
   535  5.34  0.  0.
   536  5.35  0.  0.
   537  5.36  0.  0.
   538  5.37  0.  0.
   539  5.38  0.  0.
   540  5.39  0.  0.
   541  5.40  0.  0.
   542  5.41  0.  0.
   543  5.42  0.  0.
   544  5.43  0.  0.
   545  5.44  0.  0.
   546  5.45  0.  0.
   547  5.46  0.  0.
   548  5.47  0.  0.
   549  5.48  0.  0.
   550  5.49  0.  0.
   551  5.50  0.  0.
   552  5.51  0.  0.
   553  5.52  0.  0.
   554  5.53  0.  0.
   555  5.54  0.  0.
   556  5.55  0.  0.
   557  5.56  0.  0.
   558  5.57  0.  0.
   559  5.58  0.  0.
   560  5.59  0.  0.
   561  5.60  0.  0.
   562  5.61  0.  0.
   563  5.62  0.  0.
   564  5.63  0.  0.
   565  5.64  0.  0.
   566  5.65  0.  0.
   567  5.66  0.  0.
   568  5.67  0.  0.
   569  5.68  0.  0.
   570  5.69  0.  0.
   571  5.70  0.  0.
   572  5.71  0.  0.
   573  5.72  0.  0.
   574  5.73  0.  0.
   575  5.74  0.  0.
   576  5.75  0.  0.
   577  5.76  0.  0.
   578  5.77  0.  0.
   579  5.78  0.  0.
   580  5.79  0.  0.
   581  5.80  0.  0.
   582  5.81  0.  0.
   583  5.82  0.  0.
   584  5.83  0.  0.
   585  5.84  0.  0.
   586  5.85  0.  0.
   587  5.86  0.  0.
   588  5.87  0.  0.
   589  5.88  0.  0.
   590  5.89  0.  0.
   591  5.90  0.  0.
   592  5.91  0.  0.
   593  5.92  0.  0.
   594  5.93  0.  0.
   595  5.94  0.  0.
   596  5.95  0.  0.
   597  5.96  0.  0.
   598  5.97  0.  0.
   599  5.98  0.  0.
   600  5.99  0.  0.
   1                         5.2999123393220E+00  1.0243366695733E+00
     1  0.0000000000000E+00  1.5142937390134E-08 -1.5358038382707E-08
     2  1.0000000000000E-02  1.5812517448569E-03 -1.1970710146459E-03
     3  2.0000000000000E-02  6.2963136227391E-03 -4.7601534000628E-03
     4  3.0000000000000E-02  1.4059618295962E-02 -1.0605369420992E-02
     5  4.0000000000000E-02  2.4730253954900E-02 -1.8594628162245E-02
     6  5.0000000000000E-02  3.8114484681877E-02 -2.8538152755793E-02
     7  6.0000000000000E-02  5.3969218939232E-02 -4.0197957545622E-02
     8  7.0000000000000E-02  7.2006367342696E-02 -5.3292215450009E-02
     9  8.0000000000000E-02  9.1898015738235E-02 -6.7500440422817E-02
    10  9.0000000000000E-02  1.1328232567167E-01 -8.2469395802140E-02
    11  1.0000000000000E-01  1.3577006185536E-01 -9.7819626701236E-02
    12  1.1000000000000E-01  1.5895163540154E-01 -1.1315250365448E-01
    13  1.2000000000000E-01  1.8240454258719E-01 -1.2805765566366E-01
    14  1.3000000000000E-01  2.0570107189170E-01 -1.4212066375094E-01
    15  1.4000000000000E-01  2.2841614712433E-01 -1.5493088123493E-01
    16  1.5000000000000E-01  2.5013517171873E-01 -1.6608924429107E-01
    17  1.6000000000000E-01  2.7046173876637E-01 -1.7521593598683E-01
    18  1.7000000000000E-01  2.8902507310356E-01 -1.8195776890778E-01
    19  1.8000000000000E-01  3.0548707573438E-01 -1.8599515568790E-01
    20  1.9000000000000E-01  3.1954884700694E-01 -1.8704854316418E-01
    21  2.0000000000000E-01  3.3095657316777E-01 -1.8488419439237E-01
    22  2.1000000000000E-01  3.3950667107203E-01 -1.7931921325586E-01
    23  2.2000000000000E-01  3.4505009776574E-01 -1.7022571870611E-01
    24  2.3000000000000E-01  3.4749574519171E-01 -1.5753408959538E-01
    25  2.4000000000000E-01  3.4681285518807E-01 -1.4123521637759E-01
    26  2.5000000000000E-01  3.4303240600868E-01 -1.2138171241455E-01
    27  2.6000000000000E-01  3.3624743854150E-01 -9.8088054966622E-02
    28  2.7000000000000E-01  3.2661230795992E-01 -7.1529643886627E-02
    29  2.8000000000000E-01  3.1434086443095E-01 -4.1940784282555E-02
    30  2.9000000000000E-01  2.9970358443158E-01 -9.6116176678947E-03
    31  3.0000000000000E-01  2.8302369189900E-01  2.5115955920883E-02
    32  3.1000000000000E-01  2.6467232557256E-01  6.1853304989548E-02
    33  3.2000000000000E-01  2.4506282519314E-01  1.0017096649210E-01
    34  3.3000000000000E-01  2.2464422443957E-01  1.3960532689865E-01
    35  3.4000000000000E-01  2.0389405234879E-01  1.7966597882286E-01
    36  3.5000000000000E-01  1.8331055725219E-01  2.1984363533428E-01
    37  3.6000000000000E-01  1.6340447775834E-01  2.5961847367088E-01
    38  3.7000000000000E-01  1.4469049383950E-01  2.9846877170243E-01
    39  3.8000000000000E-01  1.2767849748637E-01  3.3587969432709E-01
    40  3.9000000000000E-01  1.1286482656546E-01  3.7135208312710E-01
    41  4.0000000000000E-01  1.0072360736447E-01  4.0441110114439E-01
    42  4.1000000000000E-01  9.1698350798545E-02  4.3461458560463E-01
    43  4.2000000000000E-01  8.6193944366550E-02  4.6156096482050E-01
    44  4.3000000000000E-01  8.4569176723241E-02  4.8489660130415E-01
    45  4.4000000000000E-01  8.7129924237961E-02  5.0432243123974E-01
    46  4.5000000000000E-01  9.4123119249744E-02  5.1959978079384E-01
    47  4.6000000000000E-01  1.0573160804232E-01  5.3055525212521E-01
    48  4.7000000000000E-01  1.2206999302537E-01  5.3708458620973E-01
    49  4.8000000000000E-01  1.4318153842456E-01  5.3915542550583E-01
    50  4.9000000000000E-01  1.6903620218621E-01  5.3680891680530E-01
    51  5.0000000000000E-01  1.9952983904770E-01  5.3016011307478E-01
    52  5.1000000000000E-01  2.3448460109140E-01  5.1939715240535E-01
    53  5.2000000000000E-01  2.7365054287825E-01  5.0477921204574E-01
    54  5.3000000000000E-01  3.1670841875368E-01  4.8663325558207E-01
    55  5.4000000000000E-01  3.6327364044301E-01  4.6534961132121E-01
    56  5.5000000000000E-01  4.1290134391853E-01  4.4137643951188E-01
    57  5.6000000000000E-01  4.6509249603690E-01  4.1521316487772E-01
    58  5.7000000000000E-01  5.1930095391294E-01  3.8740296872901E-01
    59  5.8000000000000E-01  5.7494137370414E-01  3.5852445136874E-01
    60  5.9000000000000E-01  6.3139785069989E-01  3.2918259033629E-01
    61  6.0000000000000E-01  6.8803315958861E-01  2.9999913298500E-01
    62  6.1000000000000E-01  7.4419845273858E-01  2.7160257274222E-01
    63  6.2000000000000E-01  7.9924326546631E-01  2.4461786695760E-01
    64  6.3000000000000E-01  8.5252567073979E-01  2.1965606034876E-01
    65  6.4000000000000E-01  9.0342242169770E-01  1.9730398158050E-01
    66  6.5000000000000E-01  9.5133891884429E-01  1.7811418138379E-01
    67  6.6000000000000E-01  9.9571883985060E-01  1.6259527879312E-01
    68  6.7000000000000E-01  1.0360532735609E+00  1.5120287755903E-01
    69  6.8000000000000E-01  1.0718892060334E+00  1.4433120762042E-01
    70  6.9000000000000E-01  1.1028372151611E+00  1.4230563678926E-01
    71  7.0000000000000E-01  1.1285782415009E+00  1.4537618563495E-01
    72  7.1000000000000E-01  1.1488693162435E+00  1.5371216412901E-01
    73  7.2000000000000E-01  1.1635481425749E+00  1.6739803212689E-01
    74  7.3000000000000E-01  1.1725364438075E+00  1.8643056746649E-01
    75  7.4000000000000E-01  1.1758420103228E+00  2.1071740562145E-01
    76  7.5000000000000E-01  1.1735593972994E+00  2.4007699376312E-01
    77  7.6000000000000E-01  1.1658692460921E+00  2.7423998007896E-01
    78  7.7000000000000E-01  1.1530362236540E+00  3.1285203660418E-01
    79  7.8000000000000E-01  1.1354055962319E+00  3.5547809100270E-01
    80  7.9000000000000E-01  1.1133984753605E+00  4.0160792003781E-01
    81  8.0000000000000E-01  1.0875057956031E+00  4.5066303526482E-01
    82  8.1000000000000E-01  1.0582811041797E+00  5.0200477011051E-01
    83  8.2000000000000E-01  1.0263322622750E+00  5.5494345732500E-01
    84  8.3000000000000E-01  9.9231217608777E-01  6.0874856712966E-01
    85  8.4000000000000E-01  9.5690869229226E-01  6.6265965955000E-01
    86  8.5000000000000E-01  9.2083380723526E-01  7.1589798969809E-01
    87  8.6000000000000E-01  8.8481235166032E-01  7.6767859240907E-01
    88  8.7000000000000E-01  8.4957032280156E-01  8.1722266285862E-01
    89  8.8000000000000E-01  8.1582304315569E-01  8.6377004277333E-01
    90  8.9000000000000E-01  7.8426332997522E-01  9.0659161773270E-01
    91  9.0000000000000E-01  7.5554986143191E-01  9.4500142994350E-01
    92  9.1000000000000E-01  7.3029592442078E-01  9.7836831279452E-01
    93  9.2000000000000E-01  7.0905872509985E-01  1.0061268584730E+00
    94  9.3000000000000E-01  6.9232943652454E-01  1.0277875378966E+00
    95  9.4000000000000E-01  6.8052414821518E-01  1.0429458030944E+00
    96  9.5000000000000E-01  6.7397587031536E-01  1.0512900158196E+00
    97  9.6000000000000E-01  6.7292773032361E-01  1.0526080624029E+00
    98  9.7000000000000E-01  6.7752748341308E-01  1.0467925334513E+00
    99  9.8000000000000E-01  6.8782343834508E-01  1.0338443676696E+00
   100  9.9000000000000E-01  7.0376188019614E-01  1.0138748815640E+00
   101  1.0000000000000E+00  7.2518604887197E-01  9.8710613072257E-01
   102  1.0100000000000E+00  7.5183670899841E-01  9.5386957342045E-01
   103  1.0200000000000E+00  7.8335432263160E-01  9.1460303305888E-01
   104  1.0300000000000E+00  8.1928281163912E-01  8.6984598208601E-01
   105  1.0400000000000E+00  8.5907487199845E-01  8.2023319609708E-01
   106  1.0500000000000E+00  9.0209877800399E-01  7.6648685239392E-01
   107  1.0600000000000E+00  9.4764659079645E-01  7.0940717204755E-01
   108  1.0700000000000E+00  9.9494366319359E-01  6.4986172796549E-01
   109  1.0800000000000E+00  1.0431593117771E+00  5.8877356333431E-01
   110  1.0900000000000E+00  1.0914185079432E+00  5.2710828470489E-01
   111  1.1000000000000E+00  1.1388144225121E+00  4.6586031154155E-01
   112  1.1100000000000E+00  1.1844216436805E+00  4.0603847908738E-01
   113  1.1200000000000E+00  1.2273098759928E+00  3.4865120350559E-01
   114  1.1300000000000E+00  1.2665579186479E+00  2.9469142737467E-01
   115  1.1400000000000E+00  1.3012677151581E+00  2.4512156945440E-01
   116  1.1500000000000E+00  1.3305782631463E+00  2.0085870516365E-01
   117  1.1600000000000E+00  1.3536791730491E+00  1.6276020331420E-01
   118  1.1700000000000E+00  1.3698236677009E+00  1.3161004029048E-01
   119  1.1800000000000E+00  1.3783408211243E+00  1.0810600517712E-01
   120  1.1900000000000E+00  1.3786468444124E+00  9.2847998234951E-02
   121  1.2000000000000E+00  1.3702552390281E+00  8.6327610987810E-02
   122  1.2100000000000E+00  1.3527856532408E+00  8.8919158926122E-02
   123  1.2200000000000E+00  1.3259712953447E+00  1.0087231792379E-01
   124  1.2300000000000E+00  1.2896647776030E+00  1.2230649308450E-01