Rn    ONCVPSP-4.0.1  r_core=   2.21276   2.01079   1.80552
     86.0000     18.0000      250217    zatom,zion,pspd
     8       2   2     4   600     0    pspcod,pspxc,lmax,lloc,mmax,r2well
  5.99000000  6.00000000  0.00000000    rchrg fchrg qchrg
     2     3     2     0    nproj
     3     1           extension_switch
     4     3     0    nprojso
   0                         7.8268325980654E+00  1.4335607876633E+00
     1  0.0000000000000E+00 -2.9827640357638E-11  5.9052499001844E-11
     2  1.0000000000000E-02  2.7047782331539E-02 -1.1595809693584E-02
     3  2.0000000000000E-02  5.4054592012018E-02 -2.3129920648183E-02
     4  3.0000000000000E-02  8.0979682277554E-02 -3.4541038275579E-02
     5  4.0000000000000E-02  1.0778275675678E-01 -4.5768673684878E-02
     6  5.0000000000000E-02  1.3442419122007E-01 -5.6753540035589E-02
     7  6.0000000000000E-02  1.6086525121339E-01 -6.7437941137793E-02
     8  7.0000000000000E-02  1.8706830424005E-01 -7.7766149784497E-02
     9  8.0000000000000E-02  2.1299702518348E-01 -8.7684773360364E-02
    10  9.0000000000000E-02  2.3861659370111E-01 -9.7143104344269E-02
    11  1.0000000000000E-01  2.6389388236360E-01 -1.0609345341031E-01
    12  1.1000000000000E-01  2.8879763436444E-01 -1.1449146293248E-01
    13  1.2000000000000E-01  3.1329862968258E-01 -1.2229639881172E-01
    14  1.3000000000000E-01  3.3736983864435E-01 -1.2947141867011E-01
    15  1.4000000000000E-01  3.6098656190093E-01 -1.3598381459441E-01
    16  1.5000000000000E-01  3.8412655591304E-01 -1.4180522876009E-01
    17  1.6000000000000E-01  4.0677014311534E-01 -1.4691184042612E-01
    18  1.7000000000000E-01  4.2890030601901E-01 -1.5128452295902E-01
    19  1.8000000000000E-01  4.5050276460099E-01 -1.5490896972235E-01
    20  1.9000000000000E-01  4.7156603642318E-01 -1.5777578785270E-01
    21  2.0000000000000E-01  4.9208147902253E-01 -1.5988055913472E-01
    22  2.1000000000000E-01  5.1204331421460E-01 -1.6122386738599E-01
    23  2.2000000000000E-01  5.3144863405670E-01 -1.6181129196430E-01
    24  2.3000000000000E-01  5.5029738832286E-01 -1.6165336721640E-01
    25  2.4000000000000E-01  5.6859235345052E-01 -1.6076550789577E-01
    26  2.5000000000000E-01  5.8633908302728E-01 -1.5916790078723E-01
    27  2.6000000000000E-01  6.0354583999537E-01 -1.5688536298659E-01
    28  2.7000000000000E-01  6.2022351086033E-01 -1.5394716749324E-01
    29  2.8000000000000E-01  6.3638550229877E-01 -1.5038683698118E-01
    30  2.9000000000000E-01  6.5204762066721E-01 -1.4624190681839E-01
    31  3.0000000000000E-01  6.6722793501917E-01 -1.4155365860459E-01
    32  3.1000000000000E-01  6.8194662434042E-01 -1.3636682569170E-01
    33  3.2000000000000E-01  6.9622580981219E-01 -1.3072927233944E-01
    34  3.3000000000000E-01  7.1008937300818E-01 -1.2469164833831E-01
    35  3.4000000000000E-01  7.2356276102350E-01 -1.1830702110299E-01
    36  3.5000000000000E-01  7.3667277962063E-01 -1.1163048740079E-01
    37  3.6000000000000E-01  7.4944737556003E-01 -1.0471876702888E-01
    38  3.7000000000000E-01  7.6191540935899E-01 -9.7629780892610E-02
    39  3.8000000000000E-01  7.7410641979267E-01 -9.0422216061532E-02
    40  3.9000000000000E-01  7.8605038151466E-01 -8.3155080490873E-02
    41  4.0000000000000E-01  7.9777745723036E-01 -7.5887250192314E-02
    42  4.1000000000000E-01  8.0931774590561E-01 -6.8677011718599E-02
    43  4.2000000000000E-01  8.2070102853329E-01 -6.1581602890887E-02
    44  4.3000000000000E-01  8.3195651301330E-01 -5.4656754745603E-02
    45  4.4000000000000E-01  8.4311257972533E-01 -4.7956237707745E-02
    46  4.5000000000000E-01  8.5419652938850E-01 -4.1531415010344E-02
    47  4.6000000000000E-01  8.6523433480841E-01 -3.5430806374255E-02
    48  4.7000000000000E-01  8.7625039810863E-01 -2.9699664938705E-02
    49  4.8000000000000E-01  8.8726731503124E-01 -2.4379570390824E-02
    50  4.9000000000000E-01  8.9830564786930E-01 -1.9508041181598E-02
    51  5.0000000000000E-01  9.0938370856232E-01 -1.5118168636608E-02
    52  5.1000000000000E-01  9.2051735344584E-01 -1.1238275672487E-02
    53  5.2000000000000E-01  9.3171979109554E-01 -7.8916027148625E-03
    54  5.3000000000000E-01  9.4300140464784E-01 -5.0960232805347E-03
    55  5.4000000000000E-01  9.5436958991049E-01 -2.8637915369308E-03
    56  5.5000000000000E-01  9.6582861050024E-01 -1.2013239856008E-03
    57  5.6000000000000E-01  9.7737947115973E-01 -1.0901723465784E-04
    58  5.7000000000000E-01  9.8901981031236E-01  4.1889637165042E-04
    59  5.8000000000000E-01  1.0007438128139E+00  3.9445370857504E-04
    60  5.9000000000000E-01  1.0125421437513E+00 -1.6397492270846E-04
    61  6.0000000000000E-01  1.0244019040262E+00 -1.2316634371186E-03
    62  6.1000000000000E-01  1.0363066083379E+00 -2.7775503101358E-03
    63  6.2000000000000E-01  1.0482361860585E+00 -4.7643022242025E-03
    64  6.3000000000000E-01  1.0601670053600E+00 -7.1484213541920E-03
    65  6.4000000000000E-01  1.0720719208187E+00 -9.8803963610243E-03
    66  6.5000000000000E-01  1.0839203445880E+00 -1.2904896889154E-02
    67  6.6000000000000E-01  1.0956783410853E+00 -1.6161011087815E-02
    68  6.7000000000000E-01  1.1073087450023E+00 -1.9582525398302E-02
    69  6.8000000000000E-01  1.1187713023017E+00 -2.3098245572469E-02
    70  6.9000000000000E-01  1.1300228337218E+00 -2.6632357612397E-02
    71  7.0000000000000E-01  1.1410174201695E+00 -3.0104827049806E-02
    72  7.1000000000000E-01  1.1517066092400E+00 -3.3431834717881E-02
    73  7.2000000000000E-01  1.1620396419658E+00 -3.6526246909532E-02
    74  7.3000000000000E-01  1.1719636987625E+00 -3.9298117566361E-02
    75  7.4000000000000E-01  1.1814241634088E+00 -4.1655219903728E-02
    76  7.5000000000000E-01  1.1903649037742E+00 -4.3503604650571E-02
    77  7.6000000000000E-01  1.1987285678882E+00 -4.4748181870114E-02
    78  7.7000000000000E-01  1.2064568938334E+00 -4.5293323130281E-02
    79  7.8000000000000E-01  1.2134910318406E+00 -4.5043480612819E-02
    80  7.9000000000000E-01  1.2197718768676E+00 -4.3903819588302E-02
    81  8.0000000000000E-01  1.2252404098563E+00 -4.1780860542426E-02
    82  8.1000000000000E-01  1.2298380457863E+00 -3.8583127118153E-02
    83  8.2000000000000E-01  1.2335069865751E+00 -3.4221795939338E-02
    84  8.3000000000000E-01  1.2361905768204E+00 -2.8611344305868E-02
    85  8.4000000000000E-01  1.2378336603324E+00 -2.1670191698493E-02
    86  8.5000000000000E-01  1.2383829353754E+00 -1.3321331004185E-02
    87  8.6000000000000E-01  1.2377873065143E+00 -3.4929453710865E-03
    88  8.7000000000000E-01  1.2359982309525E+00  7.8809933745225E-03
    89  8.8000000000000E-01  1.2329700572570E+00  2.0860148767339E-02
    90  8.9000000000000E-01  1.2286603543776E+00  3.5497270140843E-02
    91  9.0000000000000E-01  1.2230302289029E+00  5.1837673305414E-02
    92  9.1000000000000E-01  1.2160446285348E+00  6.9918755181191E-02
    93  9.2000000000000E-01  1.2076726298227E+00  8.9769545948483E-02
    94  9.3000000000000E-01  1.1978877082641E+00  1.1141030210137E-01
    95  9.4000000000000E-01  1.1866679889618E+00  1.3485214359004E-01
    96  9.5000000000000E-01  1.1739964761183E+00  1.6009673801354E-01
    97  9.6000000000000E-01  1.1598612597570E+00  1.8713603457950E-01
    98  9.7000000000000E-01  1.1442556981685E+00  2.1595205028127E-01
    99  9.8000000000000E-01  1.1271785747147E+00  2.4651671045769E-01
   100  9.9000000000000E-01  1.1086342277518E+00  2.7879174559790E-01
   101  1.0000000000000E+00  1.0886326525840E+00  3.1272864593455E-01
   102  1.0100000000000E+00  1.0671895745095E+00  3.4826867503588E-01
   103  1.0200000000000E+00  1.0443264921832E+00  3.8534294326148E-01
   104  1.0300000000000E+00  1.0200706906872E+00  4.2387254159124E-01
   105  1.0400000000000E+00  9.9445522387196E-01  4.6376873597321E-01
   106  1.0500000000000E+00  9.6751886571095E-01  5.0493322196655E-01
   107  1.0600000000000E+00  9.3930603058875E-01  5.4725843908266E-01
   108  1.0700000000000E+00  9.0986666262915E-01  5.9062794385327E-01
   109  1.0800000000000E+00  8.7925609435181E-01  6.3491684028088E-01
   110  1.0900000000000E+00  8.4753487513108E-01  6.7999226595794E-01
   111  1.1000000000000E+00  8.1476857011411E-01  7.2571393177631E-01
   112  1.1100000000000E+00  7.8102753043576E-01  7.7193471279483E-01
   113  1.1200000000000E+00  7.4638663574567E-01  8.1850128748697E-01
   114  1.1300000000000E+00  7.1092501023568E-01  8.6525482226014E-01
   115  1.1400000000000E+00  6.7472571352287E-01  9.1203169782167E-01
   116  1.1500000000000E+00  6.3787540790369E-01  9.5866427366890E-01
   117  1.1600000000000E+00  6.0046400364730E-01  1.0049816867014E+00
   118  1.1700000000000E+00  5.6258428413911E-01  1.0508106796975E+00
   119  1.1800000000000E+00  5.2433151281962E-01  1.0959764551640E+00
   120  1.1900000000000E+00  4.8580302398527E-01  1.1403035498599E+00
   121  1.2000000000000E+00  4.4709779962956E-01  1.1836167251150E+00
   122  1.2100000000000E+00  4.0831603460038E-01  1.2257418679138E+00
   123  1.2200000000000E+00  3.6955869243444E-01  1.2665068975887E+00
   124  1.2300000000000E+00  3.3092705430077E-01  1.3057426728817E+00
   125  1.2400000000000E+00  2.9252226354142E-01  1.3432838940687E+00
   126  1.2500000000000E+00  2.5444486833918E-01  1.3789699948185E+00
   127  1.2600000000000E+00  2.1679436506807E-01  1.4126460184617E+00
   128  1.2700000000000E+00  1.7966874489298E-01  1.4441634733868E+00
   129  1.2800000000000E+00  1.4316404617941E-01  1.4733811623535E+00
   130  1.2900000000000E+00  1.0737391525327E-01  1.5001659806193E+00
   131  1.3000000000000E+00  7.2389178013649E-02  1.5243936779159E+00
   132  1.3100000000000E+00  3.8297424848739E-02  1.5459495794835E+00
   133  1.3200000000000E+00  5.1826112371388E-03  1.5647292615751E+00
   134  1.3300000000000E+00 -2.6875323666348E-02  1.5806391770744E+00
   135  1.3400000000000E+00 -5.7800818259327E-02  1.5935972271396E+00
   136  1.3500000000000E+00 -8.7523027445572E-02  1.6035332750688E+00
   137  1.3600000000000E+00 -1.1597613734976E-01  1.6103895989074E+00
   138  1.3700000000000E+00 -1.4309965396717E-01  1.6141212796536E+00
   139  1.3800000000000E+00 -1.6883866407245E-01  1.6146965222849E+00
   140  1.3900000000000E+00 -1.9314406687185E-01  1.6120969072120E+00
   141  1.4000000000000E+00 -2.1597277505469E-01  1.6063175701670E+00
   142  1.4100000000000E+00 -2.3728788407862E-01  1.5973673089505E+00
   143  1.4200000000000E+00 -2.5705880871174E-01  1.5852686158917E+00
   144  1.4300000000000E+00 -2.7526138604764E-01  1.5700576353162E+00
   145  1.4400000000000E+00 -2.9187794440934E-01  1.5517840457607E+00
   146  1.4500000000000E+00 -3.0689733776127E-01  1.5305108671285E+00
   147  1.4600000000000E+00 -3.2031494545419E-01  1.5063141934280E+00
   148  1.4700000000000E+00 -3.3213263733618E-01  1.4792828521933E+00
   149  1.4800000000000E+00 -3.4235870446998E-01  1.4495179921279E+00
   150  1.4900000000000E+00 -3.5100775590318E-01  1.4171326009550E+00
   151  1.5000000000000E+00 -3.5810058214167E-01  1.3822509558873E+00
   152  1.5100000000000E+00 -3.6366398617642E-01  1.3450080095439E+00
   153  1.5200000000000E+00 -3.6773058310808E-01  1.3055487145449E+00
   154  1.5300000000000E+00 -3.7033856960136E-01  1.2640272903947E+00
   155  1.5400000000000E+00 -3.7153146458205E-01  1.2206064366263E+00
   156  1.5500000000000E+00 -3.7135782275985E-01  1.1754564965191E+00
   157  1.5600000000000E+00 -3.6987092272159E-01  1.1287545760094E+00
   158  1.5700000000000E+00 -3.6712843148897E-01  1.0806836227031E+00
   159  1.5800000000000E+00 -3.6319204757281E-01  1.0314314701490E+00
   160  1.5900000000000E+00 -3.5812712468024E-01  9.8118985275566E-01
   161  1.6000000000000E+00 -3.5200227834199E-01  9.3015339692576E-01
   162  1.6100000000000E+00 -3.4488897782292E-01  8.7851859413302E-01
   163  1.6200000000000E+00 -3.3686112576012E-01  8.2648276178953E-01
   164  1.6300000000000E+00 -3.2799462803737E-01  7.7424299783187E-01
   165  1.6400000000000E+00 -3.1836695645451E-01  7.2199513500122E-01
   166  1.6500000000000E+00 -3.0805670678178E-01  6.6993270080032E-01
   167  1.6600000000000E+00 -2.9714315480597E-01  6.1824588908101E-01
   168  1.6700000000000E+00 -2.8570581297334E-01  5.6712054914934E-01
   169  1.6800000000000E+00 -2.7382399021736E-01  5.1673719817110E-01
   170  1.6900000000000E+00 -2.6157635752478E-01  4.6727006252050E-01
   171  1.7000000000000E+00 -2.4904052174309E-01  4.1888615353899E-01
   172  1.7100000000000E+00 -2.3629261006635E-01  3.7174438296058E-01
   173  1.7200000000000E+00 -2.2340686755420E-01  3.2599472301720E-01
   174  1.7300000000000E+00 -2.1045526994291E-01  2.8177741596272E-01
   175  1.7400000000000E+00 -1.9750715389601E-01  2.3922223744961E-01
   176  1.7500000000000E+00 -1.8462886671871E-01  1.9844781786085E-01
   177  1.7600000000000E+00 -1.7188343742346E-01  1.5956102534165E-01
   178  1.7700000000000E+00 -1.5933027088633E-01  1.2265641389546E-01
   179  1.7800000000000E+00 -1.4702486661782E-01  8.7815739262475E-02
   180  1.7900000000000E+00 -1.3501856357419E-01  5.5107545240045E-02
   181  1.8000000000000E+00 -1.2335831544951E-01  2.4586835675827E-02
   182  1.8100000000000E+00 -1.1208647873980E-01 -3.7052445265155E-03
   183  1.8200000000000E+00 -1.0124075258699E-01 -2.9741136385782E-02
   184  1.8300000000000E+00 -9.0854296033770E-02 -5.3505940863062E-02
   185  1.8400000000000E+00 -8.0955797297406E-02 -7.4996814929609E-02
   186  1.8500000000000E+00 -7.1569437909815E-02 -9.4222885842491E-02
   187  1.8600000000000E+00 -6.2714899549819E-02 -1.1120503498889E-01
   188  1.8700000000000E+00 -5.4407396752804E-02 -1.2597562566552E-01
   189  1.8800000000000E+00 -4.6657737843572E-02 -1.3857816366556E-01
   190  1.8900000000000E+00 -3.9472413407051E-02 -1.4906689290295E-01
   191  1.9000000000000E+00 -3.2853711366975E-02 -1.5750632893635E-01
   192  1.9100000000000E+00 -2.6799857628513E-02 -1.6397073340666E-01
   193  1.9200000000000E+00 -2.1305181080813E-02 -1.6854353275886E-01
   194  1.9300000000000E+00 -1.6360301605052E-02 -1.7131668495257E-01
   195  1.9400000000000E+00 -1.1952339592165E-02 -1.7238999817682E-01
   196  1.9500000000000E+00 -8.0651453433598E-03 -1.7187040587105E-01
   197  1.9600000000000E+00 -4.6795466045024E-03 -1.6987120261813E-01
   198  1.9700000000000E+00 -1.7736123808947E-03 -1.6651124569919E-01
   199  1.9800000000000E+00  6.7706892328544E-04 -1.6191412731551E-01
   200  1.9900000000000E+00  2.6990990759822E-03 -1.5620732264718E-01
   201  2.0000000000000E+00  4.3209694055919E-03 -1.4952131906263E-01
   202  2.0100000000000E+00  5.5727521697456E-03 -1.4198873190264E-01
   203  2.0200000000000E+00  6.4857861100251E-03 -1.3374341233795E-01
   204  2.0300000000000E+00  7.0923584254126E-03 -1.2491955284190E-01
   205  2.0400000000000E+00  7.4253854116986E-03 -1.1565079583079E-01
   206  2.0500000000000E+00  7.5180940121391E-03 -1.0606935099763E-01
   207  2.0600000000000E+00  7.4037069646405E-03 -9.6305127675219E-02
   208  2.0700000000000E+00  7.1151325105862E-03 -8.6484885255617E-02
   209  2.0800000000000E+00  6.6846445747492E-03 -7.6731376075251E-02
   210  2.0900000000000E+00  6.1436625875868E-03 -6.7162688649561E-02
   211  2.1000000000000E+00  5.5223466287269E-03 -5.7891256824524E-02
   212  2.1100000000000E+00  4.8474885787381E-03 -4.9019625141007E-02
   213  2.1200000000000E+00  4.1427747574951E-03 -4.0640740701475E-02
   214  2.1300000000000E+00  3.4345983090545E-03 -3.2848844131194E-02
   215  2.1400000000000E+00  2.7474290377046E-03 -2.5730519701650E-02
   216  2.1500000000000E+00  2.1030700760488E-03 -1.9363134201154E-02
   217  2.1600000000000E+00  1.5206978456606E-03 -1.3814778744349E-02
   218  2.1700000000000E+00  1.0166535561770E-03 -9.1437591823761E-03
   219  2.1800000000000E+00  6.0452541834226E-04 -5.4002522215664E-03
   220  2.1900000000000E+00  2.9298699330274E-04 -2.6076095865797E-03
   221  2.2000000000000E+00  9.2943946362773E-05 -8.2679202225089E-04
   222  2.2100000000000E+00  8.2407007859980E-06 -7.3705692569302E-05
   223  2.2200000000000E+00 -4.3878845060629E-06  3.8915270229890E-05
   224  2.2300000000000E+00  1.3196119214172E-06 -1.1694142133486E-05
   225  2.24  0.  0.
   226  2.25  0.  0.
   227  2.26  0.  0.
   228  2.27  0.  0.
   229  2.28  0.  0.
   230  2.29  0.  0.
   231  2.30  0.  0.
   232  2.31  0.  0.
   233  2.32  0.  0.
   234  2.33  0.  0.
   235  2.34  0.  0.
   236  2.35  0.  0.
   237  2.36  0.  0.
   238  2.37  0.  0.
   239  2.38  0.  0.
   240  2.39  0.  0.
   241  2.40  0.  0.
   242  2.41  0.  0.
   243  2.42  0.  0.
   244  2.43  0.  0.
   245  2.44  0.  0.
   246  2.45  0.  0.
   247  2.46  0.  0.
   248  2.47  0.  0.
   249  2.48  0.  0.
   250  2.49  0.  0.
   251  2.50  0.  0.
   252  2.51  0.  0.
   253  2.52  0.  0.
   254  2.53  0.  0.
   255  2.54  0.  0.
   256  2.55  0.  0.
   257  2.56  0.  0.
   258  2.57  0.  0.
   259  2.58  0.  0.
   260  2.59  0.  0.
   261  2.60  0.  0.
   262  2.61  0.  0.
   263  2.62  0.  0.
   264  2.63  0.  0.
   265  2.64  0.  0.
   266  2.65  0.  0.
   267  2.66  0.  0.
   268  2.67  0.  0.
   269  2.68  0.  0.
   270  2.69  0.  0.
   271  2.70  0.  0.
   272  2.71  0.  0.
   273  2.72  0.  0.
   274  2.73  0.  0.
   275  2.74  0.  0.
   276  2.75  0.  0.
   277  2.76  0.  0.
   278  2.77  0.  0.
   279  2.78  0.  0.
   280  2.79  0.  0.
   281  2.80  0.  0.
   282  2.81  0.  0.
   283  2.82  0.  0.
   284  2.83  0.  0.
   285  2.84  0.  0.
   286  2.85  0.  0.
   287  2.86  0.  0.
   288  2.87  0.  0.
   289  2.88  0.  0.
   290  2.89  0.  0.
   291  2.90  0.  0.
   292  2.91  0.  0.
   293  2.92  0.  0.
   294  2.93  0.  0.
   295  2.94  0.  0.
   296  2.95  0.  0.
   297  2.96  0.  0.
   298  2.97  0.  0.
   299  2.98  0.  0.
   300  2.99  0.  0.
   301  3.00  0.  0.
   302  3.01  0.  0.
   303  3.02  0.  0.
   304  3.03  0.  0.
   305  3.04  0.  0.
   306  3.05  0.  0.
   307  3.06  0.  0.
   308  3.07  0.  0.
   309  3.08  0.  0.
   310  3.09  0.  0.
   311  3.10  0.  0.
   312  3.11  0.  0.
   313  3.12  0.  0.
   314  3.13  0.  0.
   315  3.14  0.  0.
   316  3.15  0.  0.
   317  3.16  0.  0.
   318  3.17  0.  0.
   319  3.18  0.  0.
   320  3.19  0.  0.
   321  3.20  0.  0.
   322  3.21  0.  0.
   323  3.22  0.  0.
   324  3.23  0.  0.
   325  3.24  0.  0.
   326  3.25  0.  0.
   327  3.26  0.  0.
   328  3.27  0.  0.
   329  3.28  0.  0.
   330  3.29  0.  0.
   331  3.30  0.  0.
   332  3.31  0.  0.
   333  3.32  0.  0.
   334  3.33  0.  0.
   335  3.34  0.  0.
   336  3.35  0.  0.
   337  3.36  0.  0.
   338  3.37  0.  0.
   339  3.38  0.  0.
   340  3.39  0.  0.
   341  3.40  0.  0.
   342  3.41  0.  0.
   343  3.42  0.  0.
   344  3.43  0.  0.
   345  3.44  0.  0.
   346  3.45  0.  0.
   347  3.46  0.  0.
   348  3.47  0.  0.
   349  3.48  0.  0.
   350  3.49  0.  0.
   351  3.50  0.  0.
   352  3.51  0.  0.
   353  3.52  0.  0.
   354  3.53  0.  0.
   355  3.54  0.  0.
   356  3.55  0.  0.
   357  3.56  0.  0.
   358  3.57  0.  0.
   359  3.58  0.  0.
   360  3.59  0.  0.
   361  3.60  0.  0.
   362  3.61  0.  0.
   363  3.62  0.  0.
   364  3.63  0.  0.
   365  3.64  0.  0.
   366  3.65  0.  0.
   367  3.66  0.  0.
   368  3.67  0.  0.
   369  3.68  0.  0.
   370  3.69  0.  0.
   371  3.70  0.  0.
   372  3.71  0.  0.
   373  3.72  0.  0.
   374  3.73  0.  0.
   375  3.74  0.  0.
   376  3.75  0.  0.
   377  3.76  0.  0.
   378  3.77  0.  0.
   379  3.78  0.  0.
   380  3.79  0.  0.
   381  3.80  0.  0.
   382  3.81  0.  0.
   383  3.82  0.  0.
   384  3.83  0.  0.
   385  3.84  0.  0.
   386  3.85  0.  0.
   387  3.86  0.  0.
   388  3.87  0.  0.
   389  3.88  0.  0.
   390  3.89  0.  0.
   391  3.90  0.  0.
   392  3.91  0.  0.
   393  3.92  0.  0.
   394  3.93  0.  0.
   395  3.94  0.  0.
   396  3.95  0.  0.
   397  3.96  0.  0.
   398  3.97  0.  0.
   399  3.98  0.  0.
   400  3.99  0.  0.
   401  4.00  0.  0.
   402  4.01  0.  0.
   403  4.02  0.  0.
   404  4.03  0.  0.
   405  4.04  0.  0.
   406  4.05  0.  0.
   407  4.06  0.  0.
   408  4.07  0.  0.
   409  4.08  0.  0.
   410  4.09  0.  0.
   411  4.10  0.  0.
   412  4.11  0.  0.
   413  4.12  0.  0.
   414  4.13  0.  0.
   415  4.14  0.  0.
   416  4.15  0.  0.
   417  4.16  0.  0.
   418  4.17  0.  0.
   419  4.18  0.  0.
   420  4.19  0.  0.
   421  4.20  0.  0.
   422  4.21  0.  0.
   423  4.22  0.  0.
   424  4.23  0.  0.
   425  4.24  0.  0.
   426  4.25  0.  0.
   427  4.26  0.  0.
   428  4.27  0.  0.
   429  4.28  0.  0.
   430  4.29  0.  0.
   431  4.30  0.  0.
   432  4.31  0.  0.
   433  4.32  0.  0.
   434  4.33  0.  0.
   435  4.34  0.  0.
   436  4.35  0.  0.
   437  4.36  0.  0.
   438  4.37  0.  0.
   439  4.38  0.  0.
   440  4.39  0.  0.
   441  4.40  0.  0.
   442  4.41  0.  0.
   443  4.42  0.  0.
   444  4.43  0.  0.
   445  4.44  0.  0.
   446  4.45  0.  0.
   447  4.46  0.  0.
   448  4.47  0.  0.
   449  4.48  0.  0.
   450  4.49  0.  0.
   451  4.50  0.  0.
   452  4.51  0.  0.
   453  4.52  0.  0.
   454  4.53  0.  0.
   455  4.54  0.  0.
   456  4.55  0.  0.
   457  4.56  0.  0.
   458  4.57  0.  0.
   459  4.58  0.  0.
   460  4.59  0.  0.
   461  4.60  0.  0.
   462  4.61  0.  0.
   463  4.62  0.  0.
   464  4.63  0.  0.
   465  4.64  0.  0.
   466  4.65  0.  0.
   467  4.66  0.  0.
   468  4.67  0.  0.
   469  4.68  0.  0.
   470  4.69  0.  0.
   471  4.70  0.  0.
   472  4.71  0.  0.
   473  4.72  0.  0.
   474  4.73  0.  0.
   475  4.74  0.  0.
   476  4.75  0.  0.
   477  4.76  0.  0.
   478  4.77  0.  0.
   479  4.78  0.  0.
   480  4.79  0.  0.
   481  4.80  0.  0.
   482  4.81  0.  0.
   483  4.82  0.  0.
   484  4.83  0.  0.
   485  4.84  0.  0.
   486  4.85  0.  0.
   487  4.86  0.  0.
   488  4.87  0.  0.
   489  4.88  0.  0.
   490  4.89  0.  0.
   491  4.90  0.  0.
   492  4.91  0.  0.
   493  4.92  0.  0.
   494  4.93  0.  0.
   495  4.94  0.  0.
   496  4.95  0.  0.
   497  4.96  0.  0.
   498  4.97  0.  0.
   499  4.98  0.  0.
   500  4.99  0.  0.
   501  5.00  0.  0.
   502  5.01  0.  0.
   503  5.02  0.  0.
   504  5.03  0.  0.
   505  5.04  0.  0.
   506  5.05  0.  0.
   507  5.06  0.  0.
   508  5.07  0.  0.
   509  5.08  0.  0.
   510  5.09  0.  0.
   511  5.10  0.  0.
   512  5.11  0.  0.
   513  5.12  0.  0.
   514  5.13  0.  0.
   515  5.14  0.  0.
   516  5.15  0.  0.
   517  5.16  0.  0.
   518  5.17  0.  0.
   519  5.18  0.  0.
   520  5.19  0.  0.
   521  5.20  0.  0.
   522  5.21  0.  0.
   523  5.22  0.  0.
   524  5.23  0.  0.
   525  5.24  0.  0.
   526  5.25  0.  0.
   527  5.26  0.  0.
   528  5.27  0.  0.
   529  5.28  0.  0.
   530  5.29  0.  0.
   531  5.30  0.  0.
   532  5.31  0.  0.
   533  5.32  0.  0.
   534  5.33  0.  0.
   535  5.34  0.  0.
   536  5.35  0.  0.
   537  5.36  0.  0.
   538  5.37  0.  0.
   539  5.38  0.  0.
   540  5.39  0.  0.
   541  5.40  0.  0.
   542  5.41  0.  0.
   543  5.42  0.  0.
   544  5.43  0.  0.
   545  5.44  0.  0.
   546  5.45  0.  0.
   547  5.46  0.  0.
   548  5.47  0.  0.
   549  5.48  0.  0.
   550  5.49  0.  0.
   551  5.50  0.  0.
   552  5.51  0.  0.
   553  5.52  0.  0.
   554  5.53  0.  0.
   555  5.54  0.  0.
   556  5.55  0.  0.
   557  5.56  0.  0.
   558  5.57  0.  0.
   559  5.58  0.  0.
   560  5.59  0.  0.
   561  5.60  0.  0.
   562  5.61  0.  0.
   563  5.62  0.  0.
   564  5.63  0.  0.
   565  5.64  0.  0.
   566  5.65  0.  0.
   567  5.66  0.  0.
   568  5.67  0.  0.
   569  5.68  0.  0.
   570  5.69  0.  0.
   571  5.70  0.  0.
   572  5.71  0.  0.
   573  5.72  0.  0.
   574  5.73  0.  0.
   575  5.74  0.  0.
   576  5.75  0.  0.
   577  5.76  0.  0.
   578  5.77  0.  0.
   579  5.78  0.  0.
   580  5.79  0.  0.
   581  5.80  0.  0.
   582  5.81  0.  0.
   583  5.82  0.  0.
   584  5.83  0.  0.
   585  5.84  0.  0.
   586  5.85  0.  0.
   587  5.86  0.  0.
   588  5.87  0.  0.
   589  5.88  0.  0.
   590  5.89  0.  0.
   591  5.90  0.  0.
   592  5.91  0.  0.
   593  5.92  0.  0.
   594  5.93  0.  0.
   595  5.94  0.  0.
   596  5.95  0.  0.
   597  5.96  0.  0.
   598  5.97  0.  0.
   599  5.98  0.  0.
   600  5.99  0.  0.
   1                         5.8139731400873E+00  8.7132614708301E-01  3.1085462729808E-01
     1  0.0000000000000E+00 -7.9697634602915E-10  1.8908869400813E-09 -1.8695480719089E-09
     2  1.0000000000000E-02 -1.1318090604260E-04  8.6549884651053E-04 -1.1194527244246E-03
     3  2.0000000000000E-02 -4.4812763841627E-04  3.4507628492591E-03 -4.4667147713803E-03
     4  3.0000000000000E-02 -9.9109947672642E-04  7.7222063496815E-03 -1.0008606812410E-02
     5  4.0000000000000E-02 -1.7193522490923E-03  1.3624225408605E-02 -1.7690192464938E-02
     6  5.0000000000000E-02 -2.6013723829155E-03  2.1079752502942E-02 -2.7435318536058E-02
     7  6.0000000000000E-02 -3.5972016042929E-03  2.9991026050321E-02 -3.9147364387975E-02
     8  7.0000000000000E-02 -4.6588493449596E-03  4.0240567783418E-02 -5.2710193521753E-02
     9  8.0000000000000E-02 -5.7307891186715E-03  5.1692359104865E-02 -6.7989298606456E-02
    10  9.0000000000000E-02 -6.7505343639997E-03  6.4193205738726E-02 -8.4833129387187E-02
    11  1.0000000000000E-01 -7.6492885241953E-03  7.7574278271406E-02 -1.0307459120366E-01
    12  1.1000000000000E-01 -8.3526634533249E-03  9.1652814558097E-02 -1.2253270025542E-01
    13  1.2000000000000E-01 -8.7814596072382E-03  1.0623396847486E-01 -1.4301438027478E-01
    14  1.3000000000000E-01 -8.8525009035551E-03  1.2111278813384E-01 -1.6431638392724E-01
    15  1.4000000000000E-01 -8.4795166217802E-03  1.3607630546225E-01 -1.8622732106269E-01
    16  1.5000000000000E-01 -7.5740622674527E-03  1.5090571798499E-01 -2.0852977490107E-01
    17  1.6000000000000E-01 -6.0464709468245E-03  1.6537864275579E-01 -2.3100248636151E-01
    18  1.7000000000000E-01 -3.8068264944267E-03  1.7927142166110E-01 -2.5342258604335E-01
    19  1.8000000000000E-01 -7.6594936778140E-04  1.9236145677996E-01 -2.7556785284677E-01
    20  1.9000000000000E-01  3.1636138263231E-03  2.0442955412885E-01 -2.9721897788587E-01
    21  2.0000000000000E-01  8.0666063796374E-03  2.1526225395497E-01 -3.1816181220090E-01
    22  2.1000000000000E-01  1.4024092299412E-02  2.2465412576781E-01 -3.3818957682122E-01
    23  2.2000000000000E-01  2.1112510998139E-02  2.3241000651676E-01 -3.5710501396716E-01
    24  2.3000000000000E-01  2.9402764787894E-02  2.3834716073200E-01 -3.7472245860551E-01
    25  2.4000000000000E-01  3.8959347860085E-02  2.4229734204250E-01 -3.9086981018744E-01
    26  2.5000000000000E-01  4.9839525102982E-02  2.4410873626646E-01 -4.0539038519489E-01
    27  2.6000000000000E-01  6.2092568706105E-02  2.4364776722785E-01 -4.1814463209539E-01
    28  2.7000000000000E-01  7.5759060025428E-02  2.4080074758244E-01 -4.2901169144940E-01
    29  2.8000000000000E-01  9.0870263640271E-02  2.3547535822721E-01 -4.3789078521782E-01
    30  2.9000000000000E-01  1.0744757992590E-01  2.2760194130960E-01 -4.4470242077245E-01
    31  3.0000000000000E-01  1.2550208180034E-01  2.1713459343470E-01 -4.4938939670437E-01
    32  3.1000000000000E-01  1.4503414058480E-01  2.0405204737703E-01 -4.5191759924372E-01
    33  3.2000000000000E-01  1.6603314515098E-01  1.8835833242534E-01 -4.5227657993390E-01
    34  3.3000000000000E-01  1.8847731772065E-01  1.7008320540770E-01 -4.5047990712871E-01
    35  3.4000000000000E-01  2.1233362884138E-01  1.4928234644518E-01 -4.4656528588686E-01
    36  3.5000000000000E-01  2.3755781319279E-01  1.2603731554831E-01 -4.4059444290706E-01
    37  3.6000000000000E-01  2.6409448698861E-01  1.0045526828406E-01 -4.3265277526163E-01
    38  3.7000000000000E-01  2.9187736683840E-01  7.2668430883995E-02 -4.2284876382850E-01
    39  3.8000000000000E-01  3.2082958902608E-01  4.2833337318837E-02 -4.1131315447292E-01
    40  3.9000000000000E-01  3.5086412725962E-01  1.1129833011658E-02 -3.9819791217215E-01
    41  4.0000000000000E-01  3.8188430605372E-01 -2.2240148016620E-02 -3.8367495538987E-01
    42  4.1000000000000E-01  4.1378440603388E-01 -5.7054023698946E-02 -3.6793468007404E-01
    43  4.2000000000000E-01  4.4645035660306E-01 -9.3070211286289E-02 -3.5118428465353E-01
    44  4.3000000000000E-01  4.7976051059925E-01 -1.3002996870579E-01 -3.3364590932754E-01
    45  4.4000000000000E-01  5.1358649480006E-01 -1.6765941525867E-01 -3.1555460475963E-01
    46  4.5000000000000E-01  5.4779412940717E-01 -2.0567171528255E-01 -2.9715614698894E-01
    47  4.6000000000000E-01  5.8224440897465E-01 -2.4376940681190E-01 -2.7870471693885E-01
    48  4.7000000000000E-01  6.1679453663764E-01 -2.8164685582467E-01 -2.6046046432286E-01
    49  4.8000000000000E-01  6.5129900295726E-01 -3.1899281537659E-01 -2.4268697700549E-01
    50  4.9000000000000E-01  6.8561070022916E-01 -3.5549306780891E-01 -2.2564867795990E-01
    51  5.0000000000000E-01  7.1958206271131E-01 -3.9083312728240E-01 -2.0960817286238E-01
    52  5.1000000000000E-01  7.5306622291584E-01 -4.2470097914964E-01 -1.9482357206794E-01
    53  5.2000000000000E-01  7.8591817388283E-01 -4.5678983213644E-01 -1.8154581121217E-01
    54  5.3000000000000E-01  8.1799592721431E-01 -4.8680085896887E-01 -1.7001599497647E-01
    55  5.4000000000000E-01  8.4916165659562E-01 -5.1444590095926E-01 -1.6046278863196E-01
    56  5.5000000000000E-01  8.7928281657008E-01 -5.3945011215514E-01 -1.5309988183923E-01
    57  5.6000000000000E-01  9.0823322646267E-01 -5.6155451896107E-01 -1.4812354882495E-01
    58  5.7000000000000E-01  9.3589410956772E-01 -5.8051847166384E-01 -1.4571032848431E-01
    59  5.8000000000000E-01  9.6215507802424E-01 -5.9612196502327E-01 -1.4601484717199E-01
    60  5.9000000000000E-01  9.8691505419822E-01 -6.0816780603050E-01 -1.4916780594872E-01
    61  6.0000000000000E-01  1.0100831198709E+00 -6.1648360807597E-01 -1.5527415285311E-01
    62  6.1000000000000E-01  1.0315792850937E+00 -6.2092359210224E-01 -1.6441145937570E-01
    63  6.2000000000000E-01  1.0513351692071E+00 -6.2137017683337E-01 -1.7662851873592E-01
    64  6.3000000000000E-01  1.0692945872320E+00 -6.1773534185979E-01 -1.9194418181400E-01