Rn    ONCVPSP-4.0.1  r_core=   2.21276   2.01079   1.80552
     86.0000     18.0000      231019    zatom,zion,pspd
     8       2   2     4   600     0    pspcod,pspxc,lmax,lloc,mmax,r2well
  5.99000000  6.00000000  0.00000000    rchrg fchrg qchrg
     2     2     2     0     0    nproj
     1     1           extension_switch
   0                         7.8296396825683E+00  1.4404382085438E+00
     1  0.0000000000000E+00 -3.0047353494211E-11  5.9321048073713E-11
     2  1.0000000000000E-02  2.7212358111037E-02 -1.1620917366454E-02
     3  2.0000000000000E-02  5.4383278155948E-02 -2.3179740946166E-02
     4  3.0000000000000E-02  8.1471549868764E-02 -3.4614783240829E-02
     5  4.0000000000000E-02  1.0843641719202E-01 -4.5865166712897E-02
     6  5.0000000000000E-02  1.3523780190905E-01 -5.6871222240708E-02
     7  6.0000000000000E-02  1.6183652313125E-01 -6.7574879785265E-02
     8  7.0000000000000E-02  1.8819451129384E-01 -7.7920048742277E-02
     9  8.0000000000000E-02  2.1427501534375E-01 -8.7852985512404E-02
    10  9.0000000000000E-02  2.4004280184072E-01 -9.7322645896240E-02
    11  1.0000000000000E-01  2.6546434473680E-01 -1.0628102000814E-01
    12  1.1000000000000E-01  2.9050800465083E-01 -1.1468344750397E-01
    13  1.2000000000000E-01  3.1514419651248E-01 -1.2248891103203E-01
    14  1.3000000000000E-01  3.3934554451441E-01 -1.2966030594264E-01
    15  1.4000000000000E-01  3.6308702338169E-01 -1.3616468443049E-01
    16  1.5000000000000E-01  3.8634608504352E-01 -1.4197347243287E-01
    17  1.6000000000000E-01  4.0910276987363E-01 -1.4706265776706E-01
    18  1.7000000000000E-01  4.3133980175244E-01 -1.5141294815910E-01
    19  1.8000000000000E-01  4.5304266629470E-01 -1.5500989799453E-01
    20  1.9000000000000E-01  4.7419967168151E-01 -1.5784400280738E-01
    21  2.0000000000000E-01  4.9480199163453E-01 -1.5991076071612E-01
    22  2.1000000000000E-01  5.1484369017195E-01 -1.6121070021427E-01
    23  2.2000000000000E-01  5.3432172789035E-01 -1.6174937392616E-01
    24  2.3000000000000E-01  5.5323594962352E-01 -1.6153731814550E-01
    25  2.4000000000000E-01  5.7158905343737E-01 -1.6058997818421E-01
    26  2.5000000000000E-01  5.8938654102978E-01 -1.5892759976959E-01
    27  2.6000000000000E-01  6.0663664971369E-01 -1.5657508693976E-01
    28  2.7000000000000E-01  6.2335026627184E-01 -1.5356182709752E-01
    29  2.8000000000000E-01  6.3954082308052E-01 -1.4992148409146E-01
    30  2.9000000000000E-01  6.5522417700737E-01 -1.4569176039840E-01
    31  3.0000000000000E-01  6.7041847169443E-01 -1.4091412968207E-01
    32  3.1000000000000E-01  6.8514398394095E-01 -1.3563354119856E-01
    33  3.2000000000000E-01  6.9942295500112E-01 -1.2989809770726E-01
    34  3.3000000000000E-01  7.1327940770837E-01 -1.2375870872710E-01
    35  3.4000000000000E-01  7.2673895043105E-01 -1.1726872114948E-01
    36  3.5000000000000E-01  7.3982856895179E-01 -1.1048352938101E-01
    37  3.6000000000000E-01  7.5257640744572E-01 -1.0346016733961E-01
    38  3.7000000000000E-01  7.6501153980946E-01 -9.6256884766134E-02
    39  3.8000000000000E-01  7.7716373266358E-01 -8.8932710438781E-02
    40  3.9000000000000E-01  7.8906320141473E-01 -8.1547004989182E-02
    41  4.0000000000000E-01  8.0074036082045E-01 -7.4159006115329E-02
    42  4.1000000000000E-01  8.1222557154870E-01 -6.6827369067800E-02
    43  4.2000000000000E-01  8.2354888426483E-01 -5.9609705350208E-02
    44  4.3000000000000E-01  8.3473978281189E-01 -5.2562122622887E-02
    45  4.4000000000000E-01  8.4582692807359E-01 -4.5738768829198E-02
    46  4.5000000000000E-01  8.5683790412496E-01 -3.9191383576535E-02
    47  4.6000000000000E-01  8.6779896828124E-01 -3.2968859798710E-02
    48  4.7000000000000E-01  8.7873480665285E-01 -2.7116818702360E-02
    49  4.8000000000000E-01  8.8966829680103E-01 -2.1677200957833E-02
    50  4.9000000000000E-01  9.0062027906735E-01 -1.6687877033796E-02
    51  5.0000000000000E-01  9.1160933811813E-01 -1.2182279495554E-02
    52  5.1000000000000E-01  9.2265159620426E-01 -8.1890599892019E-03
    53  5.2000000000000E-01  9.3376051958643E-01 -4.7317735179141E-03
    54  5.3000000000000E-01  9.4494673951621E-01 -1.8285924834882E-03
    55  5.4000000000000E-01  9.5621788909525E-01  5.0794718444210E-04
    56  5.5000000000000E-01  9.6757845725728E-01  2.2711656557789E-03
    57  5.6000000000000E-01  9.7902966103240E-01  3.4604226109351E-03
    58  5.7000000000000E-01  9.9056933715918E-01  4.0812626598774E-03
    59  5.8000000000000E-01  1.0021918540092E+00  4.1455212049179E-03
    60  5.9000000000000E-01  1.0138880446800E+00  3.6713894074489E-03
    61  6.0000000000000E-01  1.0256451619976E+00  2.6834371544698E-03
    62  6.1000000000000E-01  1.0374468560488E+00  1.2125931672401E-03
    63  6.2000000000000E-01  1.0492731747373E+00 -7.0391835008479E-04
    64  6.3000000000000E-01  1.0611005877256E+00 -3.0226848608723E-03
    65  6.4000000000000E-01  1.0729020339907E+00 -5.6942565150324E-03
    66  6.5000000000000E-01  1.0846469930830E+00 -8.6633408321528E-03
    67  6.6000000000000E-01  1.0963015800356E+00 -1.1869040567119E-02
    68  6.7000000000000E-01  1.1078286637298E+00 -1.5245133998020E-02
    69  6.8000000000000E-01  1.1191880083792E+00 -1.8720396598001E-02
    70  6.9000000000000E-01  1.1303364376499E+00 -2.2218962776382E-02
    71  7.0000000000000E-01  1.1412280207929E+00 -2.5660726102097E-02
    72  7.1000000000000E-01  1.1518142800225E+00 -2.8961776155485E-02
    73  7.2000000000000E-01  1.1620444182382E+00 -3.2034869894964E-02
    74  7.3000000000000E-01  1.1718655660487E+00 -3.4789935174371E-02
    75  7.4000000000000E-01  1.1812230469317E+00 -3.7134603807093E-02
    76  7.5000000000000E-01  1.1900606592308E+00 -3.8974771345609E-02
    77  7.6000000000000E-01  1.1983209735781E+00 -4.0215180531474E-02
    78  7.7000000000000E-01  1.2059456442131E+00 -4.0760025173356E-02
    79  7.8000000000000E-01  1.2128757325674E+00 -4.0513571029737E-02
    80  7.9000000000000E-01  1.2190520413857E+00 -3.9380790110857E-02
    81  8.0000000000000E-01  1.2244154575676E+00 -3.7268004672182E-02
    82  8.1000000000000E-01  1.2289073018355E+00 -3.4083537050408E-02
    83  8.2000000000000E-01  1.2324696832695E+00 -2.9738361393880E-02
    84  8.3000000000000E-01  1.2350458566896E+00 -2.4146753263536E-02
    85  8.4000000000000E-01  1.2365805808251E+00 -1.7226933028265E-02
    86  8.5000000000000E-01  1.2370204751750E+00 -8.9016989517961E-03
    87  8.6000000000000E-01  1.2363143734437E+00  9.0095413418582E-04
    88  8.7000000000000E-01  1.2344136714289E+00  1.2247234651781E-02
    89  8.8000000000000E-01  1.2312726672406E+00  2.5196976625179E-02
    90  8.9000000000000E-01  1.2268488917519E+00  3.9803088511327E-02
    91  9.0000000000000E-01  1.2211034272093E+00  5.6111032366996E-02
    92  9.1000000000000E-01  1.2140012119744E+00  7.4158337079084E-02
    93  9.2000000000000E-01  1.2055113294275E+00  9.3974149232032E-02
    94  9.3000000000000E-01  1.1956072791307E+00  1.1557882500895E-01
    95  9.4000000000000E-01  1.1842672284295E+00  1.3898356632156E-01
    96  9.5000000000000E-01  1.1714742427679E+00  1.6419010413985E-01
    97  9.6000000000000E-01  1.1572164930941E+00  1.9119043174571E-01
    98  9.7000000000000E-01  1.1414874388544E+00  2.1996659036802E-01
    99  9.8000000000000E-01  1.1242859851943E+00  2.5049050937022E-01
   100  9.9000000000000E-01  1.1056166131302E+00  2.8272390285732E-01
   101  1.0000000000000E+00  1.0854894815929E+00  3.1661822424927E-01
   102  1.0100000000000E+00  1.0639205004054E+00  3.5211468003329E-01
   103  1.0200000000000E+00  1.0409313734157E+00  3.8914430356078E-01
   104  1.0300000000000E+00  1.0165496111736E+00  4.2762808939828E-01
   105  1.0400000000000E+00  9.9080851271653E-01  4.6747718837614E-01
   106  1.0500000000000E+00  9.6374711620622E-01  5.0859316310831E-01
   107  1.0600000000000E+00  9.3541011833989E-01  5.5086830338197E-01
   108  1.0700000000000E+00  9.0584776264477E-01  5.9418600044029E-01
   109  1.0800000000000E+00  8.7511569694956E-01  6.3842117880664E-01
   110  1.0900000000000E+00  8.4327480051161E-01  6.8344078392873E-01
   111  1.1000000000000E+00  8.1039098146377E-01  7.2910432355490E-01
   112  1.1100000000000E+00  7.7653494542576E-01  7.7526446039982E-01
   113  1.1200000000000E+00  7.4178193630433E-01  8.2176765331021E-01
   114  1.1300000000000E+00  7.0621145047974E-01  8.6845484380945E-01
   115  1.1400000000000E+00  6.6990692574431E-01  9.1516218458280E-01
   116  1.1500000000000E+00  6.3295540652004E-01  9.6172180616601E-01
   117  1.1600000000000E+00  5.9544718703510E-01  1.0079626178206E+00
   118  1.1700000000000E+00  5.5747543428346E-01  1.0537111383219E+00
   119  1.1800000000000E+00  5.1913579272559E-01  1.0987923521522E+00
   120  1.1900000000000E+00  4.8052597281141E-01  1.1430305863835E+00
   121  1.2000000000000E+00  4.4174532551779E-01  1.1862504033537E+00
   122  1.2100000000000E+00  4.0289440519145E-01  1.2282775040874E+00
   123  1.2200000000000E+00  3.6407452307319E-01  1.2689396372904E+00
   124  1.2300000000000E+00  3.2538729395056E-01  1.3080675086581E+00
   125  1.2400000000000E+00  2.8693417844234E-01  1.3454956851741E+00
   126  1.2500000000000E+00  2.4881602346004E-01  1.3810634890549E+00
   127  1.2600000000000E+00  2.1113260341707E-01  1.4146158759987E+00
   128  1.2700000000000E+00  1.7398216476701E-01  1.4460042924395E+00
   129  1.2800000000000E+00  1.3746097644634E-01  1.4750875065800E+00
   130  1.2900000000000E+00  1.0166288877576E-01  1.5017324080858E+00
   131  1.3000000000000E+00  6.6678903336486E-02  1.5258147714625E+00
   132  1.3100000000000E+00  3.2596756284739E-02  1.5472199783104E+00
   133  1.3200000000000E+00 -4.9948250129224E-04  1.5658436938576E+00
   134  1.3300000000000E+00 -3.2529792131387E-02  1.5815924934043E+00
   135  1.3400000000000E+00 -6.3418563058670E-02  1.5943844345792E+00
   136  1.3500000000000E+00 -9.3094936981575E-02  1.6041495715989E+00
   137  1.3600000000000E+00 -1.2149312231984E-01  1.6108304080393E+00
   138  1.3700000000000E+00 -1.4855268343124E-01  1.6143822849740E+00
   139  1.3800000000000E+00 -1.7421880188681E-01  1.6147737016960E+00
   140  1.3900000000000E+00 -1.9844250828439E-01  1.6119865666282E+00
   141  1.4000000000000E+00 -2.2118088325234E-01  1.6060163764279E+00
   142  1.4100000000000E+00 -2.4239722647574E-01  1.5968723217121E+00
   143  1.4200000000000E+00 -2.6206119276730E-01  1.5845773182603E+00
   144  1.4300000000000E+00 -2.8014889439924E-01  1.5691679629925E+00
   145  1.4400000000000E+00 -2.9664296911403E-01  1.5506944144689E+00
   146  1.4500000000000E+00 -3.1153261343619E-01  1.5292201981134E+00
   147  1.4600000000000E+00 -3.2481358111460E-01  1.5048219368109E+00
   148  1.4700000000000E+00 -3.3648814673425E-01  1.4775890079891E+00
   149  1.4800000000000E+00 -3.4656503474491E-01  1.4476231287392E+00
   150  1.4900000000000E+00 -3.5505931436176E-01  1.4150378709707E+00
   151  1.5000000000000E+00 -3.6199226099792E-01  1.3799581090307E+00
   152  1.5100000000000E+00 -3.6739118509005E-01  1.3425194026305E+00
   153  1.5200000000000E+00 -3.7128922937332E-01  1.3028673183284E+00
   154  1.5300000000000E+00 -3.7372513585101E-01  1.2611566931979E+00
   155  1.5400000000000E+00 -3.7474298388545E-01  1.2175508446754E+00
   156  1.5500000000000E+00 -3.7439190100861E-01  1.1722207309170E+00
   157  1.5600000000000E+00 -3.7272574821249E-01  1.1253440663096E+00
   158  1.5700000000000E+00 -3.6980278163013E-01  1.0771043970639E+00
   159  1.5800000000000E+00 -3.6568529265616E-01  1.0276901420721E+00
   160  1.5900000000000E+00 -3.6043922868088E-01  9.7729360443679E-01
   161  1.6000000000000E+00 -3.5413379672306E-01  9.2610995926585E-01
   162  1.6100000000000E+00 -3.4684105234294E-01  8.7433622348337E-01
   163  1.6200000000000E+00 -3.3863547629784E-01  8.2217021352644E-01
   164  1.6300000000000E+00 -3.2959354146801E-01  7.6980949687897E-01
   165  1.6400000000000E+00 -3.1979327262923E-01  7.1745034344007E-01
   166  1.6500000000000E+00 -3.0931380168075E-01  6.6528668273124E-01
   167  1.6600000000000E+00 -2.9823492095289E-01  6.1350907291720E-01
   168  1.6700000000000E+00 -2.8663663721692E-01  5.6230368754713E-01
   169  1.6800000000000E+00 -2.7459872900206E-01  5.1185132581828E-01
   170  1.6900000000000E+00 -2.6220030978910E-01  4.6232645202249E-01
   171  1.7000000000000E+00 -2.4951939959944E-01  4.1389626965904E-01
   172  1.7100000000000E+00 -2.3663250743080E-01  3.6671983548551E-01
   173  1.7200000000000E+00 -2.2361422690812E-01  3.2094721853370E-01
   174  1.7300000000000E+00 -2.1053684742090E-01  2.7671870884121E-01
   175  1.7400000000000E+00 -1.9746998290608E-01  2.3416408034315E-01
   176  1.7500000000000E+00 -1.8448022031049E-01  1.9340191203485E-01
   177  1.7600000000000E+00 -1.7163078962933E-01  1.5453897115705E-01
   178  1.7700000000000E+00 -1.5898125726773E-01  1.1766966177264E-01
   179  1.7800000000000E+00 -1.4658724425485E-01  8.2875541456573E-02
   180  1.7900000000000E+00 -1.3450017074142E-01  5.0224908759273E-02
   181  1.8000000000000E+00 -1.2276703123354E-01  1.9772476635179E-02
   182  1.8100000000000E+00 -1.1143018279650E-01 -8.4409446095827E-03
   183  1.8200000000000E+00 -1.0052728568522E-01 -3.4388173442497E-02
   184  1.8300000000000E+00 -9.0091421982331E-02 -5.8054731795534E-02
   185  1.8400000000000E+00 -8.0151166037071E-02 -7.9438240829934E-02
   186  1.8500000000000E+00 -7.0730549481448E-02 -9.8548333167145E-02
   187  1.8600000000000E+00 -6.1849069198159E-02 -1.1540643458406E-01
   188  1.8700000000000E+00 -5.3521721355986E-02 -1.3004548936966E-01
   189  1.8800000000000E+00 -4.5759063862791E-02 -1.4250961825758E-01
   190  1.8900000000000E+00 -3.8567306542264E-02 -1.5285371117736E-01
   191  1.9000000000000E+00 -3.1948428094749E-02 -1.6114295770048E-01
   192  1.9100000000000E+00 -2.5900318787456E-02 -1.6745231821057E-01
   193  1.9200000000000E+00 -2.0416947658344E-02 -1.7186593918525E-01
   194  1.9300000000000E+00 -1.5488552866626E-02 -1.7447651631213E-01
   195  1.9400000000000E+00 -1.1101853680551E-02 -1.7538460947343E-01
   196  1.9500000000000E+00 -7.2402824612466E-03 -1.7469791392130E-01
   197  1.9600000000000E+00 -3.8842348786793E-03 -1.7253049223054E-01
   198  1.9700000000000E+00 -1.0113364905732E-03 -1.6900197184009E-01
   199  1.9800000000000E+00  1.4032762876798E-03 -1.6423671321092E-01
   200  1.9900000000000E+00  3.3866628738285E-03 -1.5836295379247E-01
   201  2.0000000000000E+00  4.9677749942095E-03 -1.5151193313518E-01
   202  2.0100000000000E+00  6.1771451242041E-03 -1.4381700459552E-01
   203  2.0200000000000E+00  7.0465691165290E-03 -1.3541273915639E-01
   204  2.0300000000000E+00  7.6087852675702E-03 -1.2643402692711E-01
   205  2.0400000000000E+00  7.8971520863292E-03 -1.1701518189898E-01
   206  2.0500000000000E+00  7.9453270283759E-03 -1.0728905550455E-01
   207  2.0600000000000E+00  7.7869488964828E-03 -9.7386165334744E-02
   208  2.0700000000000E+00  7.4553248907860E-03 -8.7433842072678E-02
   209  2.0800000000000E+00  6.9831082446400E-03 -7.7555369195752E-02
   210  2.0900000000000E+00  6.4020755974476E-03 -6.7869322608289E-02
   211  2.1000000000000E+00  5.7427196769398E-03 -5.8488577395745E-02
   212  2.1100000000000E+00  5.0321409182928E-03 -4.9516086796537E-02
   213  2.1200000000000E+00  4.2943084531274E-03 -4.1045168989231E-02
   214  2.1300000000000E+00  3.5558638720961E-03 -3.3170345614079E-02
   215  2.1400000000000E+00  2.8414919722676E-03 -2.5978422479465E-02
   216  2.1500000000000E+00  2.1731765163947E-03 -1.9546931224069E-02
   217  2.1600000000000E+00  1.5702391127442E-03 -1.3944068727164E-02
   218  2.1700000000000E+00  1.0491298674539E-03 -9.2281871968940E-03
   219  2.1800000000000E+00  6.2351573487280E-04 -5.4494674642002E-03
   220  2.1900000000000E+00  3.0205689801826E-04 -2.6310642245061E-03
   221  2.2000000000000E+00  9.5769539161938E-05 -8.3409861130824E-04
   222  2.2100000000000E+00  8.4563408420700E-06 -7.4282210044390E-05
   223  2.2200000000000E+00 -4.5360024418140E-06  3.9287286062079E-05
   224  2.2300000000000E+00  1.3629980805238E-06 -1.1803921341898E-05
   225  2.24 -0.  0.
   226  2.25 -0.  0.
   227  2.26  0. -0.
   228  2.27  0.  0.
   229  2.28  0.  0.
   230  2.29  0.  0.
   231  2.30  0.  0.
   232  2.31  0.  0.
   233  2.32  0.  0.
   234  2.33  0.  0.
   235  2.34  0.  0.
   236  2.35  0.  0.
   237  2.36  0.  0.
   238  2.37  0.  0.
   239  2.38  0.  0.
   240  2.39  0.  0.
   241  2.40  0.  0.
   242  2.41  0.  0.
   243  2.42  0.  0.
   244  2.43  0.  0.
   245  2.44  0.  0.
   246  2.45  0.  0.
   247  2.46  0.  0.
   248  2.47  0.  0.
   249  2.48  0.  0.
   250  2.49  0.  0.
   251  2.50  0.  0.
   252  2.51  0.  0.
   253  2.52  0.  0.
   254  2.53  0.  0.
   255  2.54  0.  0.
   256  2.55  0.  0.
   257  2.56  0.  0.
   258  2.57  0.  0.
   259  2.58  0.  0.
   260  2.59  0.  0.
   261  2.60  0.  0.
   262  2.61  0.  0.
   263  2.62  0.  0.
   264  2.63  0.  0.
   265  2.64  0.  0.
   266  2.65  0.  0.
   267  2.66  0.  0.
   268  2.67  0.  0.
   269  2.68  0.  0.
   270  2.69  0.  0.
   271  2.70  0.  0.
   272  2.71  0.  0.
   273  2.72  0.  0.
   274  2.73  0.  0.
   275  2.74  0.  0.
   276  2.75  0.  0.
   277  2.76  0.  0.
   278  2.77  0.  0.
   279  2.78  0.  0.
   280  2.79  0.  0.
   281  2.80  0.  0.
   282  2.81  0.  0.
   283  2.82  0.  0.
   284  2.83  0.  0.
   285  2.84  0.  0.
   286  2.85  0.  0.
   287  2.86  0.  0.
   288  2.87  0.  0.
   289  2.88  0.  0.
   290  2.89  0.  0.
   291  2.90  0.  0.
   292  2.91  0.  0.
   293  2.92  0.  0.
   294  2.93  0.  0.
   295  2.94  0.  0.
   296  2.95  0.  0.
   297  2.96  0.  0.
   298  2.97  0.  0.
   299  2.98  0.  0.
   300  2.99  0.  0.
   301  3.00  0.  0.
   302  3.01  0.  0.
   303  3.02  0.  0.
   304  3.03  0.  0.
   305  3.04  0.  0.
   306  3.05  0.  0.
   307  3.06  0.  0.
   308  3.07  0.  0.
   309  3.08  0.  0.
   310  3.09  0.  0.
   311  3.10  0.  0.
   312  3.11  0.  0.
   313  3.12  0.  0.
   314  3.13  0.  0.
   315  3.14  0.  0.
   316  3.15  0.  0.
   317  3.16  0.  0.
   318  3.17  0.  0.
   319  3.18  0.  0.
   320  3.19  0.  0.
   321  3.20  0.  0.
   322  3.21  0.  0.
   323  3.22  0.  0.
   324  3.23  0.  0.
   325  3.24  0.  0.
   326  3.25  0.  0.
   327  3.26  0.  0.
   328  3.27  0.  0.
   329  3.28  0.  0.
   330  3.29  0.  0.
   331  3.30  0.  0.
   332  3.31  0.  0.
   333  3.32  0.  0.
   334  3.33  0.  0.
   335  3.34  0.  0.
   336  3.35  0.  0.
   337  3.36  0.  0.
   338  3.37  0.  0.
   339  3.38  0.  0.
   340  3.39  0.  0.
   341  3.40  0.  0.
   342  3.41  0.  0.
   343  3.42  0.  0.
   344  3.43  0.  0.
   345  3.44  0.  0.
   346  3.45  0.  0.
   347  3.46  0.  0.
   348  3.47  0.  0.
   349  3.48  0.  0.
   350  3.49  0.  0.
   351  3.50  0.  0.
   352  3.51  0.  0.
   353  3.52  0.  0.
   354  3.53  0.  0.
   355  3.54  0.  0.
   356  3.55  0.  0.
   357  3.56  0.  0.
   358  3.57  0.  0.
   359  3.58  0.  0.
   360  3.59  0.  0.
   361  3.60  0.  0.
   362  3.61  0.  0.
   363  3.62  0.  0.
   364  3.63  0.  0.
   365  3.64  0.  0.
   366  3.65  0.  0.
   367  3.66  0.  0.
   368  3.67  0.  0.
   369  3.68  0.  0.
   370  3.69  0.  0.
   371  3.70  0.  0.
   372  3.71  0.  0.
   373  3.72  0.  0.
   374  3.73  0.  0.
   375  3.74  0.  0.
   376  3.75  0.  0.
   377  3.76  0.  0.
   378  3.77  0.  0.
   379  3.78  0.  0.
   380  3.79  0.  0.
   381  3.80  0.  0.
   382  3.81  0.  0.
   383  3.82  0.  0.
   384  3.83  0.  0.
   385  3.84  0.  0.
   386  3.85  0.  0.
   387  3.86  0.  0.
   388  3.87  0.  0.
   389  3.88  0.  0.
   390  3.89  0.  0.
   391  3.90  0.  0.
   392  3.91  0.  0.
   393  3.92  0.  0.
   394  3.93  0.  0.
   395  3.94  0.  0.
   396  3.95  0.  0.
   397  3.96  0.  0.
   398  3.97  0.  0.
   399  3.98  0.  0.
   400  3.99  0.  0.
   401  4.00  0.  0.
   402  4.01  0.  0.
   403  4.02  0.  0.
   404  4.03  0.  0.
   405  4.04  0.  0.
   406  4.05  0.  0.
   407  4.06  0.  0.
   408  4.07  0.  0.
   409  4.08  0.  0.
   410  4.09  0.  0.
   411  4.10  0.  0.
   412  4.11  0.  0.
   413  4.12  0.  0.
   414  4.13  0.  0.
   415  4.14  0.  0.
   416  4.15  0.  0.
   417  4.16  0.  0.
   418  4.17  0.  0.
   419  4.18  0.  0.
   420  4.19  0.  0.
   421  4.20  0.  0.
   422  4.21  0.  0.
   423  4.22  0.  0.
   424  4.23  0.  0.
   425  4.24  0.  0.
   426  4.25  0.  0.
   427  4.26  0.  0.
   428  4.27  0.  0.
   429  4.28  0.  0.
   430  4.29  0.  0.
   431  4.30  0.  0.
   432  4.31  0.  0.
   433  4.32  0.  0.
   434  4.33  0.  0.
   435  4.34  0.  0.
   436  4.35  0.  0.
   437  4.36  0.  0.
   438  4.37  0.  0.
   439  4.38  0.  0.
   440  4.39  0.  0.
   441  4.40  0.  0.
   442  4.41  0.  0.
   443  4.42  0.  0.
   444  4.43  0.  0.
   445  4.44  0.  0.
   446  4.45  0.  0.
   447  4.46  0.  0.
   448  4.47  0.  0.
   449  4.48  0.  0.
   450  4.49  0.  0.
   451  4.50  0.  0.
   452  4.51  0.  0.
   453  4.52  0.  0.
   454  4.53  0.  0.
   455  4.54  0.  0.
   456  4.55  0.  0.
   457  4.56  0.  0.
   458  4.57  0.  0.
   459  4.58  0.  0.
   460  4.59  0.  0.
   461  4.60  0.  0.
   462  4.61  0.  0.
   463  4.62  0.  0.
   464  4.63  0.  0.
   465  4.64  0.  0.
   466  4.65  0.  0.
   467  4.66  0.  0.
   468  4.67  0.  0.
   469  4.68  0.  0.
   470  4.69  0.  0.
   471  4.70  0.  0.
   472  4.71  0.  0.
   473  4.72  0.  0.
   474  4.73  0.  0.
   475  4.74  0.  0.
   476  4.75  0.  0.
   477  4.76  0.  0.
   478  4.77  0.  0.
   479  4.78  0.  0.
   480  4.79  0.  0.
   481  4.80  0.  0.
   482  4.81  0.  0.
   483  4.82  0.  0.
   484  4.83  0.  0.
   485  4.84  0.  0.
   486  4.85  0.  0.
   487  4.86  0.  0.
   488  4.87  0.  0.
   489  4.88  0.  0.
   490  4.89  0.  0.
   491  4.90  0.  0.
   492  4.91  0.  0.
   493  4.92  0.  0.
   494  4.93  0.  0.
   495  4.94  0.  0.
   496  4.95  0.  0.
   497  4.96  0.  0.
   498  4.97  0.  0.
   499  4.98  0.  0.
   500  4.99  0.  0.
   501  5.00  0.  0.
   502  5.01  0.  0.
   503  5.02  0.  0.
   504  5.03  0.  0.
   505  5.04  0.  0.
   506  5.05  0.  0.
   507  5.06  0.  0.
   508  5.07  0.  0.
   509  5.08  0.  0.
   510  5.09  0.  0.
   511  5.10  0.  0.
   512  5.11  0.  0.
   513  5.12  0.  0.
   514  5.13  0.  0.
   515  5.14  0.  0.
   516  5.15  0.  0.
   517  5.16  0.  0.
   518  5.17  0.  0.
   519  5.18  0.  0.
   520  5.19  0.  0.
   521  5.20  0.  0.
   522  5.21  0.  0.
   523  5.22  0.  0.
   524  5.23  0.  0.
   525  5.24  0.  0.
   526  5.25  0.  0.
   527  5.26  0.  0.
   528  5.27  0.  0.
   529  5.28  0.  0.
   530  5.29  0.  0.
   531  5.30  0.  0.
   532  5.31  0.  0.
   533  5.32  0.  0.
   534  5.33  0.  0.
   535  5.34  0.  0.
   536  5.35  0.  0.
   537  5.36  0.  0.
   538  5.37  0.  0.
   539  5.38  0.  0.
   540  5.39  0.  0.
   541  5.40  0.  0.
   542  5.41  0.  0.
   543  5.42  0.  0.
   544  5.43  0.  0.
   545  5.44  0.  0.
   546  5.45  0.  0.
   547  5.46  0.  0.
   548  5.47  0.  0.
   549  5.48  0.  0.
   550  5.49  0.  0.
   551  5.50  0.  0.
   552  5.51  0.  0.
   553  5.52  0.  0.
   554  5.53  0.  0.
   555  5.54  0.  0.
   556  5.55  0.  0.
   557  5.56  0.  0.
   558  5.57  0.  0.
   559  5.58  0.  0.
   560  5.59  0.  0.
   561  5.60  0.  0.
   562  5.61  0.  0.
   563  5.62  0.  0.
   564  5.63  0.  0.
   565  5.64  0.  0.
   566  5.65  0.  0.
   567  5.66  0.  0.
   568  5.67  0.  0.
   569  5.68  0.  0.
   570  5.69  0.  0.
   571  5.70  0.  0.
   572  5.71  0.  0.
   573  5.72  0.  0.
   574  5.73  0.  0.
   575  5.74  0.  0.
   576  5.75  0.  0.
   577  5.76  0.  0.
   578  5.77  0.  0.
   579  5.78  0.  0.
   580  5.79  0.  0.
   581  5.80  0.  0.
   582  5.81  0.  0.
   583  5.82  0.  0.
   584  5.83  0.  0.
   585  5.84  0.  0.
   586  5.85  0.  0.
   587  5.86  0.  0.
   588  5.87  0.  0.
   589  5.88  0.  0.
   590  5.89  0.  0.
   591  5.90  0.  0.
   592  5.91  0.  0.
   593  5.92  0.  0.
   594  5.93  0.  0.
   595  5.94  0.  0.
   596  5.95  0.  0.
   597  5.96  0.  0.
   598  5.97  0.  0.
   599  5.98  0.  0.
   600  5.99  0.  0.
   1                         5.7787170518152E+00  8.4474799136246E-01
     1  0.0000000000000E+00 -7.5679260514577E-10  1.8257902967278E-09
     2  1.0000000000000E-02 -1.0209906347181E-04  8.3725642077067E-04
     3  2.0000000000000E-02 -4.0400503037520E-04  3.3380783560912E-03
     4  3.0000000000000E-02 -8.9258918412193E-04  7.4697323548862E-03
     5  4.0000000000000E-02 -1.5461197710317E-03  1.3178023452624E-02
     6  5.0000000000000E-02 -2.3344847441205E-03  2.0387832933669E-02
     7  6.0000000000000E-02 -3.2195007825899E-03  2.9003864391561E-02
     8  7.0000000000000E-02 -4.1553057941604E-03  3.8911591350022E-02
     9  8.0000000000000E-02 -5.0888313506008E-03  4.9978397881721E-02
    10  9.0000000000000E-02 -5.9603507803818E-03  6.2054901909238E-02
    11  1.0000000000000E-01 -6.7040979526035E-03  7.4976449208428E-02
    12  1.1000000000000E-01 -7.2489511391914E-03  8.8564764572752E-02
    13  1.2000000000000E-01 -7.5191757433562E-03  1.0262974515161E-01
    14  1.3000000000000E-01 -7.4352191367565E-03  1.1697137965896E-01
    15  1.4000000000000E-01 -6.9145503604041E-03  1.3138177597179E-01
    16  1.5000000000000E-01 -5.8725370194687E-03  1.4564727861218E-01
    17  1.6000000000000E-01 -4.2233513434605E-03  1.5955065674018E-01
    18  1.7000000000000E-01 -1.8808970941782E-03  1.7287334258596E-01
    19  1.8000000000000E-01  1.2402512131781E-03  1.8539769972506E-01
    20  1.9000000000000E-01  5.2239054530379E-03  1.9690930025452E-01
    21  2.0000000000000E-01  1.0151326140922E-02  2.0719918976447E-01
    22  2.1000000000000E-01  1.6100298528151E-02  2.1606611902099E-01
    23  2.2000000000000E-01  2.3144231188308E-02  2.2331872148232E-01
    24  2.3000000000000E-01  3.1351285581523E-02  2.2877761616057E-01
    25  2.4000000000000E-01  4.0783544844924E-02  2.3227741591285E-01
    26  2.5000000000000E-01  5.1496229746531E-02  2.3366862199419E-01
    27  2.6000000000000E-01  6.3536969357673E-02  2.3281938662485E-01
    28  2.7000000000000E-01  7.6945133548773E-02  2.2961712640963E-01
    29  2.8000000000000E-01  9.1751233898469E-02  2.2396997068667E-01
    30  2.9000000000000E-01  1.0797639903086E-01  2.1580803027022E-01
    31  3.0000000000000E-01  1.2563192976463E-01  2.0508447357284E-01
    32  3.1000000000000E-01  1.4471893877612E-01  1.9177639873619E-01
    33  3.2000000000000E-01  1.6522807875184E-01  1.7588549215222E-01
    34  3.3000000000000E-01  1.8713936224022E-01  1.5743846560367E-01
    35  3.4000000000000E-01  2.1042207561404E-01  1.3648726617888E-01
    36  3.5000000000000E-01  2.3503478873086E-01  1.1310905510526E-01
    37  3.6000000000000E-01  2.6092546103572E-01  8.7405953680945E-02
    38  3.7000000000000E-01  2.8803164399510E-01  5.9504556548839E-02
    39  3.8000000000000E-01  3.1628077889206E-01  2.9555214632738E-02
    40  3.9000000000000E-01  3.4559058815583E-01 -2.2689078753747E-03
    41  4.0000000000000E-01  3.7586955755297E-01 -3.5772996042932E-02
    42  4.1000000000000E-01  4.0701750573892E-01 -7.0741957802674E-02
    43  4.2000000000000E-01  4.3892623686542E-01 -1.0694199825741E-01
    44  4.3000000000000E-01  4.7148027116820E-01 -1.4412238243840E-01
    45  4.4000000000000E-01  5.0455764772718E-01 -1.8201737249991E-01
    46  4.5000000000000E-01  5.3803079290544E-01 -2.2034832367036E-01
    47  4.6000000000000E-01  5.7176744733877E-01 -2.5882592174286E-01
    48  4.7000000000000E-01  6.0563164377140E-01 -2.9715254348987E-01
    49  4.8000000000000E-01  6.3948472752082E-01 -3.3502472014102E-01
    50  4.9000000000000E-01  6.7318641090970E-01 -3.7213568298155E-01
    51  5.0000000000000E-01  7.0659585263175E-01 -4.0817796922278E-01
    52  5.1000000000000E-01  7.3957275272250E-01 -4.4284606557399E-01
    53  5.2000000000000E-01  7.7197845359115E-01 -4.7583906641521E-01
    54  5.3000000000000E-01  8.0367703743622E-01 -5.0686332313917E-01
    55  5.4000000000000E-01  8.3453641031873E-01 -5.3563506110155E-01
    56  5.5000000000000E-01  8.6442936320315E-01 -5.6188294069619E-01
    57  5.6000000000000E-01  8.9323460039816E-01 -5.8535053935525E-01
    58  5.7000000000000E-01  9.2083772603665E-01 -6.0579873176413E-01
    59  5.8000000000000E-01  9.4713217952589E-01 -6.2300794627439E-01
    60  5.9000000000000E-01  9.7202011127301E-01 -6.3678027639036E-01
    61  6.0000000000000E-01  9.9541319044480E-01 -6.4694142729104E-01
    62  6.1000000000000E-01  1.0172333370513E+00 -6.5334247862002E-01
    63  6.2000000000000E-01  1.0374133712465E+00 -6.5586144622384E-01
    64  6.3000000000000E-01  1.0558975734092E+00 -6.5440462713109E-01
    65  6.4000000000000E-01  1.0726421493041E+00 -6.4890771382972E-01
    66  6.5000000000000E-01  1.0876155954106E+00 -6.3933666580270E-01
    67  6.6000000000000E-01  1.1007989603515E+00 -6.2568832830844E-01
    68  6.7000000000000E-01  1.1121859992357E+00 -6.0799079052456E-01
    69  6.8000000000000E-01  1.1217832186535E+00 -5.8630347739468E-01
    70  6.9000000000000E-01  1.1296098110099E+00 -5.6071697180890E-01
    71  7.0000000000000E-01  1.1356974778527E+00 -5.3135256609015E-01
    72  7.1000000000000E-01  1.1400901428327E+00 -4.9836154413092E-01
    73  7.2000000000000E-01  1.1428435559208E+00 -4.6192419790657E-01
    74  7.3000000000000E-01  1.1440247914845E+00 -4.2224858446301E-01
    75  7.4000000000000E-01  1.1437116437930E+00 -3.7956903181576E-01
    76  7.5000000000000E-01  1.1419919244646E+00 -3.3414440448417E-01
    77  7.6000000000000E-01  1.1389626672805E+00 -2.8625614159815E-01
    78  7.7000000000000E-01  1.1347292466641E+00 -2.3620608263479E-01
    79  7.8000000000000E-01  1.1294044169473E+00 -1.8431409784915E-01
    80  7.9000000000000E-01  1.1231072803179E+00 -1.3091554233900E-01
    81  8.0000000000000E-01  1.1159621920460E+00 -7.6358554408778E-02
    82  8.1000000000000E-01  1.1080976122280E+00 -2.1001220457724E-02
    83  8.2000000000000E-01  1.0996449138450E+00  3.4791370005037E-02
    84  8.3000000000000E-01  1.0907371574143E+00  9.0650154432976E-02
    85  8.4000000000000E-01  1.0815078429038E+00  1.4620518664224E-01