Rn    ONCVPSP-4.0.1  r_core=   2.21276   2.01079   1.80552
     86.0000     18.0000      250925    zatom,zion,pspd
     8   -1012   2     4   600     0    pspcod,pspxc,lmax,lloc,mmax,r2well
  5.99000000  6.00000000  0.00000000    rchrg fchrg qchrg
     2     3     2     0    nproj
     3     1           extension_switch
     4     3     0    nprojso
   0                         7.8290640946672E+00  1.4341901513128E+00
     1  0.0000000000000E+00 -2.9814761770552E-11  5.9037080779589E-11
     2  1.0000000000000E-02  2.7046418065680E-02 -1.1597717945808E-02
     3  2.0000000000000E-02  5.4051875328760E-02 -2.3133746740811E-02
     4  3.0000000000000E-02  8.0975636790737E-02 -3.4546801275691E-02
     5  4.0000000000000E-02  1.0777741768004E-01 -4.5776401920796E-02
     6  5.0000000000000E-02  1.3441760511993E-01 -5.6763270772609E-02
     7  6.0000000000000E-02  1.6085747568269E-01 -6.7449720149958E-02
     8  7.0000000000000E-02  1.8705940749411E-01 -7.7780030825915E-02
     9  8.0000000000000E-02  2.1298708558171E-01 -8.7700817540389E-02
    10  9.0000000000000E-02  2.3860569919747E-01 -9.7161379411656E-02
    11  1.0000000000000E-01  2.6388212988971E-01 -1.0611403295220E-01
    12  1.1000000000000E-01  2.8878512914966E-01 -1.1451442549480E-01
    13  1.2000000000000E-01  3.1328548451583E-01 -1.2232182694818E-01
    14  1.3000000000000E-01  3.3735617308278E-01 -1.2949939792758E-01
    15  1.4000000000000E-01  3.6097250143090E-01 -1.3601443244313E-01
    16  1.5000000000000E-01  3.8411223106935E-01 -1.4183857347739E-01
    17  1.6000000000000E-01  4.0675568856474E-01 -1.4694799994289E-01
    18  1.7000000000000E-01  4.2888585961436E-01 -1.5132358367849E-01
    19  1.8000000000000E-01  4.5048846641269E-01 -1.5495101532101E-01
    20  1.9000000000000E-01  4.7155202775441E-01 -1.5782089807309E-01
    21  2.0000000000000E-01  4.9206790141527E-01 -1.5992880858049E-01
    22  2.1000000000000E-01  5.1203030845319E-01 -1.6127532432896E-01
    23  2.2000000000000E-01  5.3143633917575E-01 -1.6186601717373E-01
    24  2.3000000000000E-01  5.5028594062641E-01 -1.6171141282028E-01
    25  2.4000000000000E-01  5.6858188554909E-01 -1.6082691628376E-01
    26  2.5000000000000E-01  5.8632972289942E-01 -1.5923270356468E-01
    27  2.6000000000000E-01  6.0353771008004E-01 -1.5695357998851E-01
    28  2.7000000000000E-01  6.2021672718631E-01 -1.5401880586692E-01
    29  2.8000000000000E-01  6.3638017365696E-01 -1.5046189034543E-01
    30  2.9000000000000E-01  6.5204384783139E-01 -1.4632035450697E-01
    31  3.0000000000000E-01  6.6722581002040E-01 -1.4163546500058E-01
    32  3.1000000000000E-01  6.8194622979995E-01 -1.3645193965920E-01
    33  3.2000000000000E-01  6.9622721833723E-01 -1.3081762675796E-01
    34  3.3000000000000E-01  7.1009264665456E-01 -1.2478315974453E-01
    35  3.4000000000000E-01  7.2356795082857E-01 -1.1840158944401E-01
    36  3.5000000000000E-01  7.3667992520957E-01 -1.1172799590174E-01
    37  3.6000000000000E-01  7.4945650482785E-01 -1.0481908217730E-01
    38  3.7000000000000E-01  7.6192653823027E-01 -9.7732752540874E-02
    39  3.8000000000000E-01  7.7411955206046E-01 -9.0527677647888E-02
    40  3.9000000000000E-01  7.8606550875923E-01 -8.3262849378691E-02
    41  4.0000000000000E-01  7.9779455881831E-01 -7.5997128126286E-02
    42  4.1000000000000E-01  8.0933678906894E-01 -6.8788785395744E-02
    43  4.2000000000000E-01  8.2072196852767E-01 -6.1695044643465E-02
    44  4.3000000000000E-01  8.3197929335430E-01 -5.4771623332080E-02
    45  4.4000000000000E-01  8.4313713250057E-01 -4.8072279207241E-02
    46  4.5000000000000E-01  8.5422277564361E-01 -4.1648363815222E-02
    47  4.6000000000000E-01  8.6526218500370E-01 -3.5548386274782E-02
    48  4.7000000000000E-01  8.7627975264338E-01 -2.9817590293046E-02
    49  4.8000000000000E-01  8.8729806483177E-01 -2.4497547373021E-02
    50  4.9000000000000E-01  8.9833767503660E-01 -1.9625769099609E-02
    51  5.0000000000000E-01  9.0941688707490E-01 -1.5235341311998E-02
    52  5.1000000000000E-01  9.2055154991273E-01 -1.1354582872885E-02
    53  5.2000000000000E-01  9.3175486555451E-01 -8.0067316300130E-03
    54  5.3000000000000E-01  9.4303721140311E-01 -5.2096600323082E-03
    55  5.4000000000000E-01  9.5440597840454E-01 -2.9756227136241E-03
    56  5.5000000000000E-01  9.6586542621375E-01 -1.3110381905474E-03
    57  5.6000000000000E-01  9.7741655653366E-01 -2.1630663915338E-04
    58  5.7000000000000E-01  9.8905700568613E-01  3.1433448117349E-04
    59  5.8000000000000E-01  1.0007809573735E+00  2.9291539903200E-04
    60  5.9000000000000E-01  1.0125790764812E+00 -2.6220173701198E-04
    61  6.0000000000000E-01  1.0244384646589E+00 -1.3263004652743E-03
    62  6.1000000000000E-01  1.0363426382950E+00 -2.8683303108920E-03
    63  6.2000000000000E-01  1.0482715293778E+00 -4.8509703786186E-03
    64  6.3000000000000E-01  1.0602015096019E+00 -7.2307365761067E-03
    65  6.4000000000000E-01  1.0721054379476E+00 -9.9581325371127E-03
    66  6.5000000000000E-01  1.0839527318217E+00 -1.2977844040913E-02
    67  6.6000000000000E-01  1.0957094617091E+00 -1.6228976448373E-02
    68  6.7000000000000E-01  1.1073384691415E+00 -1.9645334397570E-02
    69  6.8000000000000E-01  1.1187995076489E+00 -2.3155742724763E-02
    70  6.9000000000000E-01  1.1300494062143E+00 -2.6684407301368E-02
    71  7.0000000000000E-01  1.1410422546135E+00 -3.0151314206238E-02
    72  7.1000000000000E-01  1.1517296098777E+00 -3.3472665386637E-02
    73  7.2000000000000E-01  1.1620607229831E+00 -3.6561348702728E-02
    74  7.3000000000000E-01  1.1719827847338E+00 -3.9327440000524E-02
    75  7.4000000000000E-01  1.1814411896781E+00 -4.1678734619639E-02
    76  7.5000000000000E-01  1.1903798167696E+00 -4.3521305515089E-02
    77  7.6000000000000E-01  1.1987413253693E+00 -4.4760084960146E-02
    78  7.7000000000000E-01  1.2064674650705E+00 -4.5299466599872E-02
    79  7.8000000000000E-01  1.2134993977257E+00 -4.5043924444980E-02
    80  7.9000000000000E-01  1.2197780299573E+00 -4.3898645234004E-02
    81  8.0000000000000E-01  1.2252443543468E+00 -4.1770170449808E-02
    82  8.1000000000000E-01  1.2298397974218E+00 -3.8567044155797E-02
    83  8.2000000000000E-01  1.2335065724914E+00 -3.4200462717917E-02
    84  8.3000000000000E-01  1.2361880353246E+00 -2.8584922403229E-02
    85  8.4000000000000E-01  1.2378290406215E+00 -2.1638860793659E-02
    86  8.5000000000000E-01  1.2383762971970E+00 -1.3285287926411E-02
    87  8.6000000000000E-01  1.2377787197699E+00 -3.4524030703569E-03
    88  8.7000000000000E-01  1.2359877752500E+00  7.9258069285741E-03
    89  8.8000000000000E-01  1.2329578214130E+00  2.0908991750869E-02
    90  8.9000000000000E-01  1.2286464358745E+00  3.5549888098117E-02
    91  9.0000000000000E-01  1.2230147333046E+00  5.1893800420098E-02
    92  9.1000000000000E-01  1.2160276688651E+00  6.9978115588907E-02
    93  9.2000000000000E-01  1.2076543259105E+00  8.9831855082348E-02
    94  9.3000000000000E-01  1.1978681860598E+00  1.1147526806255E-01
    95  9.4000000000000E-01  1.1866473798297E+00  1.3491946853520E-01
    96  9.5000000000000E-01  1.1739749161097E+00  1.6016611955107E-01
    97  9.6000000000000E-01  1.1598388888672E+00  1.8720716716665E-01
    98  9.7000000000000E-01  1.1442326595849E+00  2.1602462661440E-01
    99  9.8000000000000E-01  1.1271550140575E+00  2.4659042284801E-01
   100  9.9000000000000E-01  1.1086102923143E+00  2.7886628732551E-01
   101  1.0000000000000E+00  1.0886084905754E+00  3.1280371257363E-01
   102  1.0100000000000E+00  1.0671653343051E+00  3.4834396574454E-01
   103  1.0200000000000E+00  1.0443023215863E+00  3.8541816202981E-01
   104  1.0300000000000E+00  1.0200467362058E+00  4.2394739844183E-01
   105  1.0400000000000E+00  9.9443163001529E-01  4.6384294810873E-01
   106  1.0500000000000E+00  9.6749577430797E-01  5.0500651485928E-01
   107  1.0600000000000E+00  9.3928358013339E-01  5.4733054750166E-01
   108  1.0700000000000E+00  9.0984498765437E-01  5.9069861282517E-01
   109  1.0800000000000E+00  8.7923532483576E-01  6.3498582598090E-01
   110  1.0900000000000E+00  8.4751513593780E-01  6.8005933652803E-01
   111  1.1000000000000E+00  8.1474998047114E-01  7.2577886806834E-01
   112  1.1100000000000E+00  7.8101020345055E-01  7.7199730903664E-01
   113  1.1200000000000E+00  7.4637067796266E-01  8.1856135187014E-01
   114  1.1300000000000E+00  7.1091052123535E-01  8.6531217744856E-01
   115  1.1400000000000E+00  6.7471278556393E-01  9.1208618138062E-01
   116  1.1500000000000E+00  6.3786412560924E-01  9.5871573841476E-01
   117  1.1600000000000E+00  6.0045444373561E-01  1.0050300009726E+00
   118  1.1700000000000E+00  5.6257651519912E-01  1.0508557275478E+00
   119  1.1800000000000E+00  5.2432559513133E-01  1.0960181364796E+00
   120  1.1900000000000E+00  4.8579900938462E-01  1.1403417804019E+00
   121  1.2000000000000E+00  4.4709573141745E-01  1.1836514364906E+00
   122  1.2100000000000E+00  4.0831594749487E-01  1.2257730074766E+00
   123  1.2200000000000E+00  3.6956061256535E-01  1.2665344282735E+00
   124  1.2300000000000E+00  3.3093099924537E-01  1.3057665729749E+00
   125  1.2400000000000E+00  2.9252824239984E-01  1.3433041569191E+00
   126  1.2500000000000E+00  2.5445288184805E-01  1.3789866284908E+00
   127  1.2600000000000E+00  2.1680440575057E-01  1.4126590453371E+00
   128  1.2700000000000E+00  1.7968079724348E-01  1.4441729297147E+00
   129  1.2800000000000E+00  1.4317808688071E-01  1.4733870977577E+00
   130  1.2900000000000E+00  1.0738991342434E-01  1.5001684575627E+00
   131  1.3000000000000E+00  7.2407095485665E-02  1.5243927711283E+00
   132  1.3100000000000E+00  3.8317216467162E-02  1.5459453753559E+00
   133  1.3200000000000E+00  5.2042251875198E-03  1.5647218575243E+00
   134  1.3300000000000E+00 -2.6851945511164E-02  1.5806286808829E+00
   135  1.3400000000000E+00 -5.7775739972994E-02  1.5935837562731E+00
   136  1.3500000000000E+00 -8.7496318665388E-02  1.6035169559763E+00
   137  1.3600000000000E+00 -1.1594787287953E-01  1.6103705663070E+00
   138  1.3700000000000E+00 -1.4306991336815E-01  1.6140996758070E+00
   139  1.3800000000000E+00 -1.6880753124456E-01  1.6146724962651E+00
   140  1.3900000000000E+00 -1.9311162962754E-01  1.6120706141657E+00
   141  1.4000000000000E+00 -2.1593912468755E-01  1.6062891705762E+00
   142  1.4100000000000E+00 -2.3725311492885E-01  1.5973369678951E+00
   143  1.4200000000000E+00 -2.5702301773051E-01  1.5852365023160E+00
   144  1.4300000000000E+00 -2.7522467236227E-01  1.5700239213016E+00
   145  1.4400000000000E+00 -2.9184040889114E-01  1.5517489058068E+00
   146  1.4500000000000E+00 -3.0685908259776E-01  1.5304744774442E+00
   147  1.4600000000000E+00 -3.2027607372733E-01  1.5062767312358E+00
   148  1.4700000000000E+00 -3.3209325260812E-01  1.4792444950462E+00
   149  1.4800000000000E+00 -3.4231891037772E-01  1.4494789172419E+00
   150  1.4900000000000E+00 -3.5096765576345E-01  1.4170929845587E+00
   151  1.5000000000000E+00 -3.5806027856719E-01  1.3822109725881E+00
   152  1.5100000000000E+00 -3.6362358070454E-01  1.3449678317131E+00
   153  1.5200000000000E+00 -3.6769017584285E-01  1.3055085117227E+00
   154  1.5300000000000E+00 -3.7029825886978E-01  1.2639872287143E+00
   155  1.5400000000000E+00 -3.7149134660522E-01  1.2205666782595E+00
   156  1.5500000000000E+00 -3.7131799133971E-01  1.1754171991424E+00
   157  1.5600000000000E+00 -3.6983146894363E-01  1.1287158922925E+00
   158  1.5700000000000E+00 -3.6708944344148E-01  1.0806456998184E+00
   159  1.5800000000000E+00 -3.6315361008292E-01  1.0313944493037E+00
   160  1.5900000000000E+00 -3.5808931906694E-01  9.8115386874677E-01
   161  1.6000000000000E+00 -3.5196518218632E-01  9.3011857771695E-01
   162  1.6100000000000E+00 -3.4485266475547E-01  8.7848506045486E-01
   163  1.6200000000000E+00 -3.3682566526569E-01  8.2645062676252E-01
   164  1.6300000000000E+00 -3.2796008527686E-01  7.7421236661265E-01
   165  1.6400000000000E+00 -3.1833339210371E-01  7.2196610445203E-01
   166  1.6500000000000E+00 -3.0802417688716E-01  6.6990535918189E-01
   167  1.6600000000000E+00 -2.9711171065684E-01  6.1822031576901E-01
   168  1.6700000000000E+00 -2.8567550099038E-01  5.6709681437452E-01
   169  1.6800000000000E+00 -2.7379485185699E-01  5.1671536278321E-01
   170  1.6900000000000E+00 -2.6154842919900E-01  4.6725017777633E-01
   171  1.7000000000000E+00 -2.4901383475436E-01  4.1886826091434E-01
   172  1.7100000000000E+00 -2.3626719055697E-01  3.7172851398663E-01
   173  1.7200000000000E+00 -2.2338273646980E-01  3.2598089914125E-01
   174  1.7300000000000E+00 -2.1043244300924E-01  2.8176564843329E-01
   175  1.7400000000000E+00 -1.9748564160873E-01  2.3921252722626E-01
   176  1.7500000000000E+00 -1.8460867434530E-01  1.9844015554849E-01
   177  1.7600000000000E+00 -1.7186456501677E-01  1.5955539114947E-01
   178  1.7700000000000E+00 -1.5931271330899E-01  1.2265277762045E-01
   179  1.7800000000000E+00 -1.4700861357685E-01  8.7814060297241E-02
   180  1.7900000000000E+00 -1.3500359966495E-01  5.5107772604837E-02
   181  1.8000000000000E+00 -1.2334462020972E-01  2.4588908078732E-02
   182  1.8100000000000E+00 -1.1207402670609E-01 -3.7013986235966E-03
   183  1.8200000000000E+00 -1.0122951340577E-01 -2.9735598518763E-02
   184  1.8300000000000E+00 -9.0844234687793E-02 -5.3498801941424E-02
   185  1.8400000000000E+00 -8.0946874411461E-02 -7.4988174381330E-02
   186  1.8500000000000E+00 -7.1561610074862E-02 -9.4212850738367E-02
   187  1.8600000000000E+00 -6.2708119669290E-02 -1.1119371912974E-01
   188  1.8700000000000E+00 -5.4401614407388E-02 -1.2596314864170E-01
   189  1.8800000000000E+00 -4.6652899672054E-02 -1.3856464989378E-01
   190  1.8900000000000E+00 -3.9468463500727E-02 -1.4905247064511E-01
   191  1.9000000000000E+00 -3.2850591675124E-02 -1.5749112930566E-01
   192  1.9100000000000E+00 -2.6797508372375E-02 -1.6395488936589E-01
   193  1.9200000000000E+00 -2.1303541173569E-02 -1.6852717811587E-01
   194  1.9300000000000E+00 -1.6359309075270E-02 -1.7129995335787E-01
   195  1.9400000000000E+00 -1.1951932008260E-02 -1.7237302212818E-01
   196  1.9500000000000E+00 -8.0652602366326E-03 -1.7185331572988E-01
   197  1.9600000000000E+00 -4.6801218884012E-03 -1.6985412564219E-01
   198  1.9700000000000E+00 -1.7745867642160E-03 -1.6649430509625E-01
   199  1.9800000000000E+00  6.7575553143732E-04 -1.6189744132216E-01
   200  1.9900000000000E+00  2.6975051715782E-03 -1.5619100363698E-01
   201  2.0000000000000E+00  4.3191515073817E-03 -1.4950547268763E-01
   202  2.0100000000000E+00  5.5707644511296E-03 -1.4197345627175E-01
   203  2.0200000000000E+00  6.4836800468179E-03 -1.3372879723587E-01
   204  2.0300000000000E+00  7.0901824610835E-03 -1.2490567899171E-01
   205  2.0400000000000E+00  7.4231846415238E-03 -1.1563773420316E-01
   206  2.0500000000000E+00  7.5159098875384E-03 -1.0605716216937E-01
   207  2.0600000000000E+00  7.4015770186774E-03 -9.6293861239183E-02
   208  2.0700000000000E+00  7.1130901058477E-03 -8.6474579284580E-02
   209  2.0800000000000E+00  6.6827186797189E-03 -7.6722056653088E-02
   210  2.0900000000000E+00  6.1418775555127E-03 -6.7154369413131E-02
   211  2.1000000000000E+00  5.5207220290146E-03 -5.7883938629421E-02
   212  2.1100000000000E+00  4.8460396892205E-03 -4.9013297127740E-02
   213  2.1200000000000E+00  4.1415129499085E-03 -4.0635381125424E-02
   214  2.1300000000000E+00  3.4335294471878E-03 -3.2844416980164E-02
   215  2.1400000000000E+00  2.7465532643664E-03 -2.5726974314677E-02
   216  2.1500000000000E+00  2.1023818024300E-03 -1.9360405326691E-02
   217  2.1600000000000E+00  1.5201857100034E-03 -1.3812786534406E-02
   218  2.1700000000000E+00  1.0163004293918E-03 -9.1424092930623E-03
   219  2.1800000000000E+00  6.0430834762359E-04 -5.3994356500422E-03
   220  2.1900000000000E+00  2.9287804432439E-04 -2.6072056720405E-03
   221  2.2000000000000E+00  9.2908057405116E-05 -8.2666073598305E-04
   222  2.2100000000000E+00  8.2374069754178E-06 -7.3693731393654E-05
   223  2.2200000000000E+00 -4.3860719735592E-06  3.8908809641018E-05
   224  2.2300000000000E+00  1.3190824957482E-06 -1.1692236596141E-05
   225  2.24  0.  0.
   226  2.25  0.  0.
   227  2.26  0.  0.
   228  2.27  0.  0.
   229  2.28  0.  0.
   230  2.29  0.  0.
   231  2.30  0.  0.
   232  2.31  0.  0.
   233  2.32  0.  0.
   234  2.33  0.  0.
   235  2.34  0.  0.
   236  2.35  0.  0.
   237  2.36  0.  0.
   238  2.37  0.  0.
   239  2.38  0.  0.
   240  2.39  0.  0.
   241  2.40  0.  0.
   242  2.41  0.  0.
   243  2.42  0.  0.
   244  2.43  0.  0.
   245  2.44  0.  0.
   246  2.45  0.  0.
   247  2.46  0.  0.
   248  2.47  0.  0.
   249  2.48  0.  0.
   250  2.49  0.  0.
   251  2.50  0.  0.
   252  2.51  0.  0.
   253  2.52  0.  0.
   254  2.53  0.  0.
   255  2.54  0.  0.
   256  2.55  0.  0.
   257  2.56  0.  0.
   258  2.57  0.  0.
   259  2.58  0.  0.
   260  2.59  0.  0.
   261  2.60  0.  0.
   262  2.61  0.  0.
   263  2.62  0.  0.
   264  2.63  0.  0.
   265  2.64  0.  0.
   266  2.65  0.  0.
   267  2.66  0.  0.
   268  2.67  0.  0.
   269  2.68  0.  0.
   270  2.69  0.  0.
   271  2.70  0.  0.
   272  2.71  0.  0.
   273  2.72  0.  0.
   274  2.73  0.  0.
   275  2.74  0.  0.
   276  2.75  0.  0.
   277  2.76  0.  0.
   278  2.77  0.  0.
   279  2.78  0.  0.
   280  2.79  0.  0.
   281  2.80  0.  0.
   282  2.81  0.  0.
   283  2.82  0.  0.
   284  2.83  0.  0.
   285  2.84  0.  0.
   286  2.85  0.  0.
   287  2.86  0.  0.
   288  2.87  0.  0.
   289  2.88  0.  0.
   290  2.89  0.  0.
   291  2.90  0.  0.
   292  2.91  0.  0.
   293  2.92  0.  0.
   294  2.93  0.  0.
   295  2.94  0.  0.
   296  2.95  0.  0.
   297  2.96  0.  0.
   298  2.97  0.  0.
   299  2.98  0.  0.
   300  2.99  0.  0.
   301  3.00  0.  0.
   302  3.01  0.  0.
   303  3.02  0.  0.
   304  3.03  0.  0.
   305  3.04  0.  0.
   306  3.05  0.  0.
   307  3.06  0.  0.
   308  3.07  0.  0.
   309  3.08  0.  0.
   310  3.09  0.  0.
   311  3.10  0.  0.
   312  3.11  0.  0.
   313  3.12  0.  0.
   314  3.13  0.  0.
   315  3.14  0.  0.
   316  3.15  0.  0.
   317  3.16  0.  0.
   318  3.17  0.  0.
   319  3.18  0.  0.
   320  3.19  0.  0.
   321  3.20  0.  0.
   322  3.21  0.  0.
   323  3.22  0.  0.
   324  3.23  0.  0.
   325  3.24  0.  0.
   326  3.25  0.  0.
   327  3.26  0.  0.
   328  3.27  0.  0.
   329  3.28  0.  0.
   330  3.29  0.  0.
   331  3.30  0.  0.
   332  3.31  0.  0.
   333  3.32  0.  0.
   334  3.33  0.  0.
   335  3.34  0.  0.
   336  3.35  0.  0.
   337  3.36  0.  0.
   338  3.37  0.  0.
   339  3.38  0.  0.
   340  3.39  0.  0.
   341  3.40  0.  0.
   342  3.41  0.  0.
   343  3.42  0.  0.
   344  3.43  0.  0.
   345  3.44  0.  0.
   346  3.45  0.  0.
   347  3.46  0.  0.
   348  3.47  0.  0.
   349  3.48  0.  0.
   350  3.49  0.  0.
   351  3.50  0.  0.
   352  3.51  0.  0.
   353  3.52  0.  0.
   354  3.53  0.  0.
   355  3.54  0.  0.
   356  3.55  0.  0.
   357  3.56  0.  0.
   358  3.57  0.  0.
   359  3.58  0.  0.
   360  3.59  0.  0.
   361  3.60  0.  0.
   362  3.61  0.  0.
   363  3.62  0.  0.
   364  3.63  0.  0.
   365  3.64  0.  0.
   366  3.65  0.  0.
   367  3.66  0.  0.
   368  3.67  0.  0.
   369  3.68  0.  0.
   370  3.69  0.  0.
   371  3.70  0.  0.
   372  3.71  0.  0.
   373  3.72  0.  0.
   374  3.73  0.  0.
   375  3.74  0.  0.
   376  3.75  0.  0.
   377  3.76  0.  0.
   378  3.77  0.  0.
   379  3.78  0.  0.
   380  3.79  0.  0.
   381  3.80  0.  0.
   382  3.81  0.  0.
   383  3.82  0.  0.
   384  3.83  0.  0.
   385  3.84  0.  0.
   386  3.85  0.  0.
   387  3.86  0.  0.
   388  3.87  0.  0.
   389  3.88  0.  0.
   390  3.89  0.  0.
   391  3.90  0.  0.
   392  3.91  0.  0.
   393  3.92  0.  0.
   394  3.93  0.  0.
   395  3.94  0.  0.
   396  3.95  0.  0.
   397  3.96  0.  0.
   398  3.97  0.  0.
   399  3.98  0.  0.
   400  3.99  0.  0.
   401  4.00  0.  0.
   402  4.01  0.  0.
   403  4.02  0.  0.
   404  4.03  0.  0.
   405  4.04  0.  0.
   406  4.05  0.  0.
   407  4.06  0.  0.
   408  4.07  0.  0.
   409  4.08  0.  0.
   410  4.09  0.  0.
   411  4.10  0.  0.
   412  4.11  0.  0.
   413  4.12  0.  0.
   414  4.13  0.  0.
   415  4.14  0.  0.
   416  4.15  0.  0.
   417  4.16  0.  0.
   418  4.17  0.  0.
   419  4.18  0.  0.
   420  4.19  0.  0.
   421  4.20  0.  0.
   422  4.21  0.  0.
   423  4.22  0.  0.
   424  4.23  0.  0.
   425  4.24  0.  0.
   426  4.25  0.  0.
   427  4.26  0.  0.
   428  4.27  0.  0.
   429  4.28  0.  0.
   430  4.29  0.  0.
   431  4.30  0.  0.
   432  4.31  0.  0.
   433  4.32  0.  0.
   434  4.33  0.  0.
   435  4.34  0.  0.
   436  4.35  0.  0.
   437  4.36  0.  0.
   438  4.37  0.  0.
   439  4.38  0.  0.
   440  4.39  0.  0.
   441  4.40  0.  0.
   442  4.41  0.  0.
   443  4.42  0.  0.
   444  4.43  0.  0.
   445  4.44  0.  0.
   446  4.45  0.  0.
   447  4.46  0.  0.
   448  4.47  0.  0.
   449  4.48  0.  0.
   450  4.49  0.  0.
   451  4.50  0.  0.
   452  4.51  0.  0.
   453  4.52  0.  0.
   454  4.53  0.  0.
   455  4.54  0.  0.
   456  4.55  0.  0.
   457  4.56  0.  0.
   458  4.57  0.  0.
   459  4.58  0.  0.
   460  4.59  0.  0.
   461  4.60  0.  0.
   462  4.61  0.  0.
   463  4.62  0.  0.
   464  4.63  0.  0.
   465  4.64  0.  0.
   466  4.65  0.  0.
   467  4.66  0.  0.
   468  4.67  0.  0.
   469  4.68  0.  0.
   470  4.69  0.  0.
   471  4.70  0.  0.
   472  4.71  0.  0.
   473  4.72  0.  0.
   474  4.73  0.  0.
   475  4.74  0.  0.
   476  4.75  0.  0.
   477  4.76  0.  0.
   478  4.77  0.  0.
   479  4.78  0.  0.
   480  4.79  0.  0.
   481  4.80  0.  0.
   482  4.81  0.  0.
   483  4.82  0.  0.
   484  4.83  0.  0.
   485  4.84  0.  0.
   486  4.85  0.  0.
   487  4.86  0.  0.
   488  4.87  0.  0.
   489  4.88  0.  0.
   490  4.89  0.  0.
   491  4.90  0.  0.
   492  4.91  0.  0.
   493  4.92  0.  0.
   494  4.93  0.  0.
   495  4.94  0.  0.
   496  4.95  0.  0.
   497  4.96  0.  0.
   498  4.97  0.  0.
   499  4.98  0.  0.
   500  4.99  0.  0.
   501  5.00  0.  0.
   502  5.01  0.  0.
   503  5.02  0.  0.
   504  5.03  0.  0.
   505  5.04  0.  0.
   506  5.05  0.  0.
   507  5.06  0.  0.
   508  5.07  0.  0.
   509  5.08  0.  0.
   510  5.09  0.  0.
   511  5.10  0.  0.
   512  5.11  0.  0.
   513  5.12  0.  0.
   514  5.13  0.  0.
   515  5.14  0.  0.
   516  5.15  0.  0.
   517  5.16  0.  0.
   518  5.17  0.  0.
   519  5.18  0.  0.
   520  5.19  0.  0.
   521  5.20  0.  0.
   522  5.21  0.  0.
   523  5.22  0.  0.
   524  5.23  0.  0.
   525  5.24  0.  0.
   526  5.25  0.  0.
   527  5.26  0.  0.
   528  5.27  0.  0.
   529  5.28  0.  0.
   530  5.29  0.  0.
   531  5.30  0.  0.
   532  5.31  0.  0.
   533  5.32  0.  0.
   534  5.33  0.  0.
   535  5.34  0.  0.
   536  5.35  0.  0.
   537  5.36  0.  0.
   538  5.37  0.  0.
   539  5.38  0.  0.
   540  5.39  0.  0.
   541  5.40  0.  0.
   542  5.41  0.  0.
   543  5.42  0.  0.
   544  5.43  0.  0.
   545  5.44  0.  0.
   546  5.45  0.  0.
   547  5.46  0.  0.
   548  5.47  0.  0.
   549  5.48  0.  0.
   550  5.49  0.  0.
   551  5.50  0.  0.
   552  5.51  0.  0.
   553  5.52  0.  0.
   554  5.53  0.  0.
   555  5.54  0.  0.
   556  5.55  0.  0.
   557  5.56  0.  0.
   558  5.57  0.  0.
   559  5.58  0.  0.
   560  5.59  0.  0.
   561  5.60  0.  0.
   562  5.61  0.  0.
   563  5.62  0.  0.
   564  5.63  0.  0.
   565  5.64  0.  0.
   566  5.65  0.  0.
   567  5.66  0.  0.
   568  5.67  0.  0.
   569  5.68  0.  0.
   570  5.69  0.  0.
   571  5.70  0.  0.
   572  5.71  0.  0.
   573  5.72  0.  0.
   574  5.73  0.  0.
   575  5.74  0.  0.
   576  5.75  0.  0.
   577  5.76  0.  0.
   578  5.77  0.  0.
   579  5.78  0.  0.
   580  5.79  0.  0.
   581  5.80  0.  0.
   582  5.81  0.  0.
   583  5.82  0.  0.
   584  5.83  0.  0.
   585  5.84  0.  0.
   586  5.85  0.  0.
   587  5.86  0.  0.
   588  5.87  0.  0.
   589  5.88  0.  0.
   590  5.89  0.  0.
   591  5.90  0.  0.
   592  5.91  0.  0.
   593  5.92  0.  0.
   594  5.93  0.  0.
   595  5.94  0.  0.
   596  5.95  0.  0.
   597  5.96  0.  0.
   598  5.97  0.  0.
   599  5.98  0.  0.
   600  5.99  0.  0.
   1                         5.8156988738099E+00  8.7146921149050E-01  3.1082744644191E-01
     1  0.0000000000000E+00 -7.9645624644076E-10  1.8899380185844E-09 -1.8700371945402E-09
     2  1.0000000000000E-02 -1.1291211939098E-04  8.6492416896333E-04 -1.1197834011680E-03
     3  2.0000000000000E-02 -4.4705543012162E-04  3.4484693246871E-03 -4.4680325090120E-03
     4  3.0000000000000E-02 -9.8869799704553E-04  7.7170653127263E-03 -1.0011553136006E-02
     5  4.0000000000000E-02 -1.7151101916879E-03  1.3615133858844E-02 -1.7695384297227E-02
     6  5.0000000000000E-02 -2.5947985959976E-03  2.1065643004649E-02 -2.7443338696770E-02
     7  6.0000000000000E-02 -3.5878304979012E-03  2.9970876270369E-02 -3.9158752430075E-02
     8  7.0000000000000E-02 -4.6462460395005E-03  4.0213409570126E-02 -5.2725436995736E-02
     9  8.0000000000000E-02 -5.7145542822979E-03  5.1657287015144E-02 -6.8008824840360E-02
    10  9.0000000000000E-02 -6.7303086893921E-03  6.4149384926366E-02 -8.4857297865493E-02
    11  1.0000000000000E-01 -7.6247567987627E-03  7.7520951655676E-02 -1.0310368662310E-01
    12  1.1000000000000E-01 -8.3235581807343E-03  9.1589309199017E-02 -1.2256692632987E-01
    13  1.2000000000000E-01 -8.7475641424909E-03  1.0615970108937E-01 -1.4305385435500E-01
    14  1.3000000000000E-01 -8.8136520684837E-03  1.2102726969572E-01 -1.6436113249399E-01
    15  1.4000000000000E-01 -8.4356067728552E-03  1.3597914483766E-01 -1.8627727614442E-01
    16  1.5000000000000E-01 -7.5250407930420E-03  1.5079662456528E-01 -2.0858477145895E-01
    17  1.6000000000000E-01 -5.9923451765559E-03  1.6525742805922E-01 -2.3106226067649E-01
    18  1.7000000000000E-01 -3.7476620089780E-03  1.7913799988540E-01 -2.5348677513063E-01
    19  1.8000000000000E-01 -7.0186970323707E-04  1.9221584429825E-01 -2.7563599491435E-01
    20  1.9000000000000E-01  3.2324280795573E-03  2.0427186793207E-01 -2.9729051384435E-01
    21  2.0000000000000E-01  8.1399190774618E-03  2.1509270905473E-01 -3.1823608822213E-01
    22  2.1000000000000E-01  1.4101613832462E-02  2.2447303158384E-01 -3.3826584793419E-01
    23  2.2000000000000E-01  2.1193900950516E-02  2.3221776228380E-01 -3.5718244866975E-01
    24  2.3000000000000E-01  2.9487635143099E-02  2.3814424997075E-01 -3.7480014446154E-01
    25  2.4000000000000E-01  3.9047266725621E-02  2.4208432614898E-01 -3.9094676036914E-01
    26  2.5000000000000E-01  4.9930020919975E-02  2.4388624728326E-01 -4.0546554592198E-01
    27  2.6000000000000E-01  6.2185134905393E-02  2.4341649986921E-01 -4.1821689091358E-01
    28  2.7000000000000E-01  7.5853160087085E-02  2.4056145059301E-01 -4.2907988628246E-01
    29  2.8000000000000E-01  9.0965336509405E-02  2.3522882516147E-01 -4.3795371412017E-01
    30  2.9000000000000E-01  1.0754304573386E-01  2.2734900082511E-01 -4.4475885230175E-01
    31  3.0000000000000E-01  1.2559734783722E-01  2.1687609919783E-01 -4.4943808082705E-01
    32  3.1000000000000E-01  1.4512860746649E-01  2.0378886768426E-01 -4.5195727868074E-01
    33  3.2000000000000E-01  1.6612621312159E-01  1.8809133964665E-01 -4.5230600184863E-01
    34  3.3000000000000E-01  1.8856839302976E-01  1.6981326536106E-01 -4.5049783505466E-01
    35  3.4000000000000E-01  2.1242213013415E-01  1.4901030781251E-01 -4.4657051178949E-01
    36  3.5000000000000E-01  2.3764317785066E-01  1.2576399944362E-01 -4.4058579927113E-01
    37  3.6000000000000E-01  2.6417617735831E-01  1.0018145808377E-01 -4.3262914709391E-01
    38  3.7000000000000E-01  2.9195487628749E-01  7.2394862427450E-02 -4.2280910046494E-01
    39  3.8000000000000E-01  3.2090244776462E-01  4.2560689584360E-02 -4.1125648107943E-01
    40  3.9000000000000E-01  3.5093190786932E-01  1.0858719369412E-02 -3.9812334082936E-01
    41  4.0000000000000E-01  3.8194662866810E-01 -2.2509187878588E-02 -3.8358169565423E-01
    42  4.1000000000000E-01  4.1384094311601E-01 -5.7320531084980E-02 -3.6782204891082E-01
    43  4.2000000000000E-01  4.4650083727082E-01 -9.3333814956058E-02 -3.5105171564132E-01
    44  4.3000000000000E-01  4.7980472445173E-01 -1.3029039041383E-01 -3.3349296103858E-01
    45  4.4000000000000E-01  5.1362429520331E-01 -1.6791647430303E-01 -3.1538096822647E-01
    46  4.5000000000000E-01  5.4782543620201E-01 -2.0592533200399E-01 -2.9696165217444E-01
    47  4.6000000000000E-01  5.8226921057446E-01 -2.4401960499511E-01 -2.7848933813421E-01
    48  4.7000000000000E-01  6.1681289148942E-01 -2.8189376396311E-01 -2.6022432440663E-01
    49  4.8000000000000E-01  6.5131104034502E-01 -3.1923666677334E-01 -2.4243035050564E-01
    50  4.9000000000000E-01  6.8561662040456E-01 -3.5573419949707E-01 -2.2537199287055E-01
    51  5.0000000000000E-01  7.1958213634260E-01 -3.9107197775986E-01 -2.0931201117731E-01
    52  5.1000000000000E-01  7.5306078985233E-01 -4.2493808493450E-01 -1.9450866900353E-01
    53  5.2000000000000E-01  7.8590764123857E-01 -4.5702582316090E-01 -1.8121305310365E-01
    54  5.3000000000000E-01  8.1798076678072E-01 -4.8703645284087E-01 -1.6966641584291E-01
    55  5.4000000000000E-01  8.4914240159918E-01 -5.1468189613223E-01 -1.6009756541702E-01
    56  5.5000000000000E-01  8.7926005779741E-01 -5.3968738005735E-01 -1.5272032834662E-01
    57  5.6000000000000E-01  9.0820760778110E-01 -5.6179399514654E-01 -1.4773110837926E-01
    58  5.7000000000000E-01  9.3586632287542E-01 -5.8076114605686E-01 -1.4530656535983E-01
    59  5.8000000000000E-01  9.6212585766935E-01 -5.9636887133795E-01 -1.4560143684344E-01
    60  5.9000000000000E-01  9.8688517091156E-01 -6.0842001045580E-01 -1.4874652422944E-01
    61  6.0000000000000E-01  1.0100533742619E+00 -6.1674219732436E-01 -1.5484686399682E-01
    62  6.1000000000000E-01  1.0315505007630E+00 -6.2118966092773E-01 -1.6398010322852E-01
    63  6.2000000000000E-01  1.0513081855344E+00 -6.2164481513050E-01 -1.7619509703517E-01
    64  6.3000000000000E-01  1.0692702518990E+00 -6.1801962146080E-01 -1.9151074373920E-01