Mn    ONCVPSP-4.0.1  r_core=   1.40044   1.20591   1.60701
     25.0000     15.0000      250217    zatom,zion,pspd
     8       2   2     4   600     0    pspcod,pspxc,lmax,lloc,mmax,r2well
  5.99000000  4.00000000  0.00000000    rchrg fchrg qchrg
     2     2     2     0    nproj
     3     1           extension_switch
     4     4     0    nprojso
   0                         8.6595722181904E+00  1.3870681437975E+00
     1  0.0000000000000E+00 -1.4284406990583E-09  3.1014490142756E-09
     2  1.0000000000000E-02  8.9562520331867E-02 -2.3245234296035E-02
     3  2.0000000000000E-02  1.7881831995249E-01 -4.6178392582239E-02
     4  3.0000000000000E-02  2.6746272801864E-01 -6.8490961060210E-02
     5  4.0000000000000E-02  3.5519514860002E-01 -8.9881498501117E-02
     6  5.0000000000000E-02  4.4172103644880E-01 -1.1005904370303E-01
     7  6.0000000000000E-02  5.2675379977822E-01 -1.2874637059916E-01
     8  7.0000000000000E-02  6.1001660742511E-01 -1.4568304393710E-01
     9  8.0000000000000E-02  6.9124407919976E-01 -1.6062823155058E-01
    10  9.0000000000000E-02  7.7018383997100E-01 -1.7336323303245E-01
    11  1.0000000000000E-01  8.4659792006845E-01 -1.8369368903237E-01
    12  1.1000000000000E-01  9.2026398687645E-01 -1.9145144037831E-01
    13  1.2000000000000E-01  9.9097639501108E-01 -1.9649601168009E-01
    14  1.3000000000000E-01  1.0585470451731E+00 -1.9871569993307E-01
    15  1.4000000000000E-01  1.1228060446161E+00 -1.9802825480964E-01
    16  1.5000000000000E-01  1.1836021651152E+00 -1.9438114371061E-01
    17  1.6000000000000E-01  1.2408030973233E+00 -1.8775140114919E-01
    18  1.7000000000000E-01  1.2942955034140E+00 -1.7814506855531E-01
    19  1.8000000000000E-01  1.3439848728802E+00 -1.6559623701628E-01
    20  1.9000000000000E-01  1.3897951892503E+00 -1.5016571171087E-01
    21  2.0000000000000E-01  1.4316684182414E+00 -1.3193932274769E-01
    22  2.1000000000000E-01  1.4695638304596E+00 -1.1102591269286E-01
    23  2.2000000000000E-01  1.5034571741294E+00 -8.7555036175102E-02
    24  2.3000000000000E-01  1.5333397154626E+00 -6.1674411507570E-02
    25  2.4000000000000E-01  1.5592171661116E+00 -3.3547168189111E-02
    26  2.5000000000000E-01  1.5811085186813E+00 -3.3489373792005E-03
    27  2.6000000000000E-01  1.5990448124536E+00  2.8735165075691E-02
    28  2.7000000000000E-01  1.6130678523045E+00  6.2513611794212E-02
    29  2.8000000000000E-01  1.6232289042439E+00  9.7791541051506E-02
    30  2.9000000000000E-01  1.6295873910704E+00  1.3437378584407E-01
    31  3.0000000000000E-01  1.6322096113145E+00  1.7206780348504E-01
    32  3.1000000000000E-01  1.6311675039382E+00  2.1068645605089E-01
    33  3.2000000000000E-01  1.6265374801770E+00  2.5005059448727E-01
    34  3.3000000000000E-01  1.6183993424766E+00  2.8999140245708E-01
    35  3.4000000000000E-01  1.6068353086915E+00  3.3035246003158E-01
    36  3.5000000000000E-01  1.5919291576319E+00  3.7099149202918E-01
    37  3.6000000000000E-01  1.5737655096676E+00  4.1178177112501E-01
    38  3.7000000000000E-01  1.5524292534897E+00  4.5261315170925E-01
    39  3.8000000000000E-01  1.5280051273101E+00  4.9339271677357E-01
    40  3.9000000000000E-01  1.5005774598043E+00  5.3404502675639E-01
    41  4.0000000000000E-01  1.4702300730155E+00  5.7451196617399E-01
    42  4.1000000000000E-01  1.4370463462869E+00  6.1475219089883E-01
    43  4.2000000000000E-01  1.4011094371311E+00  6.5474018600409E-01
    44  4.3000000000000E-01  1.3625026518248E+00  6.9446495106204E-01
    45  4.4000000000000E-01  1.3213099554926E+00  7.3392833654816E-01
    46  4.5000000000000E-01  1.2776166085629E+00  7.7314306145056E-01
    47  4.6000000000000E-01  1.2315099137944E+00  8.1213044820760E-01
    48  4.7000000000000E-01  1.1830800556230E+00  8.5091791658891E-01
    49  4.8000000000000E-01  1.1324210114259E+00  8.8953628300448E-01
    50  4.9000000000000E-01  1.0796315124591E+00  9.2801691588031E-01
    51  5.0000000000000E-01  1.0248160307570E+00  9.6638880110243E-01
    52  5.1000000000000E-01  9.6808576719755E-01  1.0046755740381E+00
    53  5.2000000000000E-01  9.0955961526777E-01  1.0428925762363E+00
    54  5.3000000000000E-01  8.4936507483317E-01  1.0810439955560E+00
    55  5.4000000000000E-01  7.8763909041878E-01  1.1191201481374E+00
    56  5.5000000000000E-01  7.2452878916922E-01  1.1570949593149E+00
    57  5.6000000000000E-01  6.6019209475489E-01  1.1949236982753E+00
    58  5.7000000000000E-01  5.9479819502789E-01  1.2325410180060E+00
    59  5.8000000000000E-01  5.2852784318368E-01  1.2698593479069E+00
    60  5.9000000000000E-01  4.6157347453035E-01  1.3067676813915E+00
    61  6.0000000000000E-01  3.9413912367378E-01  1.3431307949596E+00
    62  6.1000000000000E-01  3.2644012995774E-01  1.3787889286605E+00
    63  6.2000000000000E-01  2.5870262230868E-01  1.4135579506738E+00
    64  6.3000000000000E-01  1.9116277817724E-01  1.4472300210269E+00
    65  6.4000000000000E-01  1.2406585498915E-01  1.4795747613566E+00
    66  6.5000000000000E-01  5.7664996359984E-02  1.5103409292269E+00
    67  6.6000000000000E-01 -7.7801807691080E-03  1.5392585869752E+00
    68  6.7000000000000E-01 -7.2005208015717E-02  1.5660417465043E+00
    69  6.8000000000000E-01 -1.3474258256370E-01  1.5903914630046E+00
    70  6.9000000000000E-01 -1.9572376168710E-01  1.6119993424210E+00
    71  7.0000000000000E-01 -2.5468131366283E-01  1.6305514197090E+00
    72  7.1000000000000E-01 -3.1135120067403E-01  1.6457323576771E+00
    73  7.2000000000000E-01 -3.6547516634284E-01  1.6572299096307E+00
    74  7.3000000000000E-01 -4.1680319792940E-01  1.6647395832101E+00
    75  7.4000000000000E-01 -4.6509603104106E-01  1.6679694378827E+00
    76  7.5000000000000E-01 -5.1012766295607E-01  1.6666449445830E+00
    77  7.6000000000000E-01 -5.5168783941487E-01  1.6605138330818E+00
    78  7.7000000000000E-01 -5.8958447899982E-01  1.6493508508732E+00
    79  7.8000000000000E-01 -6.2364599903109E-01  1.6329623567417E+00
    80  7.9000000000000E-01 -6.5372350726751E-01  1.6111906727369E+00
    81  8.0000000000000E-01 -6.7969282461912E-01  1.5839181200609E+00
    82  8.1000000000000E-01 -7.0145630555124E-01  1.5510706673501E+00
    83  8.2000000000000E-01 -7.1894442487303E-01  1.5126211239797E+00
    84  8.3000000000000E-01 -7.3211710213691E-01  1.4685918162966E+00
    85  8.4000000000000E-01 -7.4096473789699E-01  1.4190566910258E+00
    86  8.5000000000000E-01 -7.4550893954833E-01  1.3641427974144E+00
    87  8.6000000000000E-01 -7.4580291834571E-01  1.3040311078785E+00
    88  8.7000000000000E-01 -7.4193154343029E-01  1.2389566458864E+00
    89  8.8000000000000E-01 -7.3401104321260E-01  1.1692078994171E+00
    90  8.9000000000000E-01 -7.2218834920784E-01  1.0951255084380E+00
    91  9.0000000000000E-01 -7.0664008232384E-01  1.0171002252972E+00
    92  9.1000000000000E-01 -6.8757118658986E-01  9.3557015756809E-01
    93  9.2000000000000E-01 -6.6521322031106E-01  8.5101731355113E-01
    94  9.3000000000000E-01 -6.3982231956199E-01  7.6396348116948E-01
    95  9.4000000000000E-01 -6.1167685371522E-01  6.7496548121821E-01
    96  9.5000000000000E-01 -5.8107479726526E-01  5.8460984568579E-01
    97  9.6000000000000E-01 -5.4833084647728E-01  4.9350698099771E-01
    98  9.7000000000000E-01 -5.1377331329836E-01  4.0228488438991E-01
    99  9.8000000000000E-01 -4.7774083244932E-01  3.1158248906070E-01
   100  9.9000000000000E-01 -4.4057892061123E-01  2.2204272015146E-01
   101  1.0000000000000E+00 -4.0263642907907E-01  1.3430534885390E-01
   102  1.0100000000000E+00 -3.6426193313274E-01  4.8999735940167E-02
   103  1.0200000000000E+00 -3.2580010263718E-01 -3.3262441313647E-02
   104  1.0300000000000E+00 -2.8758809900330E-01 -1.1189438354538E-01
   105  1.0400000000000E+00 -2.4995204360167E-01 -1.8634118992692E-01
   106  1.0500000000000E+00 -2.1320360201893E-01 -2.5608661139648E-01
   107  1.0600000000000E+00 -1.7763672718135E-01 -3.2065944589144E-01
   108  1.0700000000000E+00 -1.4352460236043E-01 -3.7963948933259E-01
   109  1.0800000000000E+00 -1.1111682244613E-01 -4.3266296180690E-01
   110  1.0900000000000E+00 -8.0636848649267E-02 -4.7942733537111E-01
   111  1.1000000000000E+00 -5.2279768042958E-02 -5.1969549800600E-01
   112  1.1100000000000E+00 -2.6210385089051E-02 -5.5329919746015E-01
   113  1.1200000000000E+00 -2.5616676280268E-03 -5.8014171879487E-01
   114  1.1300000000000E+00  1.8566435244954E-02 -6.0019976034644E-01
   115  1.1400000000000E+00  3.7107791312324E-02 -6.1352448428391E-01
   116  1.1500000000000E+00  5.3030492821491E-02 -6.2024172990138E-01
   117  1.1600000000000E+00  6.6336872623733E-02 -6.2055138994697E-01
   118  1.1700000000000E+00  7.7063133685416E-02 -6.1472596260577E-01
   119  1.1800000000000E+00  8.5278602430165E-02 -6.0310830387280E-01
   120  1.1900000000000E+00  9.1084622072435E-02 -5.8610861738161E-01
   121  1.2000000000000E+00  9.4613103403929E-02 -5.6420071919446E-01
   122  1.2100000000000E+00  9.6024778594280E-02 -5.3791768902955E-01
   123  1.2200000000000E+00  9.5505836540646E-02 -5.0784329871213E-01
   124  1.2300000000000E+00  9.3260780403342E-02 -4.7459354248271E-01
   125  1.2400000000000E+00  8.9507334048413E-02 -4.3880429463973E-01
   126  1.2500000000000E+00  8.4473081327476E-02 -4.0112389772795E-01
   127  1.2600000000000E+00  7.8391991826902E-02 -3.6220552108299E-01
   128  1.2700000000000E+00  7.1500887687901E-02 -3.2269941248486E-01
   129  1.2800000000000E+00  6.4035891885341E-02 -2.8324512570986E-01
   130  1.2900000000000E+00  5.6228906335642E-02 -2.4446382861393E-01
   131  1.3000000000000E+00  4.8304167697557E-02 -2.0695079514087E-01
   132  1.3100000000000E+00  4.0474930842882E-02 -1.7126818829937E-01
   133  1.3200000000000E+00  3.2940344138894E-02 -1.3793829642206E-01
   134  1.3300000000000E+00  2.5881198790709E-02 -1.0743388638889E-01
   135  1.3400000000000E+00  1.9459122641792E-02 -8.0183207626459E-02
   136  1.3500000000000E+00  1.3734945745050E-02 -5.6355283014428E-02
   137  1.3600000000000E+00  8.9068380278288E-03 -3.6457314899682E-02
   138  1.3700000000000E+00  5.0683387052587E-03 -2.0733201417030E-02
   139  1.3800000000000E+00  2.2853836454898E-03 -9.3607294859898E-03
   140  1.3900000000000E+00  5.8867208442224E-04 -2.4187397102784E-03
   141  1.4000000000000E+00  6.1870307620241E-06 -2.5512588196336E-05
   142  1.4100000000000E+00  2.8887102777767E-06 -1.1909184615306E-05
   143  1.4200000000000E+00 -8.8756319952139E-07  3.6516595663174E-06
   144  1.43  0.  0.
   145  1.44  0.  0.
   146  1.45  0.  0.
   147  1.46  0.  0.
   148  1.47  0.  0.
   149  1.48  0.  0.
   150  1.49  0.  0.
   151  1.50  0.  0.
   152  1.51  0.  0.
   153  1.52  0.  0.
   154  1.53  0.  0.
   155  1.54  0.  0.
   156  1.55  0.  0.
   157  1.56  0.  0.
   158  1.57  0.  0.
   159  1.58  0.  0.
   160  1.59  0.  0.
   161  1.60  0.  0.
   162  1.61  0.  0.
   163  1.62  0.  0.
   164  1.63  0.  0.
   165  1.64  0.  0.
   166  1.65  0.  0.
   167  1.66  0.  0.
   168  1.67  0.  0.
   169  1.68  0.  0.
   170  1.69  0.  0.
   171  1.70  0.  0.
   172  1.71  0.  0.
   173  1.72  0.  0.
   174  1.73  0.  0.
   175  1.74  0.  0.
   176  1.75  0.  0.
   177  1.76  0.  0.
   178  1.77  0.  0.
   179  1.78  0.  0.
   180  1.79  0.  0.
   181  1.80  0.  0.
   182  1.81  0.  0.
   183  1.82  0.  0.
   184  1.83  0.  0.
   185  1.84  0.  0.
   186  1.85  0.  0.
   187  1.86  0.  0.
   188  1.87  0.  0.
   189  1.88  0.  0.
   190  1.89  0.  0.
   191  1.90  0.  0.
   192  1.91  0.  0.
   193  1.92  0.  0.
   194  1.93  0.  0.
   195  1.94  0.  0.
   196  1.95  0.  0.
   197  1.96  0.  0.
   198  1.97  0.  0.
   199  1.98  0.  0.
   200  1.99  0.  0.
   201  2.00  0.  0.
   202  2.01  0.  0.
   203  2.02  0.  0.
   204  2.03  0.  0.
   205  2.04  0.  0.
   206  2.05  0.  0.
   207  2.06  0.  0.
   208  2.07  0.  0.
   209  2.08  0.  0.
   210  2.09  0.  0.
   211  2.10  0.  0.
   212  2.11  0.  0.
   213  2.12  0.  0.
   214  2.13  0.  0.
   215  2.14  0.  0.
   216  2.15  0.  0.
   217  2.16  0.  0.
   218  2.17  0.  0.
   219  2.18  0.  0.
   220  2.19  0.  0.
   221  2.20  0.  0.
   222  2.21  0.  0.
   223  2.22  0.  0.
   224  2.23  0.  0.
   225  2.24  0.  0.
   226  2.25  0.  0.
   227  2.26  0.  0.
   228  2.27  0.  0.
   229  2.28  0.  0.
   230  2.29  0.  0.
   231  2.30  0.  0.
   232  2.31  0.  0.
   233  2.32  0.  0.
   234  2.33  0.  0.
   235  2.34  0.  0.
   236  2.35  0.  0.
   237  2.36  0.  0.
   238  2.37  0.  0.
   239  2.38  0.  0.
   240  2.39  0.  0.
   241  2.40  0.  0.
   242  2.41  0.  0.
   243  2.42  0.  0.
   244  2.43  0.  0.
   245  2.44  0.  0.
   246  2.45  0.  0.
   247  2.46  0.  0.
   248  2.47  0.  0.
   249  2.48  0.  0.
   250  2.49  0.  0.
   251  2.50  0.  0.
   252  2.51  0.  0.
   253  2.52  0.  0.
   254  2.53  0.  0.
   255  2.54  0.  0.
   256  2.55  0.  0.
   257  2.56  0.  0.
   258  2.57  0.  0.
   259  2.58  0.  0.
   260  2.59  0.  0.
   261  2.60  0.  0.
   262  2.61  0.  0.
   263  2.62  0.  0.
   264  2.63  0.  0.
   265  2.64  0.  0.
   266  2.65  0.  0.
   267  2.66  0.  0.
   268  2.67  0.  0.
   269  2.68  0.  0.
   270  2.69  0.  0.
   271  2.70  0.  0.
   272  2.71  0.  0.
   273  2.72  0.  0.
   274  2.73  0.  0.
   275  2.74  0.  0.
   276  2.75  0.  0.
   277  2.76  0.  0.
   278  2.77  0.  0.
   279  2.78  0.  0.
   280  2.79  0.  0.
   281  2.80  0.  0.
   282  2.81  0.  0.
   283  2.82  0.  0.
   284  2.83  0.  0.
   285  2.84  0.  0.
   286  2.85  0.  0.
   287  2.86  0.  0.
   288  2.87  0.  0.
   289  2.88  0.  0.
   290  2.89  0.  0.
   291  2.90  0.  0.
   292  2.91  0.  0.
   293  2.92  0.  0.
   294  2.93  0.  0.
   295  2.94  0.  0.
   296  2.95  0.  0.
   297  2.96  0.  0.
   298  2.97  0.  0.
   299  2.98  0.  0.
   300  2.99  0.  0.
   301  3.00  0.  0.
   302  3.01  0.  0.
   303  3.02  0.  0.
   304  3.03  0.  0.
   305  3.04  0.  0.
   306  3.05  0.  0.
   307  3.06  0.  0.
   308  3.07  0.  0.
   309  3.08  0.  0.
   310  3.09  0.  0.
   311  3.10  0.  0.
   312  3.11  0.  0.
   313  3.12  0.  0.
   314  3.13  0.  0.
   315  3.14  0.  0.
   316  3.15  0.  0.
   317  3.16  0.  0.
   318  3.17  0.  0.
   319  3.18  0.  0.
   320  3.19  0.  0.
   321  3.20  0.  0.
   322  3.21  0.  0.
   323  3.22  0.  0.
   324  3.23  0.  0.
   325  3.24  0.  0.
   326  3.25  0.  0.
   327  3.26  0.  0.
   328  3.27  0.  0.
   329  3.28  0.  0.
   330  3.29  0.  0.
   331  3.30  0.  0.
   332  3.31  0.  0.
   333  3.32  0.  0.
   334  3.33  0.  0.
   335  3.34  0.  0.
   336  3.35  0.  0.
   337  3.36  0.  0.
   338  3.37  0.  0.
   339  3.38  0.  0.
   340  3.39  0.  0.
   341  3.40  0.  0.
   342  3.41  0.  0.
   343  3.42  0.  0.
   344  3.43  0.  0.
   345  3.44  0.  0.
   346  3.45  0.  0.
   347  3.46  0.  0.
   348  3.47  0.  0.
   349  3.48  0.  0.
   350  3.49  0.  0.
   351  3.50  0.  0.
   352  3.51  0.  0.
   353  3.52  0.  0.
   354  3.53  0.  0.
   355  3.54  0.  0.
   356  3.55  0.  0.
   357  3.56  0.  0.
   358  3.57  0.  0.
   359  3.58  0.  0.
   360  3.59  0.  0.
   361  3.60  0.  0.
   362  3.61  0.  0.
   363  3.62  0.  0.
   364  3.63  0.  0.
   365  3.64  0.  0.
   366  3.65  0.  0.
   367  3.66  0.  0.
   368  3.67  0.  0.
   369  3.68  0.  0.
   370  3.69  0.  0.
   371  3.70  0.  0.
   372  3.71  0.  0.
   373  3.72  0.  0.
   374  3.73  0.  0.
   375  3.74  0.  0.
   376  3.75  0.  0.
   377  3.76  0.  0.
   378  3.77  0.  0.
   379  3.78  0.  0.
   380  3.79  0.  0.
   381  3.80  0.  0.
   382  3.81  0.  0.
   383  3.82  0.  0.
   384  3.83  0.  0.
   385  3.84  0.  0.
   386  3.85  0.  0.
   387  3.86  0.  0.
   388  3.87  0.  0.
   389  3.88  0.  0.
   390  3.89  0.  0.
   391  3.90  0.  0.
   392  3.91  0.  0.
   393  3.92  0.  0.
   394  3.93  0.  0.
   395  3.94  0.  0.
   396  3.95  0.  0.
   397  3.96  0.  0.
   398  3.97  0.  0.
   399  3.98  0.  0.
   400  3.99  0.  0.
   401  4.00  0.  0.
   402  4.01  0.  0.
   403  4.02  0.  0.
   404  4.03  0.  0.
   405  4.04  0.  0.
   406  4.05  0.  0.
   407  4.06  0.  0.
   408  4.07  0.  0.
   409  4.08  0.  0.
   410  4.09  0.  0.
   411  4.10  0.  0.
   412  4.11  0.  0.
   413  4.12  0.  0.
   414  4.13  0.  0.
   415  4.14  0.  0.
   416  4.15  0.  0.
   417  4.16  0.  0.
   418  4.17  0.  0.
   419  4.18  0.  0.
   420  4.19  0.  0.
   421  4.20  0.  0.
   422  4.21  0.  0.
   423  4.22  0.  0.
   424  4.23  0.  0.
   425  4.24  0.  0.
   426  4.25  0.  0.
   427  4.26  0.  0.
   428  4.27  0.  0.
   429  4.28  0.  0.
   430  4.29  0.  0.
   431  4.30  0.  0.
   432  4.31  0.  0.
   433  4.32  0.  0.
   434  4.33  0.  0.
   435  4.34  0.  0.
   436  4.35  0.  0.
   437  4.36  0.  0.
   438  4.37  0.  0.
   439  4.38  0.  0.
   440  4.39  0.  0.
   441  4.40  0.  0.
   442  4.41  0.  0.
   443  4.42  0.  0.
   444  4.43  0.  0.
   445  4.44  0.  0.
   446  4.45  0.  0.
   447  4.46  0.  0.
   448  4.47  0.  0.
   449  4.48  0.  0.
   450  4.49  0.  0.
   451  4.50  0.  0.
   452  4.51  0.  0.
   453  4.52  0.  0.
   454  4.53  0.  0.
   455  4.54  0.  0.
   456  4.55  0.  0.
   457  4.56  0.  0.
   458  4.57  0.  0.
   459  4.58  0.  0.
   460  4.59  0.  0.
   461  4.60  0.  0.
   462  4.61  0.  0.
   463  4.62  0.  0.
   464  4.63  0.  0.
   465  4.64  0.  0.
   466  4.65  0.  0.
   467  4.66  0.  0.
   468  4.67  0.  0.
   469  4.68  0.  0.
   470  4.69  0.  0.
   471  4.70  0.  0.
   472  4.71  0.  0.
   473  4.72  0.  0.
   474  4.73  0.  0.
   475  4.74  0.  0.
   476  4.75  0.  0.
   477  4.76  0.  0.
   478  4.77  0.  0.
   479  4.78  0.  0.
   480  4.79  0.  0.
   481  4.80  0.  0.
   482  4.81  0.  0.
   483  4.82  0.  0.
   484  4.83  0.  0.
   485  4.84  0.  0.
   486  4.85  0.  0.
   487  4.86  0.  0.
   488  4.87  0.  0.
   489  4.88  0.  0.
   490  4.89  0.  0.
   491  4.90  0.  0.
   492  4.91  0.  0.
   493  4.92  0.  0.
   494  4.93  0.  0.
   495  4.94  0.  0.
   496  4.95  0.  0.
   497  4.96  0.  0.
   498  4.97  0.  0.
   499  4.98  0.  0.
   500  4.99  0.  0.
   501  5.00  0.  0.
   502  5.01  0.  0.
   503  5.02  0.  0.
   504  5.03  0.  0.
   505  5.04  0.  0.
   506  5.05  0.  0.
   507  5.06  0.  0.
   508  5.07  0.  0.
   509  5.08  0.  0.
   510  5.09  0.  0.
   511  5.10  0.  0.
   512  5.11  0.  0.
   513  5.12  0.  0.
   514  5.13  0.  0.
   515  5.14  0.  0.
   516  5.15  0.  0.
   517  5.16  0.  0.
   518  5.17  0.  0.
   519  5.18  0.  0.
   520  5.19  0.  0.
   521  5.20  0.  0.
   522  5.21  0.  0.
   523  5.22  0.  0.
   524  5.23  0.  0.
   525  5.24  0.  0.
   526  5.25  0.  0.
   527  5.26  0.  0.
   528  5.27  0.  0.
   529  5.28  0.  0.
   530  5.29  0.  0.
   531  5.30  0.  0.
   532  5.31  0.  0.
   533  5.32  0.  0.
   534  5.33  0.  0.
   535  5.34  0.  0.
   536  5.35  0.  0.
   537  5.36  0.  0.
   538  5.37  0.  0.
   539  5.38  0.  0.
   540  5.39  0.  0.
   541  5.40  0.  0.
   542  5.41  0.  0.
   543  5.42  0.  0.
   544  5.43  0.  0.
   545  5.44  0.  0.
   546  5.45  0.  0.
   547  5.46  0.  0.
   548  5.47  0.  0.
   549  5.48  0.  0.
   550  5.49  0.  0.
   551  5.50  0.  0.
   552  5.51  0.  0.
   553  5.52  0.  0.
   554  5.53  0.  0.
   555  5.54  0.  0.
   556  5.55  0.  0.
   557  5.56  0.  0.
   558  5.57  0.  0.
   559  5.58  0.  0.
   560  5.59  0.  0.
   561  5.60  0.  0.
   562  5.61  0.  0.
   563  5.62  0.  0.
   564  5.63  0.  0.
   565  5.64  0.  0.
   566  5.65  0.  0.
   567  5.66  0.  0.
   568  5.67  0.  0.
   569  5.68  0.  0.
   570  5.69  0.  0.
   571  5.70  0.  0.
   572  5.71  0.  0.
   573  5.72  0.  0.
   574  5.73  0.  0.
   575  5.74  0.  0.
   576  5.75  0.  0.
   577  5.76  0.  0.
   578  5.77  0.  0.
   579  5.78  0.  0.
   580  5.79  0.  0.
   581  5.80  0.  0.
   582  5.81  0.  0.
   583  5.82  0.  0.
   584  5.83  0.  0.
   585  5.84  0.  0.
   586  5.85  0.  0.
   587  5.86  0.  0.
   588  5.87  0.  0.
   589  5.88  0.  0.
   590  5.89  0.  0.
   591  5.90  0.  0.
   592  5.91  0.  0.
   593  5.92  0.  0.
   594  5.93  0.  0.
   595  5.94  0.  0.
   596  5.95  0.  0.
   597  5.96  0.  0.
   598  5.97  0.  0.
   599  5.98  0.  0.
   600  5.99  0.  0.
   1                         1.3923710929121E+00 -7.4550170357062E-01
     1  0.0000000000000E+00  3.4802713655413E-08 -3.6204765262171E-09
     2  1.0000000000000E-02  4.1858105030719E-03  3.6752745171603E-04
     3  2.0000000000000E-02  1.6690351955616E-02  1.4750465880797E-03
     4  3.0000000000000E-02  3.7355900614306E-02  3.3372608541489E-03
     5  4.0000000000000E-02  6.5922716846869E-02  5.9783218649325E-03
     6  5.0000000000000E-02  1.0203367038243E-01  9.4313058708417E-03
     7  6.0000000000000E-02  1.4524056822388E-01  1.3737495940208E-02
     8  7.0000000000000E-02  1.9501204212586E-01  1.8945484573046E-02
     9  8.0000000000000E-02  2.5074281773958E-01  2.5110115080707E-02
    10  9.0000000000000E-02  3.1176415707732E-01  3.2291283267771E-02
    11  1.0000000000000E-01  3.7735524059750E-01  4.0552623664200E-02
    12  1.1000000000000E-01  4.4675523557378E-01  4.9960106716892E-02
    13  1.2000000000000E-01  5.1917578396286E-01  6.0580574913515E-02
    14  1.3000000000000E-01  5.9381363604948E-01  7.2480246745583E-02
    15  1.4000000000000E-01  6.6986315588201E-01  8.5723217704611E-02
    16  1.5000000000000E-01  7.4652843091517E-01  1.0036998714310E-01
    17  1.6000000000000E-01  8.2303473117559E-01  1.1647603883503E-01
    18  1.7000000000000E-01  8.9863908232983E-01  1.3409050146701E-01
    19  1.8000000000000E-01  9.7263974177528E-01  1.5325491312522E-01
    20  1.9000000000000E-01  1.0443843966656E+00  1.7400211117124E-01
    21  2.0000000000000E-01  1.1132769368677E+00  1.9635526579056E-01
    22  2.1000000000000E-01  1.1787826933642E+00  2.2032707203030E-01
    23  2.2000000000000E-01  1.2404320726128E+00  2.4591911140429E-01
    24  2.3000000000000E-01  1.2978225588413E+00  2.7312139022839E-01
    25  2.4000000000000E-01  1.3506190981365E+00  3.0191205785241E-01
    26  2.5000000000000E-01  1.3985529194217E+00  3.3225730397785E-01
    27  2.6000000000000E-01  1.4414188869507E+00  3.6411143038833E-01
    28  2.7000000000000E-01  1.4790715157758E+00  3.9741708876734E-01
    29  2.8000000000000E-01  1.5114198148266E+00  4.3210567292286E-01
    30  2.9000000000000E-01  1.5384211509120E+00  4.6809785076139E-01
    31  3.0000000000000E-01  1.5600743503919E+00  5.0530421882358E-01
    32  3.1000000000000E-01  1.5764122728421E+00  5.4362606016908E-01
    33  3.2000000000000E-01  1.5874941023028E+00  5.8295618492340E-01
    34  3.3000000000000E-01  1.5933976063409E+00  6.2317983190475E-01
    35  3.4000000000000E-01  1.5942116110460E+00  6.6417560944935E-01
    36  3.5000000000000E-01  1.5900289312501E+00  7.0581645384828E-01
    37  3.6000000000000E-01  1.5809399799169E+00  7.4797058468218E-01
    38  3.7000000000000E-01  1.5670272591786E+00  7.9050243775938E-01
    39  3.8000000000000E-01  1.5483609084242E+00  8.3327355828394E-01
    40  3.9000000000000E-01  1.5249954528700E+00  8.7614343924210E-01
    41  4.0000000000000E-01  1.4969678599626E+00  9.1897029272877E-01
    42  4.1000000000000E-01  1.4642969717253E+00  9.6161174495923E-01
    43  4.2000000000000E-01  1.4269843397608E+00  1.0039254489358E+00
    44  4.3000000000000E-01  1.3850164471546E+00  1.0457696120715E+00
    45  4.4000000000000E-01  1.3383682590940E+00  1.0870034394165E+00
    46  4.5000000000000E-01  1.2870080027637E+00  1.1274874963850E+00
    47  4.6000000000000E-01  1.2309030380901E+00  1.1670839979581E+00
    48  4.7000000000000E-01  1.1700266452594E+00  1.2056570341288E+00
    49  4.8000000000000E-01  1.1043655235946E+00  1.2430727438025E+00
    50  4.9000000000000E-01  1.0339277702431E+00  1.2791994513688E+00
    51  5.0000000000000E-01  9.5875108694318E-01  1.3139077816745E+00
    52  5.1000000000000E-01  8.7891094952845E-01  1.3470707700945E+00
    53  5.2000000000000E-01  7.9452846824029E-01  1.3785639847821E+00
    54  5.3000000000000E-01  7.0577766763090E-01  1.4082656779681E+00
    55  5.4000000000000E-01  6.1289192294091E-01  1.4360569823615E+00
    56  5.5000000000000E-01  5.1616930523562E-01  1.4618221672991E+00
    57  5.6000000000000E-01  4.1597660999445E-01  1.4854489673350E+00
    58  5.7000000000000E-01  3.1275187280431E-01  1.5068289934822E+00
    59  5.8000000000000E-01  2.0700521066585E-01  1.5258582344060E+00
    60  5.9000000000000E-01  9.9317867381387E-02  1.5424376515720E+00
    61  6.0000000000000E-01 -9.6606143872182E-03  1.5564738687776E+00
    62  6.1000000000000E-01 -1.1921712458951E-01  1.5678799527317E+00
    63  6.2000000000000E-01 -2.2858160183112E-01  1.5765762774989E+00
    64  6.3000000000000E-01 -3.3693546517121E-01  1.5824914618099E+00
    65  6.4000000000000E-01 -4.4342174353151E-01  1.5855633645554E+00
    66  6.5000000000000E-01 -5.4715673706855E-01  1.5857401203499E+00
    67  6.6000000000000E-01 -6.4724300040803E-01  1.5829811939784E+00
    68  6.7000000000000E-01 -7.4278339742359E-01  1.5772584299126E+00
    69  6.8000000000000E-01 -8.3289594235771E-01  1.5685570710120E+00
    70  6.9000000000000E-01 -9.1672911350907E-01  1.5568767190682E+00
    71  7.0000000000000E-01 -9.9347730428376E-01  1.5422322090856E+00
    72  7.1000000000000E-01 -1.0623960627993E+00  1.5246543691558E+00
    73  7.2000000000000E-01 -1.1228167659271E+00  1.5041906385161E+00
    74  7.3000000000000E-01 -1.1741603769484E+00  1.4809055178773E+00
    75  7.4000000000000E-01 -1.2159499479585E+00  1.4548808283771E+00
    76  7.5000000000000E-01 -1.2478215486563E+00  1.4262157585066E+00
    77  7.6000000000000E-01 -1.2695333318390E+00  1.3950266820400E+00
    78  7.7000000000000E-01 -1.2809724822481E+00  1.3614467342915E+00
    79  7.8000000000000E-01 -1.2821598386139E+00  1.3256251388454E+00
    80  7.9000000000000E-01 -1.2732520278984E+00  1.2877262821545E+00
    81  8.0000000000000E-01 -1.2545410047431E+00  1.2479285389630E+00
    82  8.1000000000000E-01 -1.2264509467617E+00  1.2064228572490E+00
    83  8.2000000000000E-01 -1.1895325162400E+00  1.1634111171790E+00
    84  8.3000000000000E-01 -1.1444545596065E+00  1.1191042842607E+00
    85  8.4000000000000E-01 -1.0919933762613E+00  1.0737203823515E+00
    86  8.5000000000000E-01 -1.0330197465362E+00  1.0274823172710E+00
    87  8.6000000000000E-01 -9.6848396327741E-01  9.8061558634941E-01
    88  8.7000000000000E-01 -8.9939916141557E-01  9.3334591319679E-01
    89  8.8000000000000E-01 -8.2682328365556E-01  8.8589685017567E-01
    90  8.9000000000000E-01 -7.5184005693174E-01  8.3848739341506E-01
    91  9.0000000000000E-01 -6.7553938255541E-01  7.9132965662492E-01
    92  9.1000000000000E-01 -5.9899756223467E-01  7.4462665040174E-01
    93  9.2000000000000E-01 -5.2325779178003E-01  6.9857021311467E-01
    94  9.3000000000000E-01 -4.4931135395929E-01  6.5333913781247E-01
    95  9.4000000000000E-01 -3.7807993150133E-01  6.0909753690137E-01
    96  9.5000000000000E-01 -3.1039944077511E-01  5.6599348264452E-01
    97  9.6000000000000E-01 -2.4700575654514E-01  5.2415795688188E-01
    98  9.7000000000000E-01 -1.8852265900098E-01  4.8370413784324E-01
    99  9.8000000000000E-01 -1.3545228679991E-01  4.4472704562903E-01
   100  9.9000000000000E-01 -8.8168325147659E-02  4.0730356098444E-01
   101  1.0000000000000E+00 -4.6912097165737E-02  3.7149282452781E-01
   102  1.0100000000000E+00 -1.1791661313570E-02  3.3733701577032E-01
   103  1.0200000000000E+00  1.7216051029304E-02  3.0486250324728E-01
   104  1.0300000000000E+00  4.0260094113971E-02  2.7408134902983E-01
   105  1.0400000000000E+00  5.7607469177452E-02  2.4499314299071E-01
   106  1.0500000000000E+00  6.9632364008777E-02  2.1758713462928E-01
   107  1.0600000000000E+00  7.6802911777206E-02  1.9184462317300E-01
   108  1.0700000000000E+00  7.9665770901424E-02  1.6774156025547E-01
   109  1.0800000000000E+00  7.8828882317394E-02  1.4525131385057E-01
   110  1.0900000000000E+00  7.4942807567349E-02  1.2434753745825E-01
   111  1.1000000000000E+00  6.8681089390998E-02  1.0500708491727E-01
   112  1.1100000000000E+00  6.0720105264369E-02  8.7212908733019E-02
   113  1.1200000000000E+00  5.1718902575627E-02  7.0956878547708E-02
   114  1.1300000000000E+00  4.2299470445877E-02  5.6242468478487E-02
   115  1.1400000000000E+00  3.3028270780474E-02  4.3087148843635E-02
   116  1.1500000000000E+00  2.4378104061366E-02  3.1530556018930E-02
   117  1.1600000000000E+00  1.6630142436509E-02  2.1658716847032E-02
   118  1.1700000000000E+00  1.0143871816730E-02  1.3525480945995E-02
   119  1.1800000000000E+00  5.1885081355136E-03  7.2011512562770E-03
   120  1.1900000000000E+00  1.8972116218700E-03  2.7847440729545E-03
   121  1.2000000000000E+00  2.6581677714855E-04  4.1001337049275E-04
   122  1.2100000000000E+00 -9.7497550052592E-06 -2.2707826114536E-05
   123  1.2200000000000E+00  6.5725520528665E-07  1.2833435855439E-06
   124  1.23  0.  0.
   125  1.24  0.  0.
   126  1.25  0.  0.
   127  1.26  0.  0.
   128  1.27  0.  0.
   129  1.28  0.  0.
   130  1.29  0.  0.
   131  1.30  0.  0.
   132  1.31  0.  0.
   133  1.32  0.  0.
   134  1.33  0.  0.
   135  1.34  0.  0.
   136  1.35  0.  0.
   137  1.36  0.  0.
   138  1.37  0.  0.
   139  1.38  0.  0.
   140  1.39  0.  0.
   141  1.40  0.  0.
   142  1.41  0.  0.
   143  1.42  0.  0.
   144  1.43  0.  0.
   145  1.44  0.  0.
   146  1.45  0.  0.
   147  1.46  0.  0.
   148  1.47  0.  0.
   149  1.48  0.  0.
   150  1.49  0.  0.
   151  1.50  0.  0.
   152  1.51  0.  0.
   153  1.52  0.  0.
   154  1.53  0.  0.
   155  1.54  0.  0.
   156  1.55  0.  0.
   157  1.56  0.  0.
   158  1.57  0.  0.
   159  1.58  0.  0.
   160  1.59  0.  0.
   161  1.60  0.  0.
   162  1.61  0.  0.
   163  1.62  0.  0.
   164  1.63  0.  0.
   165  1.64  0.  0.
   166  1.65  0.  0.
   167  1.66  0.  0.
   168  1.67  0.  0.
   169  1.68  0.  0.
   170  1.69  0.  0.
   171  1.70  0.  0.
   172  1.71  0.  0.
   173  1.72  0.  0.
   174  1.73  0.  0.
   175  1.74  0.  0.
   176  1.75  0.  0.
   177  1.76  0.  0.
   178  1.77  0.  0.
   179  1.78  0.  0.
   180  1.79  0.  0.
   181  1.80  0.  0.
   182  1.81  0.  0.
   183  1.82  0.  0.
   184  1.83  0.  0.