Mn    ONCVPSP-4.0.1  r_core=   1.40044   1.20591   1.60701
     25.0000     15.0000      231019    zatom,zion,pspd
     8       2   2     4   600     0    pspcod,pspxc,lmax,lloc,mmax,r2well
  5.99000000  4.00000000  0.00000000    rchrg fchrg qchrg
     2     2     2     0     0    nproj
     1     1           extension_switch
   0                         8.6586244031465E+00  1.3869697468739E+00
     1  0.0000000000000E+00 -1.4293423111766E-09  3.1023479896142E-09
     2  1.0000000000000E-02  8.9573347191073E-02 -2.3229369401150E-02
     3  2.0000000000000E-02  1.7883985226657E-01 -4.6146638217708E-02
     4  3.0000000000000E-02  2.6749472423906E-01 -6.8443269069381E-02
     5  4.0000000000000E-02  3.5523724953747E-01 -8.9817799114302E-02
     6  5.0000000000000E-02  4.4177276898666E-01 -1.0997924844884E-01
     7  6.0000000000000E-02  5.2681458174658E-01 -1.2865037610872E-01
     8  7.0000000000000E-02  6.1008575357074E-01 -1.4557073657628E-01
     9  8.0000000000000E-02  6.9132080817291E-01 -1.6049949280101E-01
    10  9.0000000000000E-02  7.7026728223686E-01 -1.7321794552899E-01
    11  1.0000000000000E-01  8.4668712663900E-01 -1.8353174315339E-01
    12  1.1000000000000E-01  9.2035793874866E-01 -1.9127274127471E-01
    13  1.2000000000000E-01  9.9107401318818E-01 -1.9630048662132E-01
    14  1.3000000000000E-01  1.0586472011394E+00 -1.9850330584180E-01
    15  1.4000000000000E-01  1.1229075711306E+00 -1.9779898585261E-01
    16  1.5000000000000E-01  1.1837038671868E+00 -1.9413503881131E-01
    17  1.6000000000000E-01  1.2409037632291E+00 -1.8748855128769E-01
    18  1.7000000000000E-01  1.2943939156232E+00 -1.7786562372298E-01
    19  1.8000000000000E-01  1.3440798187502E+00 -1.6530041269746E-01
    20  1.9000000000000E-01  1.3898854713662E+00 -1.4985379476973E-01
    21  2.0000000000000E-01  1.4317528642767E+00 -1.3161167660694E-01
    22  2.1000000000000E-01  1.4696413024451E+00 -1.1068298170127E-01
    23  2.2000000000000E-01  1.5035265770285E+00 -8.7197349072455E-02
    24  2.3000000000000E-01  1.5334000049610E+00 -6.1302583909105E-02
    25  2.4000000000000E-01  1.5592673555458E+00 -3.3161904026351E-02
    26  2.5000000000000E-01  1.5811476850404E+00 -2.9510292495907E-03
    27  2.6000000000000E-01  1.5990721014078E+00  2.9144836681042E-02
    28  2.7000000000000E-01  1.6130824822278E+00  6.2934080398430E-02
    29  2.8000000000000E-01  1.6232301692132E+00  9.8221757231445E-02
    30  2.9000000000000E-01  1.6295746628422E+00  1.3481262138011E-01
    31  3.0000000000000E-01  1.6321823402948E+00  1.7251405658215E-01
    32  3.1000000000000E-01  1.6311252191755E+00  2.1113885757554E-01
    33  3.2000000000000E-01  1.6264797884278E+00  2.5050781514832E-01
    34  3.3000000000000E-01  1.6183259264002E+00  2.9045206084396E-01
    35  3.4000000000000E-01  1.6067459242509E+00  3.3081513140927E-01
    36  3.5000000000000E-01  1.5918236307839E+00  3.7145471777723E-01
    37  3.6000000000000E-01  1.5736437324384E+00  4.1224406869726E-01
    38  3.7000000000000E-01  1.5522911795394E+00  4.5307302498219E-01
    39  3.8000000000000E-01  1.5278507670968E+00  4.9384866664478E-01
    40  3.9000000000000E-01  1.5004068754630E+00  5.3449556184965E-01
    41  4.0000000000000E-01  1.4700433730695E+00  5.7495561350583E-01
    42  4.1000000000000E-01  1.4368436803110E+00  6.1518750636064E-01
    43  4.2000000000000E-01  1.4008909904828E+00  6.5516576451703E-01
    44  4.3000000000000E-01  1.3622686405581E+00  6.9487943626550E-01
    45  4.4000000000000E-01  1.3210606215622E+00  7.3433042989016E-01
    46  4.5000000000000E-01  1.2773522154201E+00  7.7353153055714E-01
    47  4.6000000000000E-01  1.2312307424656E+00  8.1250413441845E-01
    48  4.7000000000000E-01  1.1827864013528E+00  8.5127574156044E-01
    49  4.8000000000000E-01  1.1321131809517E+00  8.8987725429464E-01
    50  4.9000000000000E-01  1.0793098219732E+00  9.2834013144592E-01
    51  5.0000000000000E-01  1.0244808045962E+00  9.6669345265683E-01
    52  5.1000000000000E-01  9.6773733728359E-01  1.0049609492341E+00
    53  5.2000000000000E-01  9.0919832130855E-01  1.0431580596588E+00
    54  5.3000000000000E-01  8.4899126527578E-01  1.0812890685268E+00
    55  5.4000000000000E-01  7.8725312413043E-01  1.1193443873536E+00
    56  5.5000000000000E-01  7.2413103780537E-01  1.1572980343623E+00
    57  5.6000000000000E-01  6.5978294575864E-01  1.1951053680732E+00
    58  5.7000000000000E-01  5.9437805518966E-01  1.2327011262613E+00
    59  5.8000000000000E-01  5.2809714267678E-01  1.2699978176669E+00
    60  5.9000000000000E-01  4.6113267132555E-01  1.3068845088032E+00
    61  6.0000000000000E-01  3.9368870822532E-01  1.3432260423537E+00
    62  6.1000000000000E-01  3.2598063004426E-01  1.3788627170910E+00
    63  6.2000000000000E-01  2.5823460790535E-01  1.4136104520517E+00
    64  6.3000000000000E-01  1.9068686623082E-01  1.4472614499951E+00
    65  6.4000000000000E-01  1.2358271396465E-01  1.4795853670548E+00
    66  6.5000000000000E-01  5.7175350427556E-02  1.5103309870994E+00
    67  6.6000000000000E-01 -8.2755480366370E-03  1.5392283907734E+00
    68  6.7000000000000E-01 -7.2505450559727E-02  1.5659916006315E+00
    69  6.8000000000000E-01 -1.3524678948953E-01  1.5903216753451E+00
    70  6.9000000000000E-01 -1.9623095575606E-01  1.6119102177898E+00
    71  7.0000000000000E-01 -2.5519045072483E-01  1.6304432540427E+00
    72  7.1000000000000E-01 -3.1186117012582E-01  1.6456054330806E+00
    73  7.2000000000000E-01 -3.6598479268224E-01  1.6570844903727E+00
    74  7.3000000000000E-01 -4.1731124345884E-01  1.6645759127498E+00
    75  7.4000000000000E-01 -4.6560119975610E-01  1.6677877369878E+00
    76  7.5000000000000E-01 -5.1062860563544E-01  1.6664454105825E+00
    77  7.6000000000000E-01 -5.5218315990851E-01  1.6602966402751E+00
    78  7.7000000000000E-01 -5.9007274169119E-01  1.6491161520980E+00
    79  7.8000000000000E-01 -6.2412573742940E-01  1.6327102860798E+00
    80  7.9000000000000E-01 -6.5419323366498E-01  1.6109213493179E+00
    81  8.0000000000000E-01 -6.8015104072873E-01  1.5836316529025E+00
    82  8.1000000000000E-01 -7.0190151402107E-01  1.5507671611532E+00
    83  8.2000000000000E-01 -7.1937514155548E-01  1.5123006857778E+00
    84  8.3000000000000E-01 -7.3253186897451E-01  1.4682545628431E+00
    85  8.4000000000000E-01 -7.4136213627201E-01  1.4187027567847E+00
    86  8.5000000000000E-01 -7.4588760393029E-01  1.3637723430082E+00
    87  8.6000000000000E-01 -7.4616155006090E-01  1.3036443288339E+00
    88  8.7000000000000E-01 -7.4226892436904E-01  1.2385537815112E+00
    89  8.8000000000000E-01 -7.3432604928494E-01  1.1687892416337E+00
    90  8.9000000000000E-01 -7.2247996335561E-01  1.0946914103965E+00
    91  9.0000000000000E-01 -7.0690740689759E-01  1.0166511095894E+00
    92  9.1000000000000E-01 -6.8781345490196E-01  9.3510652386618E-01
    93  9.2000000000000E-01 -6.6542980718303E-01  8.5053974550073E-01
    94  9.3000000000000E-01 -6.4001275069246E-01  7.6347265237330E-01
    95  9.4000000000000E-01 -6.1184081370726E-01  6.7446216015841E-01
    96  9.5000000000000E-01 -5.8121213616585E-01  5.8409489944596E-01
    97  9.6000000000000E-01 -5.4844158469894E-01  4.9298137766167E-01
    98  9.7000000000000E-01 -5.1385764481168E-01  4.0174969401206E-01
    99  9.8000000000000E-01 -4.7779912615667E-01  3.1103888312348E-01
   100  9.9000000000000E-01 -4.4061171983429E-01  2.2149196944650E-01
   101  1.0000000000000E+00 -4.0264444911735E-01  1.3374881974709E-01
   102  1.0100000000000E+00 -3.6424605687517E-01  4.8438885004789E-02
   103  1.0200000000000E+00 -3.2576137423469E-01 -3.3826074286832E-02
   104  1.0300000000000E+00 -2.8752771563651E-01 -1.1245918412717E-01
   105  1.0400000000000E+00 -2.4987134540357E-01 -1.8690547915885E-01
   106  1.0500000000000E+00 -2.1310406023786E-01 -2.5664865734734E-01
   107  1.0600000000000E+00 -1.7751993069414E-01 -3.2121747655421E-01
   108  1.0700000000000E+00 -1.4339224266860E-01 -3.8019170673337E-01
   109  1.0800000000000E+00 -1.1097067730972E-01 -4.3320755717668E-01
   110  1.0900000000000E+00 -8.0478764532166E-02 -4.7996250521280E-01
   111  1.1000000000000E+00 -5.2111641561004E-02 -5.2021946087304E-01
   112  1.1100000000000E+00 -2.6034143666501E-02 -5.5381021124951E-01
   113  1.1200000000000E+00 -2.3792495799519E-03 -5.8063809834621E-01
   114  1.1300000000000E+00  1.8753100978245E-02 -6.0067989513196E-01
   115  1.1400000000000E+00  3.7296805547185E-02 -6.1398685596819E-01
   116  1.1500000000000E+00  5.3220006395414E-02 -6.2068492954968E-01
   117  1.1600000000000E+00  6.6525106309700E-02 -6.2097413466197E-01
   118  1.1700000000000E+00  7.7248397528194E-02 -6.1512711137822E-01
   119  1.1800000000000E+00  8.5459314284288E-02 -6.0348687243975E-01
   120  1.1900000000000E+00  9.1259325133042E-02 -5.8646379189773E-01
   121  1.2000000000000E+00  9.4780482532954E-02 -5.6453186853310E-01
   122  1.2100000000000E+00  9.6183675275334E-02 -5.3822437556332E-01
   123  1.2200000000000E+00  9.5655261373024E-02 -5.0812528638198E-01
   124  1.2300000000000E+00  9.3399920633114E-02 -4.7485079949115E-01
   125  1.2400000000000E+00  8.9635557784145E-02 -4.3903699287732E-01
   126  1.2500000000000E+00  8.4589939730825E-02 -4.0133241046356E-01
   127  1.2600000000000E+00  7.8497219227947E-02 -3.6239041887430E-01
   128  1.2700000000000E+00  7.1594399608156E-02 -3.2286145729819E-01
   129  1.2800000000000E+00  6.4117780974025E-02 -2.8338526325926E-01
   130  1.2900000000000E+00  5.6299436252873E-02 -2.4458317895566E-01
   131  1.3000000000000E+00  4.8363765006018E-02 -2.0705064158649E-01
   132  1.3100000000000E+00  4.0524174997656E-02 -1.7134996473668E-01
   133  1.3200000000000E+00  3.2979955824779E-02 -1.3800357346808E-01
   134  1.3300000000000E+00  2.5912022306650E-02 -1.0748434657637E-01
   135  1.3400000000000E+00  1.9482140994272E-02 -8.0220700870117E-02
   136  1.3500000000000E+00  1.3750990092756E-02 -5.6381192229168E-02
   137  1.3600000000000E+00  8.9171907532119E-03 -3.6473956895076E-02
   138  1.3700000000000E+00  5.0742161750393E-03 -2.0742618350083E-02
   139  1.3800000000000E+00  2.2880327963153E-03 -9.3649626178034E-03
   140  1.3900000000000E+00  5.8935334971763E-04 -2.4198224897652E-03
   141  1.4000000000000E+00  6.1881209305217E-06 -2.5506017071572E-05
   142  1.4100000000000E+00  2.8924576646161E-06 -1.1915666163087E-05
   143  1.4200000000000E+00 -8.8872700710489E-07  3.6536920041587E-06
   144  1.43 -0.  0.
   145  1.44  0.  0.
   146  1.45  0.  0.
   147  1.46  0.  0.
   148  1.47  0.  0.
   149  1.48  0.  0.
   150  1.49  0.  0.
   151  1.50  0.  0.
   152  1.51  0.  0.
   153  1.52  0.  0.
   154  1.53  0.  0.
   155  1.54  0.  0.
   156  1.55  0.  0.
   157  1.56  0.  0.
   158  1.57  0.  0.
   159  1.58  0.  0.
   160  1.59  0.  0.
   161  1.60  0.  0.
   162  1.61  0.  0.
   163  1.62  0.  0.
   164  1.63  0.  0.
   165  1.64  0.  0.
   166  1.65  0.  0.
   167  1.66  0.  0.
   168  1.67  0.  0.
   169  1.68  0.  0.
   170  1.69  0.  0.
   171  1.70  0.  0.
   172  1.71  0.  0.
   173  1.72  0.  0.
   174  1.73  0.  0.
   175  1.74  0.  0.
   176  1.75  0.  0.
   177  1.76  0.  0.
   178  1.77  0.  0.
   179  1.78  0.  0.
   180  1.79  0.  0.
   181  1.80  0.  0.
   182  1.81  0.  0.
   183  1.82  0.  0.
   184  1.83  0.  0.
   185  1.84  0.  0.
   186  1.85  0.  0.
   187  1.86  0.  0.
   188  1.87  0.  0.
   189  1.88  0.  0.
   190  1.89  0.  0.
   191  1.90  0.  0.
   192  1.91  0.  0.
   193  1.92  0.  0.
   194  1.93  0.  0.
   195  1.94  0.  0.
   196  1.95  0.  0.
   197  1.96  0.  0.
   198  1.97  0.  0.
   199  1.98  0.  0.
   200  1.99  0.  0.
   201  2.00  0.  0.
   202  2.01  0.  0.
   203  2.02  0.  0.
   204  2.03  0.  0.
   205  2.04  0.  0.
   206  2.05  0.  0.
   207  2.06  0.  0.
   208  2.07  0.  0.
   209  2.08  0.  0.
   210  2.09  0.  0.
   211  2.10  0.  0.
   212  2.11  0.  0.
   213  2.12  0.  0.
   214  2.13  0.  0.
   215  2.14  0.  0.
   216  2.15  0.  0.
   217  2.16  0.  0.
   218  2.17  0.  0.
   219  2.18  0.  0.
   220  2.19  0.  0.
   221  2.20  0.  0.
   222  2.21  0.  0.
   223  2.22  0.  0.
   224  2.23  0.  0.
   225  2.24  0.  0.
   226  2.25  0.  0.
   227  2.26  0.  0.
   228  2.27  0.  0.
   229  2.28  0.  0.
   230  2.29  0.  0.
   231  2.30  0.  0.
   232  2.31  0.  0.
   233  2.32  0.  0.
   234  2.33  0.  0.
   235  2.34  0.  0.
   236  2.35  0.  0.
   237  2.36  0.  0.
   238  2.37  0.  0.
   239  2.38  0.  0.
   240  2.39  0.  0.
   241  2.40  0.  0.
   242  2.41  0.  0.
   243  2.42  0.  0.
   244  2.43  0.  0.
   245  2.44  0.  0.
   246  2.45  0.  0.
   247  2.46  0.  0.
   248  2.47  0.  0.
   249  2.48  0.  0.
   250  2.49  0.  0.
   251  2.50  0.  0.
   252  2.51  0.  0.
   253  2.52  0.  0.
   254  2.53  0.  0.
   255  2.54  0.  0.
   256  2.55  0.  0.
   257  2.56  0.  0.
   258  2.57  0.  0.
   259  2.58  0.  0.
   260  2.59  0.  0.
   261  2.60  0.  0.
   262  2.61  0.  0.
   263  2.62  0.  0.
   264  2.63  0.  0.
   265  2.64  0.  0.
   266  2.65  0.  0.
   267  2.66  0.  0.
   268  2.67  0.  0.
   269  2.68  0.  0.
   270  2.69  0.  0.
   271  2.70  0.  0.
   272  2.71  0.  0.
   273  2.72  0.  0.
   274  2.73  0.  0.
   275  2.74  0.  0.
   276  2.75  0.  0.
   277  2.76  0.  0.
   278  2.77  0.  0.
   279  2.78  0.  0.
   280  2.79  0.  0.
   281  2.80  0.  0.
   282  2.81  0.  0.
   283  2.82  0.  0.
   284  2.83  0.  0.
   285  2.84  0.  0.
   286  2.85  0.  0.
   287  2.86  0.  0.
   288  2.87  0.  0.
   289  2.88  0.  0.
   290  2.89  0.  0.
   291  2.90  0.  0.
   292  2.91  0.  0.
   293  2.92  0.  0.
   294  2.93  0.  0.
   295  2.94  0.  0.
   296  2.95  0.  0.
   297  2.96  0.  0.
   298  2.97  0.  0.
   299  2.98  0.  0.
   300  2.99  0.  0.
   301  3.00  0.  0.
   302  3.01  0.  0.
   303  3.02  0.  0.
   304  3.03  0.  0.
   305  3.04  0.  0.
   306  3.05  0.  0.
   307  3.06  0.  0.
   308  3.07  0.  0.
   309  3.08  0.  0.
   310  3.09  0.  0.
   311  3.10  0.  0.
   312  3.11  0.  0.
   313  3.12  0.  0.
   314  3.13  0.  0.
   315  3.14  0.  0.
   316  3.15  0.  0.
   317  3.16  0.  0.
   318  3.17  0.  0.
   319  3.18  0.  0.
   320  3.19  0.  0.
   321  3.20  0.  0.
   322  3.21  0.  0.
   323  3.22  0.  0.
   324  3.23  0.  0.
   325  3.24  0.  0.
   326  3.25  0.  0.
   327  3.26  0.  0.
   328  3.27  0.  0.
   329  3.28  0.  0.
   330  3.29  0.  0.
   331  3.30  0.  0.
   332  3.31  0.  0.
   333  3.32  0.  0.
   334  3.33  0.  0.
   335  3.34  0.  0.
   336  3.35  0.  0.
   337  3.36  0.  0.
   338  3.37  0.  0.
   339  3.38  0.  0.
   340  3.39  0.  0.
   341  3.40  0.  0.
   342  3.41  0.  0.
   343  3.42  0.  0.
   344  3.43  0.  0.
   345  3.44  0.  0.
   346  3.45  0.  0.
   347  3.46  0.  0.
   348  3.47  0.  0.
   349  3.48  0.  0.
   350  3.49  0.  0.
   351  3.50  0.  0.
   352  3.51  0.  0.
   353  3.52  0.  0.
   354  3.53  0.  0.
   355  3.54  0.  0.
   356  3.55  0.  0.
   357  3.56  0.  0.
   358  3.57  0.  0.
   359  3.58  0.  0.
   360  3.59  0.  0.
   361  3.60  0.  0.
   362  3.61  0.  0.
   363  3.62  0.  0.
   364  3.63  0.  0.
   365  3.64  0.  0.
   366  3.65  0.  0.
   367  3.66  0.  0.
   368  3.67  0.  0.
   369  3.68  0.  0.
   370  3.69  0.  0.
   371  3.70  0.  0.
   372  3.71  0.  0.
   373  3.72  0.  0.
   374  3.73  0.  0.
   375  3.74  0.  0.
   376  3.75  0.  0.
   377  3.76  0.  0.
   378  3.77  0.  0.
   379  3.78  0.  0.
   380  3.79  0.  0.
   381  3.80  0.  0.
   382  3.81  0.  0.
   383  3.82  0.  0.
   384  3.83  0.  0.
   385  3.84  0.  0.
   386  3.85  0.  0.
   387  3.86  0.  0.
   388  3.87  0.  0.
   389  3.88  0.  0.
   390  3.89  0.  0.
   391  3.90  0.  0.
   392  3.91  0.  0.
   393  3.92  0.  0.
   394  3.93  0.  0.
   395  3.94  0.  0.
   396  3.95  0.  0.
   397  3.96  0.  0.
   398  3.97  0.  0.
   399  3.98  0.  0.
   400  3.99  0.  0.
   401  4.00  0.  0.
   402  4.01  0.  0.
   403  4.02  0.  0.
   404  4.03  0.  0.
   405  4.04  0.  0.
   406  4.05  0.  0.
   407  4.06  0.  0.
   408  4.07  0.  0.
   409  4.08  0.  0.
   410  4.09  0.  0.
   411  4.10  0.  0.
   412  4.11  0.  0.
   413  4.12  0.  0.
   414  4.13  0.  0.
   415  4.14  0.  0.
   416  4.15  0.  0.
   417  4.16  0.  0.
   418  4.17  0.  0.
   419  4.18  0.  0.
   420  4.19  0.  0.
   421  4.20  0.  0.
   422  4.21  0.  0.
   423  4.22  0.  0.
   424  4.23  0.  0.
   425  4.24  0.  0.
   426  4.25  0.  0.
   427  4.26  0.  0.
   428  4.27  0.  0.
   429  4.28  0.  0.
   430  4.29  0.  0.
   431  4.30  0.  0.
   432  4.31  0.  0.
   433  4.32  0.  0.
   434  4.33  0.  0.
   435  4.34  0.  0.
   436  4.35  0.  0.
   437  4.36  0.  0.
   438  4.37  0.  0.
   439  4.38  0.  0.
   440  4.39  0.  0.
   441  4.40  0.  0.
   442  4.41  0.  0.
   443  4.42  0.  0.
   444  4.43  0.  0.
   445  4.44  0.  0.
   446  4.45  0.  0.
   447  4.46  0.  0.
   448  4.47  0.  0.
   449  4.48  0.  0.
   450  4.49  0.  0.
   451  4.50  0.  0.
   452  4.51  0.  0.
   453  4.52  0.  0.
   454  4.53  0.  0.
   455  4.54  0.  0.
   456  4.55  0.  0.
   457  4.56  0.  0.
   458  4.57  0.  0.
   459  4.58  0.  0.
   460  4.59  0.  0.
   461  4.60  0.  0.
   462  4.61  0.  0.
   463  4.62  0.  0.
   464  4.63  0.  0.
   465  4.64  0.  0.
   466  4.65  0.  0.
   467  4.66  0.  0.
   468  4.67  0.  0.
   469  4.68  0.  0.
   470  4.69  0.  0.
   471  4.70  0.  0.
   472  4.71  0.  0.
   473  4.72  0.  0.
   474  4.73  0.  0.
   475  4.74  0.  0.
   476  4.75  0.  0.
   477  4.76  0.  0.
   478  4.77  0.  0.
   479  4.78  0.  0.
   480  4.79  0.  0.
   481  4.80  0.  0.
   482  4.81  0.  0.
   483  4.82  0.  0.
   484  4.83  0.  0.
   485  4.84  0.  0.
   486  4.85  0.  0.
   487  4.86  0.  0.
   488  4.87  0.  0.
   489  4.88  0.  0.
   490  4.89  0.  0.
   491  4.90  0.  0.
   492  4.91  0.  0.
   493  4.92  0.  0.
   494  4.93  0.  0.
   495  4.94  0.  0.
   496  4.95  0.  0.
   497  4.96  0.  0.
   498  4.97  0.  0.
   499  4.98  0.  0.
   500  4.99  0.  0.
   501  5.00  0.  0.
   502  5.01  0.  0.
   503  5.02  0.  0.
   504  5.03  0.  0.
   505  5.04  0.  0.
   506  5.05  0.  0.
   507  5.06  0.  0.
   508  5.07  0.  0.
   509  5.08  0.  0.
   510  5.09  0.  0.
   511  5.10  0.  0.
   512  5.11  0.  0.
   513  5.12  0.  0.
   514  5.13  0.  0.
   515  5.14  0.  0.
   516  5.15  0.  0.
   517  5.16  0.  0.
   518  5.17  0.  0.
   519  5.18  0.  0.
   520  5.19  0.  0.
   521  5.20  0.  0.
   522  5.21  0.  0.
   523  5.22  0.  0.
   524  5.23  0.  0.
   525  5.24  0.  0.
   526  5.25  0.  0.
   527  5.26  0.  0.
   528  5.27  0.  0.
   529  5.28  0.  0.
   530  5.29  0.  0.
   531  5.30  0.  0.
   532  5.31  0.  0.
   533  5.32  0.  0.
   534  5.33  0.  0.
   535  5.34  0.  0.
   536  5.35  0.  0.
   537  5.36  0.  0.
   538  5.37  0.  0.
   539  5.38  0.  0.
   540  5.39  0.  0.
   541  5.40  0.  0.
   542  5.41  0.  0.
   543  5.42  0.  0.
   544  5.43  0.  0.
   545  5.44  0.  0.
   546  5.45  0.  0.
   547  5.46  0.  0.
   548  5.47  0.  0.
   549  5.48  0.  0.
   550  5.49  0.  0.
   551  5.50  0.  0.
   552  5.51  0.  0.
   553  5.52  0.  0.
   554  5.53  0.  0.
   555  5.54  0.  0.
   556  5.55  0.  0.
   557  5.56  0.  0.
   558  5.57  0.  0.
   559  5.58  0.  0.
   560  5.59  0.  0.
   561  5.60  0.  0.
   562  5.61  0.  0.
   563  5.62  0.  0.
   564  5.63  0.  0.
   565  5.64  0.  0.
   566  5.65  0.  0.
   567  5.66  0.  0.
   568  5.67  0.  0.
   569  5.68  0.  0.
   570  5.69  0.  0.
   571  5.70  0.  0.
   572  5.71  0.  0.
   573  5.72  0.  0.
   574  5.73  0.  0.
   575  5.74  0.  0.
   576  5.75  0.  0.
   577  5.76  0.  0.
   578  5.77  0.  0.
   579  5.78  0.  0.
   580  5.79  0.  0.
   581  5.80  0.  0.
   582  5.81  0.  0.
   583  5.82  0.  0.
   584  5.83  0.  0.
   585  5.84  0.  0.
   586  5.85  0.  0.
   587  5.86  0.  0.
   588  5.87  0.  0.
   589  5.88  0.  0.
   590  5.89  0.  0.
   591  5.90  0.  0.
   592  5.91  0.  0.
   593  5.92  0.  0.
   594  5.93  0.  0.
   595  5.94  0.  0.
   596  5.95  0.  0.
   597  5.96  0.  0.
   598  5.97  0.  0.
   599  5.98  0.  0.
   600  5.99  0.  0.
   1                         1.3912527584014E+00 -7.4712116269168E-01
     1  0.0000000000000E+00  3.4840781204526E-08 -3.6461473146288E-09
     2  1.0000000000000E-02  4.1868973894979E-03  3.6824462908978E-04
     3  2.0000000000000E-02  1.6694661607368E-02  1.4779296117382E-03
     4  3.0000000000000E-02  3.7365456188069E-02  3.3438007550360E-03
     5  4.0000000000000E-02  6.5939356804401E-02  5.9900783583997E-03
     6  5.0000000000000E-02  1.0205898119640E-01  9.4499308564520E-03
     7  6.0000000000000E-02  1.4527582346691E-01  1.3764753160201E-02
     8  7.0000000000000E-02  1.9505814948554E-01  1.8983264517603E-02
     9  8.0000000000000E-02  2.5080027530188E-01  2.5160444360730E-02
    10  9.0000000000000E-02  3.1183301998526E-01  3.2356327830962E-02
    11  1.0000000000000E-01  3.7743509892964E-01  4.0634685403576E-02
    12  1.1000000000000E-01  4.4684520400229E-01  5.0061613208117E-02
    13  1.2000000000000E-01  5.1927450345274E-01  6.0704062213776E-02
    14  1.3000000000000E-01  5.9391928755502E-01  7.2628335387047E-02
    15  1.4000000000000E-01  6.6997348569272E-01  8.5898582214500E-02
    16  1.5000000000000E-01  7.4664078700795E-01  1.0057531961512E-01
    17  1.6000000000000E-01  8.2314610965171E-01  1.1671400725783E-01
    18  1.7000000000000E-01  8.9874618275935E-01  1.3436370368035E-01
    19  1.8000000000000E-01  9.7273903004675E-01  1.5356582741842E-01
    20  1.9000000000000E-01  1.0444721737495E+00  1.7435304465816E-01
    21  2.0000000000000E-01  1.1133494117540E+00  1.9674830178680E-01
    22  2.1000000000000E-01  1.1788360583291E+00  2.2076401771945E-01
    23  2.2000000000000E-01  1.2404625789156E+00  2.4640144710897E-01
    24  2.3000000000000E-01  1.2978265909425E+00  2.7365022159663E-01
    25  2.4000000000000E-01  1.3505932445717E+00  3.0248807223225E-01
    26  2.5000000000000E-01  1.3984940385552E+00  3.3288073218123E-01
    27  2.6000000000000E-01  1.4413241659684E+00  3.6478201494281E-01
    28  2.7000000000000E-01  1.4789385214576E+00  3.9813405962209E-01
    29  2.8000000000000E-01  1.5112465348544E+00  4.3286773141718E-01
    30  2.9000000000000E-01  1.5382060247199E+00  4.6890316248333E-01
    31  3.0000000000000E-01  1.5598162888421E+00  5.0615041578734E-01
    32  3.1000000000000E-01  1.5761106663054E+00  5.4451025252779E-01
    33  3.2000000000000E-01  1.5871488170311E+00  5.8387498221320E-01
    34  3.3000000000000E-01  1.5930089693304E+00  6.2412937359331E-01
    35  3.4000000000000E-01  1.5937803838973E+00  6.6515160434106E-01
    36  3.5000000000000E-01  1.5895562738261E+00  7.0681422768665E-01
    37  3.6000000000000E-01  1.5804274048769E+00  7.4898513509091E-01
    38  3.7000000000000E-01  1.5664765787111E+00  7.9152849548422E-01
    39  3.8000000000000E-01  1.5477741747194E+00  8.3430565354028E-01
    40  3.9000000000000E-01  1.5243748940427E+00  8.7717597184443E-01
    41  4.0000000000000E-01  1.4963158132695E+00  9.1999760457942E-01
    42  4.1000000000000E-01  1.4636158159994E+00  9.6262819340904E-01
    43  4.2000000000000E-01  1.4262764290174E+00  1.0049254794997E+00
    44  4.3000000000000E-01  1.3842840472997E+00  1.0467478289892E+00
    45  4.4000000000000E-01  1.3376134895936E+00  1.0879546725909E+00
    46  4.5000000000000E-01  1.2862327850069E+00  1.1284068633123E+00
    47  4.6000000000000E-01  1.2301090520067E+00  1.1679669593739E+00
    48  4.7000000000000E-01  1.1692152955352E+00  1.2064994422418E+00
    49  4.8000000000000E-01  1.1035379165749E+00  1.2438708821597E+00
    50  4.9000000000000E-01  1.0330847023249E+00  1.2799500655922E+00
    51  5.0000000000000E-01  9.5789304494481E-01  1.3146081005276E+00
    52  5.1000000000000E-01  8.7803812319501E-01  1.3477185165670E+00
    53  5.2000000000000E-01  7.9364077470466E-01  1.3791573771200E+00
    54  5.3000000000000E-01  7.0487478730942E-01  1.4088034208196E+00
    55  5.4000000000000E-01  6.1197334601274E-01  1.4365382484461E+00
    56  5.5000000000000E-01  5.1523438754150E-01  1.4622465702405E+00
    57  5.6000000000000E-01  4.1502463690241E-01  1.4858165265075E+00
    58  5.7000000000000E-01  3.1178212933622E-01  1.5071400919196E+00
    59  5.8000000000000E-01  2.0601705596561E-01  1.5261135709866E+00
    60  5.9000000000000E-01  9.8310811439289E-02  1.5426381888340E+00
    61  6.0000000000000E-01 -1.0686833953542E-02  1.5566207778237E+00
    62  6.1000000000000E-01 -1.2026246795523E-01  1.5679745567493E+00
    63  6.2000000000000E-01 -2.2964565684331E-01  1.5766199954544E+00
    64  6.3000000000000E-01 -3.3801738388538E-01  1.5824857538637E+00
    65  6.4000000000000E-01 -4.4452018748557E-01  1.5855096806970E+00
    66  6.5000000000000E-01 -5.4826983320036E-01  1.5856398536647E+00
    67  6.6000000000000E-01 -6.4836830929315E-01  1.5828356398312E+00
    68  6.7000000000000E-01 -7.4391789523425E-01  1.5770687521779E+00
    69  6.8000000000000E-01 -8.3403601762483E-01  1.5683242762896E+00
    70  6.9000000000000E-01 -9.1787057941503E-01  1.5566016396094E+00
    71  7.0000000000000E-01 -9.9461542683369E-01  1.5419154949199E+00
    72  7.1000000000000E-01 -1.0635256048201E+00  1.5242964896600E+00
    73  7.2000000000000E-01 -1.1239320464386E+00  1.5037918934056E+00
    74  7.3000000000000E-01 -1.1752553450456E+00  1.4804660573438E+00
    75  7.4000000000000E-01 -1.2170182699563E+00  1.4544006818361E+00
    76  7.5000000000000E-01 -1.2488567068754E+00  1.4256948711764E+00
    77  7.6000000000000E-01 -1.2705287330784E+00  1.3944649583446E+00
    78  7.7000000000000E-01 -1.2819215736919E+00  1.3608440868750E+00
    79  7.8000000000000E-01 -1.2830562286758E+00  1.3249815418102E+00
    80  7.9000000000000E-01 -1.2740896093154E+00  1.2870418269936E+00
    81  8.0000000000000E-01 -1.2553140771024E+00  1.2472034915499E+00
    82  8.1000000000000E-01 -1.2271543355823E+00  1.2056577141873E+00
    83  8.2000000000000E-01 -1.1901616857390E+00  1.1626066597889E+00
    84  8.3000000000000E-01 -1.1450057163545E+00  1.1182616285052E+00
    85  8.4000000000000E-01 -1.0924635610798E+00  1.0728410230683E+00
    86  8.5000000000000E-01 -1.0334069122040E+00  1.0265681651865E+00
    87  8.6000000000000E-01 -9.6878703588789E-01  9.7966899650102E-01
    88  8.7000000000000E-01 -8.9961808356360E-01  9.3236970357489E-01
    89  8.8000000000000E-01 -8.2695903801712E-01  8.8489430961924E-01
    90  8.9000000000000E-01 -7.5189466922706E-01  8.3746227804120E-01
    91  9.0000000000000E-01 -6.7551590334736E-01  7.9028617434498E-01
    92  9.1000000000000E-01 -5.9890002749650E-01  7.4356943336321E-01
    93  9.2000000000000E-01 -5.2309116266057E-01  6.9750427820451E-01
    94  9.3000000000000E-01 -4.4908143666810E-01  6.5226983565595E-01
    95  9.4000000000000E-01 -3.7779327871702E-01  6.0803049008357E-01
    96  9.5000000000000E-01 -3.1006323643923E-01  5.6493451416225E-01
    97  9.6000000000000E-01 -2.4662768632657E-01  5.2311301009487E-01
    98  9.7000000000000E-01 -1.8811076909473E-01  4.8267918942819E-01
    99  9.8000000000000E-01 -1.3501483404745E-01  4.4372801324270E-01
   100  9.9000000000000E-01 -8.7713621726652E-02  4.0633620750665E-01
   101  1.0000000000000E+00 -4.6448353287196E-02  3.7056266087796E-01
   102  1.0100000000000E+00 -1.1326829480433E-02  3.3644920436782E-01
   103  1.0200000000000E+00  1.7674426612778E-02  3.0402176421485E-01
   104  1.0300000000000E+00  4.0705019436465E-02  2.7329187121778E-01
   105  1.0400000000000E+00  5.8032630198871E-02  2.4425850182940E-01
   106  1.0500000000000E+00  7.0032241106683E-02  2.1691021869757E-01
   107  1.0600000000000E+00  7.7172875924665E-02  1.9122757120443E-01
   108  1.0700000000000E+00  8.0002158988354E-02  1.6718571009449E-01
   109  1.0800000000000E+00  7.9129049437471E-02  1.4475716462314E-01
   110  1.0900000000000E+00  7.5205154556695E-02  1.2391472593934E-01
   111  1.1000000000000E+00  6.8905064411535E-02  1.0463437676870E-01
   112  1.1100000000000E+00  6.0906178763430E-02  8.6898204955754E-02
   113  1.1200000000000E+00  5.1868515512338E-02  7.0697237149958E-02
   114  1.1300000000000E+00  4.2414956191245E-02  5.6034141044420E-02
   115  1.1400000000000E+00  3.3112752040853E-02  4.2925631090783E-02
   116  1.1500000000000E+00  2.4435341013369E-02  3.1410667302686E-02
   117  1.1600000000000E+00  1.6664258442588E-02  2.1574753657457E-02
   118  1.1700000000000E+00  1.0159403925573E-02  1.3471166364487E-02
   119  1.1800000000000E+00  5.1902492069212E-03  7.1697136567202E-03
   120  1.1900000000000E+00  1.8899742048638E-03  2.7690183258812E-03
   121  1.2000000000000E+00  2.5379219930805E-04  4.0232231381659E-04
   122  1.2100000000000E+00 -1.4961720877812E-05 -2.5212601631760E-05
   123  1.2200000000000E+00  8.3581084494743E-07  1.3670222533129E-06
   124  1.23  0.  0.
   125  1.24  0.  0.
   126  1.25  0.  0.
   127  1.26  0.  0.
   128  1.27  0.  0.
   129  1.28  0.  0.
   130  1.29  0.  0.
   131  1.30  0.  0.
   132  1.31  0.  0.
   133  1.32  0.  0.
   134  1.33  0.  0.
   135  1.34  0.  0.
   136  1.35  0.  0.
   137  1.36  0.  0.
   138  1.37  0.  0.
   139  1.38  0.  0.
   140  1.39  0.  0.
   141  1.40  0.  0.
   142  1.41  0.  0.
   143  1.42  0.  0.
   144  1.43  0.  0.
   145  1.44  0.  0.
   146  1.45  0.  0.
   147  1.46  0.  0.
   148  1.47  0.  0.
   149  1.48  0.  0.
   150  1.49  0.  0.
   151  1.50  0.  0.
   152  1.51  0.  0.
   153  1.52  0.  0.
   154  1.53  0.  0.
   155  1.54  0.  0.
   156  1.55  0.  0.
   157  1.56  0.  0.
   158  1.57  0.  0.
   159  1.58  0.  0.
   160  1.59  0.  0.
   161  1.60  0.  0.
   162  1.61  0.  0.
   163  1.62  0.  0.
   164  1.63  0.  0.
   165  1.64  0.  0.
   166  1.65  0.  0.
   167  1.66  0.  0.
   168  1.67  0.  0.
   169  1.68  0.  0.
   170  1.69  0.  0.
   171  1.70  0.  0.
   172  1.71  0.  0.
   173  1.72  0.  0.
   174  1.73  0.  0.
   175  1.74  0.  0.
   176  1.75  0.  0.
   177  1.76  0.  0.
   178  1.77  0.  0.
   179  1.78  0.  0.
   180  1.79  0.  0.
   181  1.80  0.  0.
   182  1.81  0.  0.
   183  1.82  0.  0.
   184  1.83  0.  0.
   185  1.84  0.  0.