Mn    ONCVPSP-4.0.1  r_core=   1.40044   1.20591   1.60701
     25.0000     15.0000      250925    zatom,zion,pspd
     8   -1012   2     4   600     0    pspcod,pspxc,lmax,lloc,mmax,r2well
  5.99000000  4.00000000  0.00000000    rchrg fchrg qchrg
     2     2     2     0    nproj
     3     1           extension_switch
     4     4     0    nprojso
   0                         8.6602454965166E+00  1.3872418623493E+00
     1  0.0000000000000E+00 -1.4270907788827E-09  3.0979142029430E-09
     2  1.0000000000000E-02  8.9561648600864E-02 -2.3236568177959E-02
     3  2.0000000000000E-02  1.7881663549441E-01 -4.6161241358701E-02
     4  3.0000000000000E-02  2.6746034754738E-01 -6.8465683328466E-02
     5  4.0000000000000E-02  3.5519224397388E-01 -8.9848623645305E-02
     6  5.0000000000000E-02  4.4171783087759E-01 -1.1001926184205E-01
     7  6.0000000000000E-02  5.2675056286875E-01 -1.2870051945107E-01
     8  7.0000000000000E-02  6.1001364915078E-01 -1.4563209282363E-01
     9  8.0000000000000E-02  6.9124174289910E-01 -1.6057326281444E-01
    10  9.0000000000000E-02  7.7018249449710E-01 -1.7330542118498E-01
    11  1.0000000000000E-01  8.4659795122643E-01 -1.8363427798880E-01
    12  1.1000000000000E-01  9.2026578829943E-01 -1.9139171917193E-01
    13  1.2000000000000E-01  9.9098035863554E-01 -1.9643728907437E-01
    14  1.3000000000000E-01  1.0585535514829E+00 -1.9865927837173E-01
    15  1.4000000000000E-01  1.1228154528293E+00 -1.9797540415871E-01
    16  1.5000000000000E-01  1.1836148034916E+00 -1.9433307525299E-01
    17  1.6000000000000E-01  1.2408192537683E+00 -1.8770924229138E-01
    18  1.7000000000000E-01  1.2943154165535E+00 -1.7810983869739E-01
    19  1.8000000000000E-01  1.3440087237732E+00 -1.6556882502072E-01
    20  1.9000000000000E-01  1.3898230938986E+00 -1.5014685538220E-01
    21  2.0000000000000E-01  1.4317004210433E+00 -1.3192959070563E-01
    22  2.1000000000000E-01  1.4695998987411E+00 -1.1102568898470E-01
    23  2.2000000000000E-01  1.5034971938704E+00 -8.7564507931091E-02
    24  2.3000000000000E-01  1.5333834883155E+00 -6.1693559895182E-02
    25  2.4000000000000E-01  1.5592644077933E+00 -3.3575762870149E-02
    26  2.5000000000000E-01  1.5811588587940E+00 -3.3865346175414E-03
    27  2.6000000000000E-01  1.5990977957695E+00  2.8689220566874E-02
    28  2.7000000000000E-01  1.6131229415263E+00  6.2460181237644E-02
    29  2.8000000000000E-01  1.6232854842268E+00  9.7731682257377E-02
    30  2.9000000000000E-01  1.6296447744703E+00  1.3430874022426E-01
    31  3.0000000000000E-01  1.6322670456011E+00  1.7199897958696E-01
    32  3.1000000000000E-01  1.6312241796894E+00  2.1061540982764E-01
    33  3.2000000000000E-01  1.6265925405506E+00  2.4997900657731E-01
    34  3.3000000000000E-01  1.6184518937314E+00  2.8992105279888E-01
    35  3.4000000000000E-01  1.6068844316153E+00  3.3028520018733E-01
    36  3.5000000000000E-01  1.5919739197136E+00  3.7092921563390E-01
    37  3.6000000000000E-01  1.5738049778385E+00  4.1172638291424E-01
    38  3.7000000000000E-01  1.5524625072466E+00  4.5256653560745E-01
    39  3.8000000000000E-01  1.5280312720232E+00  4.9335670354852E-01
    40  3.9000000000000E-01  1.5005956400089E+00  5.3402136175836E-01
    41  4.0000000000000E-01  1.4702394854813E+00  5.7450227768559E-01
    42  4.1000000000000E-01  1.4370462526605E+00  6.1475795961868E-01
    43  4.2000000000000E-01  1.4010991759505E+00  6.5476271617761E-01
    44  4.3000000000000E-01  1.3624816497116E+00  6.9450534375343E-01
    45  4.4000000000000E-01  1.3212777373373E+00  7.3398746552089E-01
    46  4.5000000000000E-01  1.2775728065317E+00  7.7322155208924E-01
    47  4.6000000000000E-01  1.2314542750016E+00  8.1222865987124E-01
    48  4.7000000000000E-01  1.1830124483323E+00  8.5103592873774E-01
    49  4.8000000000000E-01  1.1323414296628E+00  8.8967388538655E-01
    50  4.9000000000000E-01  1.0795400789420E+00  9.2817360300426E-01
    51  5.0000000000000E-01  1.0247129980773E+00  9.6656377115830E-01
    52  5.1000000000000E-01  9.6797151720560E-01  1.0048677323592E+00
    53  5.2000000000000E-01  9.0943465664929E-01  1.0431005433255E+00
    54  5.3000000000000E-01  8.4923003888700E-01  1.0812661196270E+00
    55  5.4000000000000E-01  7.8749472507585E-01  1.1193545220498E+00
    56  5.5000000000000E-01  7.2437595131917E-01  1.1573394417112E+00
    57  5.6000000000000E-01  6.6003174097422E-01  1.1951759386577E+00
    58  5.7000000000000E-01  5.9463137082845E-01  1.2327984854263E+00
    59  5.8000000000000E-01  5.2835567092508E-01  1.2701193628800E+00
    60  5.9000000000000E-01  4.6139714016127E-01  1.3070274505876E+00
    61  6.0000000000000E-01  3.9395986248741E-01  1.3433874481796E+00
    62  6.1000000000000E-01  3.2625921156349E-01  1.3790395575569E+00
    63  6.2000000000000E-01  2.5852133503629E-01  1.4137996486435E+00
    64  6.3000000000000E-01  1.9098241314057E-01  1.4474599236775E+00
    65  6.4000000000000E-01  1.2388769004408E-01  1.4797900869297E+00
    66  6.5000000000000E-01  5.7490280194970E-02  1.5105390183535E+00
    67  6.6000000000000E-01 -7.9502441715148E-03  1.5394369411434E+00
    68  6.7000000000000E-01 -7.2169474311199E-02  1.5661980646282E+00
    69  6.8000000000000E-01 -1.3489998114509E-01  1.5905236755074E+00
    70  6.9000000000000E-01 -1.9587330873326E-01  1.6121056422769E+00
    71  7.0000000000000E-01 -2.5482212393559E-01  1.6306302899272E+00
    72  7.1000000000000E-01 -3.1148249787926E-01  1.6457825947647E+00
    73  7.2000000000000E-01 -3.6559629189271E-01  1.6572506426239E+00
    74  7.3000000000000E-01 -4.1691361796670E-01  1.6647302879327E+00
    75  7.4000000000000E-01 -4.6519534161285E-01  1.6679299461592E+00
    76  7.5000000000000E-01 -5.1021559325228E-01  1.6665754482112E+00
    77  7.6000000000000E-01 -5.5176425301749E-01  1.6604148824499E+00
    78  7.7000000000000E-01 -5.8964937311954E-01  1.6492233481910E+00
    79  7.8000000000000E-01 -6.2369950174030E-01  1.6328075439391E+00
    80  7.9000000000000E-01 -6.5376587277049E-01  1.6110101141695E+00
    81  8.0000000000000E-01 -6.7972442663242E-01  1.5837136802474E+00
    82  8.1000000000000E-01 -7.0147762889785E-01  1.5508444840461E+00
    83  8.2000000000000E-01 -7.1895605542409E-01  1.5123755769731E+00
    84  8.3000000000000E-01 -7.3211971526225E-01  1.4683294923813E+00
    85  8.4000000000000E-01 -7.4095908561161E-01  1.4187803456787E+00
    86  8.5000000000000E-01 -7.4549583656469E-01  1.3638553137589E+00
    87  8.6000000000000E-01 -7.4578322726176E-01  1.3037354535697E+00
    88  8.7000000000000E-01 -7.4190615929905E-01  1.2386558285945E+00
    89  8.8000000000000E-01 -7.3398087775212E-01  1.1689049216174E+00
    90  8.9000000000000E-01 -7.2215431491863E-01  1.0948233222358E+00
    91  9.0000000000000E-01 -7.0660307678532E-01  1.0168016880268E+00
    92  9.1000000000000E-01 -6.8753207720734E-01  9.3527798890142E-01
    93  9.2000000000000E-01 -6.6517282978056E-01  8.5073405483890E-01
    94  9.3000000000000E-01 -6.3978141231138E-01  7.6369145771265E-01
    95  9.4000000000000E-01 -6.1163612356735E-01  6.7470676812989E-01
    96  9.5000000000000E-01 -5.8103485655157E-01  5.8436623795690E-01
    97  9.6000000000000E-01 -5.4829221680958E-01  4.9327996832212E-01
    98  9.7000000000000E-01 -5.1373641818188E-01  4.0207563123675E-01
    99  9.8000000000000E-01 -4.7770599189244E-01  3.1139182040656E-01
   100  9.9000000000000E-01 -4.4054634785655E-01  2.2187111320135E-01
   101  1.0000000000000E+00 -4.0260622954770E-01  1.3415293099070E-01
   102  1.0100000000000E+00 -3.6423410563878E-01  4.8866289047805E-02
   103  1.0200000000000E+00 -3.2577454289297E-01 -3.3377470105746E-02
   104  1.0300000000000E+00 -2.8756460539927E-01 -1.1199186474884E-01
   105  1.0400000000000E+00 -2.4993032520729E-01 -1.8642228836428E-01
   106  1.0500000000000E+00 -2.1318328871437E-01 -2.5615275690586E-01
   107  1.0600000000000E+00 -1.7761738179367E-01 -3.2071229841351E-01
   108  1.0700000000000E+00 -1.4350573464372E-01 -3.7968089881953E-01
   109  1.0800000000000E+00 -1.1109790471288E-01 -4.3269492347919E-01
   110  1.0900000000000E+00 -8.0617332830495E-02 -4.7945194092716E-01
   111  1.1000000000000E+00 -5.2259103928291E-02 -5.1971488346003E-01
   112  1.1100000000000E+00 -2.6188039474892E-02 -5.5331548834514E-01
   113  1.1200000000000E+00 -2.5371440831970E-03 -5.8015697351706E-01
   114  1.1300000000000E+00  1.8593576301548E-02 -6.0021591251720E-01
   115  1.1400000000000E+00  3.7137912537326E-02 -6.1354328488063E-01
   116  1.1500000000000E+00  5.3063860196758E-02 -6.2026469012296E-01
   117  1.1600000000000E+00  6.6373636351048E-02 -6.2057972562987E-01
   118  1.1700000000000E+00  7.7103310042672E-02 -6.1476054105345E-01
   119  1.1800000000000E+00  8.5322056895988E-02 -6.0314959392584E-01
   120  1.1900000000000E+00  9.1131054011802E-02 -5.8615664351648E-01
   121  1.2000000000000E+00  9.4662032587930E-02 -5.6425502038839E-01
   122  1.2100000000000E+00  9.6075533805960E-02 -5.3797728306234E-01
   123  1.2200000000000E+00  9.5557546333462E-02 -5.0790665273511E-01
   124  1.2300000000000E+00  9.3312365817195E-02 -4.7465855103382E-01
   125  1.2400000000000E+00  8.9557503761097E-02 -4.3886826526384E-01
   126  1.2500000000000E+00  8.4520329611985E-02 -4.0118354426686E-01
   127  1.2600000000000E+00  7.8434599411840E-02 -3.6225696489158E-01
   128  1.2700000000000E+00  7.1536925579790E-02 -3.2273819172217E-01
   129  1.2800000000000E+00  6.4063228169397E-02 -2.8326621274384E-01
   130  1.2900000000000E+00  5.6245215930070E-02 -2.4446165546630E-01
   131  1.3000000000000E+00  4.8306944994596E-02 -2.0691928678644E-01
   132  1.3100000000000E+00  4.0461505132254E-02 -1.7120080353070E-01
   133  1.3200000000000E+00  3.2907852116263E-02 -1.3782796084412E-01
   134  1.3300000000000E+00  2.5827837041575E-02 -1.0727616115247E-01
   135  1.3400000000000E+00  1.9374252942674E-02 -7.9951281186162E-02
   136  1.3500000000000E+00  1.3681523414087E-02 -5.6208346690864E-02
   137  1.3600000000000E+00  8.8746999935777E-03 -3.6368534322094E-02
   138  1.3700000000000E+00  5.0504642339486E-03 -2.0683783332601E-02
   139  1.3800000000000E+00  2.2774411134362E-03 -9.3387354953245E-03
   140  1.3900000000000E+00  5.8672481357767E-04 -2.4132959256365E-03
   141  1.4000000000000E+00  6.1468389211908E-06 -2.5412622640856E-05
   142  1.4100000000000E+00  2.8813205336755E-06 -1.1887195532192E-05
   143  1.4200000000000E+00 -8.8521276639609E-07  3.6447244458492E-06
   144  1.43  0.  0.
   145  1.44  0.  0.
   146  1.45  0.  0.
   147  1.46  0.  0.
   148  1.47  0.  0.
   149  1.48  0.  0.
   150  1.49  0.  0.
   151  1.50  0.  0.
   152  1.51  0.  0.
   153  1.52  0.  0.
   154  1.53  0.  0.
   155  1.54  0.  0.
   156  1.55  0.  0.
   157  1.56  0.  0.
   158  1.57  0.  0.
   159  1.58  0.  0.
   160  1.59  0.  0.
   161  1.60  0.  0.
   162  1.61  0.  0.
   163  1.62  0.  0.
   164  1.63  0.  0.
   165  1.64  0.  0.
   166  1.65  0.  0.
   167  1.66  0.  0.
   168  1.67  0.  0.
   169  1.68  0.  0.
   170  1.69  0.  0.
   171  1.70  0.  0.
   172  1.71  0.  0.
   173  1.72  0.  0.
   174  1.73  0.  0.
   175  1.74  0.  0.
   176  1.75  0.  0.
   177  1.76  0.  0.
   178  1.77  0.  0.
   179  1.78  0.  0.
   180  1.79  0.  0.
   181  1.80  0.  0.
   182  1.81  0.  0.
   183  1.82  0.  0.
   184  1.83  0.  0.
   185  1.84  0.  0.
   186  1.85  0.  0.
   187  1.86  0.  0.
   188  1.87  0.  0.
   189  1.88  0.  0.
   190  1.89  0.  0.
   191  1.90  0.  0.
   192  1.91  0.  0.
   193  1.92  0.  0.
   194  1.93  0.  0.
   195  1.94  0.  0.
   196  1.95  0.  0.
   197  1.96  0.  0.
   198  1.97  0.  0.
   199  1.98  0.  0.
   200  1.99  0.  0.
   201  2.00  0.  0.
   202  2.01  0.  0.
   203  2.02  0.  0.
   204  2.03  0.  0.
   205  2.04  0.  0.
   206  2.05  0.  0.
   207  2.06  0.  0.
   208  2.07  0.  0.
   209  2.08  0.  0.
   210  2.09  0.  0.
   211  2.10  0.  0.
   212  2.11  0.  0.
   213  2.12  0.  0.
   214  2.13  0.  0.
   215  2.14  0.  0.
   216  2.15  0.  0.
   217  2.16  0.  0.
   218  2.17  0.  0.
   219  2.18  0.  0.
   220  2.19  0.  0.
   221  2.20  0.  0.
   222  2.21  0.  0.
   223  2.22  0.  0.
   224  2.23  0.  0.
   225  2.24  0.  0.
   226  2.25  0.  0.
   227  2.26  0.  0.
   228  2.27  0.  0.
   229  2.28  0.  0.
   230  2.29  0.  0.
   231  2.30  0.  0.
   232  2.31  0.  0.
   233  2.32  0.  0.
   234  2.33  0.  0.
   235  2.34  0.  0.
   236  2.35  0.  0.
   237  2.36  0.  0.
   238  2.37  0.  0.
   239  2.38  0.  0.
   240  2.39  0.  0.
   241  2.40  0.  0.
   242  2.41  0.  0.
   243  2.42  0.  0.
   244  2.43  0.  0.
   245  2.44  0.  0.
   246  2.45  0.  0.
   247  2.46  0.  0.
   248  2.47  0.  0.
   249  2.48  0.  0.
   250  2.49  0.  0.
   251  2.50  0.  0.
   252  2.51  0.  0.
   253  2.52  0.  0.
   254  2.53  0.  0.
   255  2.54  0.  0.
   256  2.55  0.  0.
   257  2.56  0.  0.
   258  2.57  0.  0.
   259  2.58  0.  0.
   260  2.59  0.  0.
   261  2.60  0.  0.
   262  2.61  0.  0.
   263  2.62  0.  0.
   264  2.63  0.  0.
   265  2.64  0.  0.
   266  2.65  0.  0.
   267  2.66  0.  0.
   268  2.67  0.  0.
   269  2.68  0.  0.
   270  2.69  0.  0.
   271  2.70  0.  0.
   272  2.71  0.  0.
   273  2.72  0.  0.
   274  2.73  0.  0.
   275  2.74  0.  0.
   276  2.75  0.  0.
   277  2.76  0.  0.
   278  2.77  0.  0.
   279  2.78  0.  0.
   280  2.79  0.  0.
   281  2.80  0.  0.
   282  2.81  0.  0.
   283  2.82  0.  0.
   284  2.83  0.  0.
   285  2.84  0.  0.
   286  2.85  0.  0.
   287  2.86  0.  0.
   288  2.87  0.  0.
   289  2.88  0.  0.
   290  2.89  0.  0.
   291  2.90  0.  0.
   292  2.91  0.  0.
   293  2.92  0.  0.
   294  2.93  0.  0.
   295  2.94  0.  0.
   296  2.95  0.  0.
   297  2.96  0.  0.
   298  2.97  0.  0.
   299  2.98  0.  0.
   300  2.99  0.  0.
   301  3.00  0.  0.
   302  3.01  0.  0.
   303  3.02  0.  0.
   304  3.03  0.  0.
   305  3.04  0.  0.
   306  3.05  0.  0.
   307  3.06  0.  0.
   308  3.07  0.  0.
   309  3.08  0.  0.
   310  3.09  0.  0.
   311  3.10  0.  0.
   312  3.11  0.  0.
   313  3.12  0.  0.
   314  3.13  0.  0.
   315  3.14  0.  0.
   316  3.15  0.  0.
   317  3.16  0.  0.
   318  3.17  0.  0.
   319  3.18  0.  0.
   320  3.19  0.  0.
   321  3.20  0.  0.
   322  3.21  0.  0.
   323  3.22  0.  0.
   324  3.23  0.  0.
   325  3.24  0.  0.
   326  3.25  0.  0.
   327  3.26  0.  0.
   328  3.27  0.  0.
   329  3.28  0.  0.
   330  3.29  0.  0.
   331  3.30  0.  0.
   332  3.31  0.  0.
   333  3.32  0.  0.
   334  3.33  0.  0.
   335  3.34  0.  0.
   336  3.35  0.  0.
   337  3.36  0.  0.
   338  3.37  0.  0.
   339  3.38  0.  0.
   340  3.39  0.  0.
   341  3.40  0.  0.
   342  3.41  0.  0.
   343  3.42  0.  0.
   344  3.43  0.  0.
   345  3.44  0.  0.
   346  3.45  0.  0.
   347  3.46  0.  0.
   348  3.47  0.  0.
   349  3.48  0.  0.
   350  3.49  0.  0.
   351  3.50  0.  0.
   352  3.51  0.  0.
   353  3.52  0.  0.
   354  3.53  0.  0.
   355  3.54  0.  0.
   356  3.55  0.  0.
   357  3.56  0.  0.
   358  3.57  0.  0.
   359  3.58  0.  0.
   360  3.59  0.  0.
   361  3.60  0.  0.
   362  3.61  0.  0.
   363  3.62  0.  0.
   364  3.63  0.  0.
   365  3.64  0.  0.
   366  3.65  0.  0.
   367  3.66  0.  0.
   368  3.67  0.  0.
   369  3.68  0.  0.
   370  3.69  0.  0.
   371  3.70  0.  0.
   372  3.71  0.  0.
   373  3.72  0.  0.
   374  3.73  0.  0.
   375  3.74  0.  0.
   376  3.75  0.  0.
   377  3.76  0.  0.
   378  3.77  0.  0.
   379  3.78  0.  0.
   380  3.79  0.  0.
   381  3.80  0.  0.
   382  3.81  0.  0.
   383  3.82  0.  0.
   384  3.83  0.  0.
   385  3.84  0.  0.
   386  3.85  0.  0.
   387  3.86  0.  0.
   388  3.87  0.  0.
   389  3.88  0.  0.
   390  3.89  0.  0.
   391  3.90  0.  0.
   392  3.91  0.  0.
   393  3.92  0.  0.
   394  3.93  0.  0.
   395  3.94  0.  0.
   396  3.95  0.  0.
   397  3.96  0.  0.
   398  3.97  0.  0.
   399  3.98  0.  0.
   400  3.99  0.  0.
   401  4.00  0.  0.
   402  4.01  0.  0.
   403  4.02  0.  0.
   404  4.03  0.  0.
   405  4.04  0.  0.
   406  4.05  0.  0.
   407  4.06  0.  0.
   408  4.07  0.  0.
   409  4.08  0.  0.
   410  4.09  0.  0.
   411  4.10  0.  0.
   412  4.11  0.  0.
   413  4.12  0.  0.
   414  4.13  0.  0.
   415  4.14  0.  0.
   416  4.15  0.  0.
   417  4.16  0.  0.
   418  4.17  0.  0.
   419  4.18  0.  0.
   420  4.19  0.  0.
   421  4.20  0.  0.
   422  4.21  0.  0.
   423  4.22  0.  0.
   424  4.23  0.  0.
   425  4.24  0.  0.
   426  4.25  0.  0.
   427  4.26  0.  0.
   428  4.27  0.  0.
   429  4.28  0.  0.
   430  4.29  0.  0.
   431  4.30  0.  0.
   432  4.31  0.  0.
   433  4.32  0.  0.
   434  4.33  0.  0.
   435  4.34  0.  0.
   436  4.35  0.  0.
   437  4.36  0.  0.
   438  4.37  0.  0.
   439  4.38  0.  0.
   440  4.39  0.  0.
   441  4.40  0.  0.
   442  4.41  0.  0.
   443  4.42  0.  0.
   444  4.43  0.  0.
   445  4.44  0.  0.
   446  4.45  0.  0.
   447  4.46  0.  0.
   448  4.47  0.  0.
   449  4.48  0.  0.
   450  4.49  0.  0.
   451  4.50  0.  0.
   452  4.51  0.  0.
   453  4.52  0.  0.
   454  4.53  0.  0.
   455  4.54  0.  0.
   456  4.55  0.  0.
   457  4.56  0.  0.
   458  4.57  0.  0.
   459  4.58  0.  0.
   460  4.59  0.  0.
   461  4.60  0.  0.
   462  4.61  0.  0.
   463  4.62  0.  0.
   464  4.63  0.  0.
   465  4.64  0.  0.
   466  4.65  0.  0.
   467  4.66  0.  0.
   468  4.67  0.  0.
   469  4.68  0.  0.
   470  4.69  0.  0.
   471  4.70  0.  0.
   472  4.71  0.  0.
   473  4.72  0.  0.
   474  4.73  0.  0.
   475  4.74  0.  0.
   476  4.75  0.  0.
   477  4.76  0.  0.
   478  4.77  0.  0.
   479  4.78  0.  0.
   480  4.79  0.  0.
   481  4.80  0.  0.
   482  4.81  0.  0.
   483  4.82  0.  0.
   484  4.83  0.  0.
   485  4.84  0.  0.
   486  4.85  0.  0.
   487  4.86  0.  0.
   488  4.87  0.  0.
   489  4.88  0.  0.
   490  4.89  0.  0.
   491  4.90  0.  0.
   492  4.91  0.  0.
   493  4.92  0.  0.
   494  4.93  0.  0.
   495  4.94  0.  0.
   496  4.95  0.  0.
   497  4.96  0.  0.
   498  4.97  0.  0.
   499  4.98  0.  0.
   500  4.99  0.  0.
   501  5.00  0.  0.
   502  5.01  0.  0.
   503  5.02  0.  0.
   504  5.03  0.  0.
   505  5.04  0.  0.
   506  5.05  0.  0.
   507  5.06  0.  0.
   508  5.07  0.  0.
   509  5.08  0.  0.
   510  5.09  0.  0.
   511  5.10  0.  0.
   512  5.11  0.  0.
   513  5.12  0.  0.
   514  5.13  0.  0.
   515  5.14  0.  0.
   516  5.15  0.  0.
   517  5.16  0.  0.
   518  5.17  0.  0.
   519  5.18  0.  0.
   520  5.19  0.  0.
   521  5.20  0.  0.
   522  5.21  0.  0.
   523  5.22  0.  0.
   524  5.23  0.  0.
   525  5.24  0.  0.
   526  5.25  0.  0.
   527  5.26  0.  0.
   528  5.27  0.  0.
   529  5.28  0.  0.
   530  5.29  0.  0.
   531  5.30  0.  0.
   532  5.31  0.  0.
   533  5.32  0.  0.
   534  5.33  0.  0.
   535  5.34  0.  0.
   536  5.35  0.  0.
   537  5.36  0.  0.
   538  5.37  0.  0.
   539  5.38  0.  0.
   540  5.39  0.  0.
   541  5.40  0.  0.
   542  5.41  0.  0.
   543  5.42  0.  0.
   544  5.43  0.  0.
   545  5.44  0.  0.
   546  5.45  0.  0.
   547  5.46  0.  0.
   548  5.47  0.  0.
   549  5.48  0.  0.
   550  5.49  0.  0.
   551  5.50  0.  0.
   552  5.51  0.  0.
   553  5.52  0.  0.
   554  5.53  0.  0.
   555  5.54  0.  0.
   556  5.55  0.  0.
   557  5.56  0.  0.
   558  5.57  0.  0.
   559  5.58  0.  0.
   560  5.59  0.  0.
   561  5.60  0.  0.
   562  5.61  0.  0.
   563  5.62  0.  0.
   564  5.63  0.  0.
   565  5.64  0.  0.
   566  5.65  0.  0.
   567  5.66  0.  0.
   568  5.67  0.  0.
   569  5.68  0.  0.
   570  5.69  0.  0.
   571  5.70  0.  0.
   572  5.71  0.  0.
   573  5.72  0.  0.
   574  5.73  0.  0.
   575  5.74  0.  0.
   576  5.75  0.  0.
   577  5.76  0.  0.
   578  5.77  0.  0.
   579  5.78  0.  0.
   580  5.79  0.  0.
   581  5.80  0.  0.
   582  5.81  0.  0.
   583  5.82  0.  0.
   584  5.83  0.  0.
   585  5.84  0.  0.
   586  5.85  0.  0.
   587  5.86  0.  0.
   588  5.87  0.  0.
   589  5.88  0.  0.
   590  5.89  0.  0.
   591  5.90  0.  0.
   592  5.91  0.  0.
   593  5.92  0.  0.
   594  5.93  0.  0.
   595  5.94  0.  0.
   596  5.95  0.  0.
   597  5.96  0.  0.
   598  5.97  0.  0.
   599  5.98  0.  0.
   600  5.99  0.  0.
   1                         1.3921217821068E+00 -7.4552848529988E-01
     1  0.0000000000000E+00  3.4812849269983E-08 -3.6236111507215E-09
     2  1.0000000000000E-02  4.1853234148552E-03  3.6747736546186E-04
     3  2.0000000000000E-02  1.6688404072806E-02  1.4748488266619E-03
     4  3.0000000000000E-02  3.7351519815075E-02  3.3368255002752E-03
     5  4.0000000000000E-02  6.5914934225157E-02  5.9775715253062E-03
     6  5.0000000000000E-02  1.0202152271758E-01  9.4301801428911E-03
     7  6.0000000000000E-02  1.4522310157668E-01  1.3735955353296E-02
     8  7.0000000000000E-02  1.9498831680368E-01  1.8943513878447E-02
     9  8.0000000000000E-02  2.5071191481739E-01  2.5107725781949E-02
    10  9.0000000000000E-02  3.1172518659578E-01  3.2288515303374E-02
    11  1.0000000000000E-01  3.7730735148791E-01  4.0549546177698E-02
    12  1.1000000000000E-01  4.4669762728211E-01  4.9956817873616E-02
    13  1.2000000000000E-01  5.1910771966651E-01  6.0577200749626E-02
    14  1.3000000000000E-01  5.9373445728065E-01  7.2476939061305E-02
    15  1.4000000000000E-01  6.6977229829513E-01  8.5720151040023E-02
    16  1.5000000000000E-01  7.4642544086385E-01  1.0036735490050E-01
    17  1.6000000000000E-01  8.2291928270050E-01  1.1647404863608E-01
    18  1.7000000000000E-01  8.9851099410363E-01  1.3408936985497E-01
    19  1.8000000000000E-01  9.7249899350774E-01  1.5325485974226E-01
    20  1.9000000000000E-01  1.0442311444418E+00  1.7400335255696E-01
    21  2.0000000000000E-01  1.1131115268768E+00  1.9635800896071E-01
    22  2.1000000000000E-01  1.1786056734756E+00  2.2033150800367E-01
    23  2.2000000000000E-01  1.2402442012733E+00  2.4592540885016E-01
    24  2.3000000000000E-01  1.2976248107984E+00  2.7312968940726E-01
    25  2.4000000000000E-01  1.3504126665421E+00  3.0192246501879E-01
    26  2.5000000000000E-01  1.3983392139317E+00  3.3226988640515E-01
    27  2.6000000000000E-01  1.4411995275156E+00  3.6412621216353E-01
    28  2.7000000000000E-01  1.4788483219046E+00  3.9743404748641E-01
    29  2.8000000000000E-01  1.5111947902084E+00  4.3212473739803E-01
    30  2.9000000000000E-01  1.5381964633858E+00  4.6811889982814E-01
    31  3.0000000000000E-01  1.5598523073688E+00  5.0532708130972E-01
    32  3.1000000000000E-01  1.5761952924029E+00  5.4365051606063E-01
    33  3.2000000000000E-01  1.5872846803057E+00  5.8298196773339E-01
    34  3.3000000000000E-01  1.5931982799910E+00  6.2320663222154E-01
    35  3.4000000000000E-01  1.5940249194832E+00  6.6420307961201E-01
    36  3.5000000000000E-01  1.5898573738097E+00  7.0584421366820E-01
    37  3.6000000000000E-01  1.5807859728037E+00  7.4799822810336E-01
    38  3.7000000000000E-01  1.5668930913668E+00  7.9052954032527E-01
    39  3.8000000000000E-01  1.5482486976504E+00  8.3329968525719E-01
    40  3.9000000000000E-01  1.5249071026233E+00  8.7616815420511E-01
    41  4.0000000000000E-01  1.4969050183917E+00  9.1899316647880E-01
    42  4.1000000000000E-01  1.4642609933806E+00  9.6163236450145E-01
    43  4.2000000000000E-01  1.4269762510612E+00  1.0039434263724E+00
    44  4.3000000000000E-01  1.3850369164232E+00  1.0457845931841E+00
    45  4.4000000000000E-01  1.3384175719392E+00  1.0870151117423E+00
    46  4.5000000000000E-01  1.2870860434939E+00  1.1274955965978E+00
    47  4.6000000000000E-01  1.2310092777447E+00  1.1670883183756E+00
    48  4.7000000000000E-01  1.1701601367153E+00  1.2056574281886E+00
    49  4.8000000000000E-01  1.1045249040739E+00  1.2430691303676E+00
    50  4.9000000000000E-01  1.0341112713976E+00  1.2791918177503E+00
    51  5.0000000000000E-01  9.5895655253862E-01  1.3138961852868E+00
    52  5.1000000000000E-01  8.7913586059078E-01  1.3470553386871E+00
    53  5.2000000000000E-01  7.9476997536706E-01  1.3785449152255E+00
    54  5.3000000000000E-01  7.0603263001281E-01  1.4082432336026E+00
    55  5.4000000000000E-01  6.1315695348810E-01  1.4360314889491E+00
    56  5.5000000000000E-01  5.1644082106241E-01  1.4617940076546E+00
    57  5.6000000000000E-01  4.1625088738891E-01  1.4854185747363E+00
    58  5.7000000000000E-01  3.1302510569885E-01  1.5067968439943E+00
    59  5.8000000000000E-01  2.0727357153282E-01  1.5258248382737E+00
    60  5.9000000000000E-01  9.9577569409748E-02  1.5424035438606E+00
    61  6.0000000000000E-01 -9.4132550249918E-03  1.5564395994581E+00
    62  6.1000000000000E-01 -1.1898562759038E-01  1.5678460764191E+00
    63  6.2000000000000E-01 -2.2836926393941E-01  1.5765433430630E+00
    64  6.3000000000000E-01 -3.3674530485423E-01  1.5824600020800E+00
    65  6.4000000000000E-01 -4.4325645026767E-01  1.5855338863381E+00
    66  6.5000000000000E-01 -5.4701862628016E-01  1.5857130949754E+00
    67  6.6000000000000E-01 -6.4713397496435E-01  1.5829570485758E+00
    68  6.7000000000000E-01 -7.4270491651190E-01  1.5772375396009E+00
    69  6.8000000000000E-01 -8.3284899837440E-01  1.5685397521726E+00
    70  6.9000000000000E-01 -9.1671421746038E-01  1.5568632238389E+00
    71  7.0000000000000E-01 -9.9349448001190E-01  1.5422227211906E+00
    72  7.1000000000000E-01 -1.0624448501675E+00  1.5246490011558E+00
    73  7.2000000000000E-01 -1.1228962329107E+00  1.5041894305272E+00
    74  7.3000000000000E-01 -1.1742691403921E+00  1.4809084377803E+00
    75  7.4000000000000E-01 -1.2160862025778E+00  1.4548877734997E+00
    76  7.5000000000000E-01 -1.2479831036868E+00  1.4262265587302E+00
    77  7.6000000000000E-01 -1.2697176545756E+00  1.3950411042515E+00
    78  7.7000000000000E-01 -1.2811767475689E+00  1.3614644880693E+00
    79  7.8000000000000E-01 -1.2823809834600E+00  1.3256458832420E+00
    80  7.9000000000000E-01 -1.2734868095732E+00  1.2877496334149E+00
    81  8.0000000000000E-01 -1.2547860618184E+00  1.2479540789965E+00
    82  8.1000000000000E-01 -1.2267028613233E+00  1.2064501426592E+00
    83  8.2000000000000E-01 -1.1897878761832E+00  1.1634396886413E+00
    84  8.3000000000000E-01 -1.1447100196947E+00  1.1191336760367E+00
    85  8.4000000000000E-01 -1.0922457166941E+00  1.0737501317229E+00
    86  8.5000000000000E-01 -1.0332659278362E+00  1.0275119736840E+00
    87  8.6000000000000E-01 -9.6872117639119E-01  9.8064472006842E-01
    88  8.7000000000000E-01 -8.9962487203696E-01  9.3337412327966E-01
    89  8.8000000000000E-01 -8.2703526991575E-01  8.8592377160217E-01
    90  8.9000000000000E-01 -7.5203643975282E-01  8.3851270322184E-01
    91  9.0000000000000E-01 -6.7571864813500E-01  7.9135307892607E-01
    92  9.1000000000000E-01 -5.9915857630928E-01  7.4464796020234E-01
    93  9.2000000000000E-01 -5.2339980550442E-01  6.9858923885512E-01
    94  9.3000000000000E-01 -4.4943400142990E-01  6.5335576261266E-01
    95  9.4000000000000E-01 -3.7818321914275E-01  6.0911169850611E-01
    96  9.5000000000000E-01 -3.1048372899245E-01  5.6600517210304E-01
    97  9.6000000000000E-01 -2.4707173421937E-01  5.2416721602476E-01
    98  9.7000000000000E-01 -1.8857131156429E-01  4.8371105564874E-01
    99  9.8000000000000E-01 -1.3548485876965E-01  4.4473175359691E-01
   100  9.9000000000000E-01 -8.8186278117678E-02  4.0730622765784E-01
   101  1.0000000000000E+00 -4.6917064350306E-02  3.7149364932300E-01
   102  1.0100000000000E+00 -1.1785399808000E-02  3.3733622228861E-01
   103  1.0200000000000E+00  1.7231709065100E-02  3.0486033225342E-01
   104  1.0300000000000E+00  4.0283290131313E-02  2.7407805128650E-01
   105  1.0400000000000E+00  5.7636365573012E-02  2.4498897213876E-01
   106  1.0500000000000E+00  6.9665188962429E-02  2.1758234029864E-01
   107  1.0600000000000E+00  7.6838000512536E-02  1.9183944449943E-01
   108  1.0700000000000E+00  7.9701602388432E-02  1.6773621996422E-01
   109  1.0800000000000E+00  7.8864110559991E-02  1.4524601304943E-01
   110  1.0900000000000E+00  7.4976286762763E-02  1.2434245126021E-01
   111  1.1000000000000E+00  6.8711892409384E-02  1.0500235898784E-01
   112  1.1100000000000E+00  6.0747535071745E-02  8.7208656829129E-02
   113  1.1200000000000E+00  5.1742496406140E-02  7.0953181085566E-02
   114  1.1300000000000E+00  4.2318996715416E-02  5.6239372137250E-02
   115  1.1400000000000E+00  3.3043718931539E-02  4.3084667182371E-02
   116  1.1500000000000E+00  2.4389665873390E-02  3.1528671348725E-02
   117  1.1600000000000E+00  1.6638177031278E-02  2.1657385153385E-02
   118  1.1700000000000E+00  1.0148891742676E-02  1.3524632889643E-02
   119  1.1800000000000E+00  5.1911522590917E-03  7.2006942660739E-03
   120  1.1900000000000E+00  1.8982102475320E-03  2.7845657842325E-03
   121  1.2000000000000E+00  2.6595470126618E-04  4.0998540502326E-04
   122  1.2100000000000E+00 -9.7596672985659E-06 -2.2707302612875E-05
   123  1.2200000000000E+00  6.5777262351009E-07  1.2832935885653E-06
   124  1.23  0.  0.
   125  1.24  0.  0.
   126  1.25  0.  0.
   127  1.26  0.  0.
   128  1.27  0.  0.
   129  1.28  0.  0.
   130  1.29  0.  0.
   131  1.30  0.  0.
   132  1.31  0.  0.
   133  1.32  0.  0.
   134  1.33  0.  0.
   135  1.34  0.  0.
   136  1.35  0.  0.
   137  1.36  0.  0.
   138  1.37  0.  0.
   139  1.38  0.  0.
   140  1.39  0.  0.
   141  1.40  0.  0.
   142  1.41  0.  0.
   143  1.42  0.  0.
   144  1.43  0.  0.
   145  1.44  0.  0.
   146  1.45  0.  0.
   147  1.46  0.  0.
   148  1.47  0.  0.
   149  1.48  0.  0.
   150  1.49  0.  0.
   151  1.50  0.  0.
   152  1.51  0.  0.
   153  1.52  0.  0.
   154  1.53  0.  0.
   155  1.54  0.  0.
   156  1.55  0.  0.
   157  1.56  0.  0.
   158  1.57  0.  0.
   159  1.58  0.  0.
   160  1.59  0.  0.
   161  1.60  0.  0.
   162  1.61  0.  0.
   163  1.62  0.  0.
   164  1.63  0.  0.
   165  1.64  0.  0.
   166  1.65  0.  0.
   167  1.66  0.  0.
   168  1.67  0.  0.
   169  1.68  0.  0.
   170  1.69  0.  0.
   171  1.70  0.  0.
   172  1.71  0.  0.
   173  1.72  0.  0.
   174  1.73  0.  0.
   175  1.74  0.  0.
   176  1.75  0.  0.
   177  1.76  0.  0.
   178  1.77  0.  0.
   179  1.78  0.  0.
   180  1.79  0.  0.
   181  1.80  0.  0.
   182  1.81  0.  0.
   183  1.82  0.  0.
   184  1.83  0.  0.