W     ONCVPSP-4.0.1  r_core=   1.60310   1.60310   1.60310   2.00026
     74.0000     14.0000      250217    zatom,zion,pspd
     8       2   3     4   600     0    pspcod,pspxc,lmax,lloc,mmax,r2well
  5.99000000  5.00000000  0.00000000    rchrg fchrg qchrg
     2     2     2     2    nproj
     3     1           extension_switch
     4     3     3    nprojso
   0                         1.2900405648334E+01  1.7639908047103E+00
     1  0.0000000000000E+00  5.5262289189173E-10 -1.6346807241163E-09
     2  1.0000000000000E-02  4.9387819721619E-02 -1.1899868528725E-02
     3  2.0000000000000E-02  9.8761392318109E-02 -2.3851757310710E-02
     4  3.0000000000000E-02  1.4810583641108E-01 -3.5906026810125E-02
     5  4.0000000000000E-02  1.9740501193461E-01 -4.8109745068009E-02
     6  5.0000000000000E-02  2.4664091519563E-01 -6.0505108953444E-02
     7  6.0000000000000E-02  2.9579310281969E-01 -7.3127945186893E-02
     8  7.0000000000000E-02  3.4483815355144E-01 -8.6006315774095E-02
     9  8.0000000000000E-02  3.9374917632608E-01 -9.9159250854218E-02
    10  9.0000000000000E-02  4.4249537235320E-01 -1.1259562997046E-01
    11  1.0000000000000E-01  4.9104165816638E-01 -1.2631323044560E-01
    12  1.1000000000000E-01  5.3934835570306E-01 -1.4029795892533E-01
    13  1.2000000000000E-01  5.8737095450285E-01 -1.5452327927890E-01
    14  1.3000000000000E-01  6.3505995006268E-01 -1.6894984696440E-01
    15  1.4000000000000E-01  6.8236076127980E-01 -1.8352535672278E-01
    16  1.5000000000000E-01  7.2921372876553E-01 -1.9818460711110E-01
    17  1.6000000000000E-01  7.7555419464004E-01 -2.1284978197358E-01
    18  1.7000000000000E-01  8.2131266324026E-01 -2.2743094553305E-01
    19  1.8000000000000E-01  8.6641504100504E-01 -2.4182674441815E-01
    20  1.9000000000000E-01  9.1078295266352E-01 -2.5592530667699E-01
    21  2.0000000000000E-01  9.5433412975937E-01 -2.6960532471776E-01
    22  2.1000000000000E-01  9.9698286651346E-01 -2.8273730620990E-01
    23  2.2000000000000E-01  1.0386405370742E+00 -2.9518497432321E-01
    24  2.3000000000000E-01  1.0792161673450E+00 -3.0680679631988E-01
    25  2.4000000000000E-01  1.1186170538212E+00 -3.1745761748248E-01
    26  2.5000000000000E-01  1.1567494212329E+00 -3.2699037569601E-01
    27  2.6000000000000E-01  1.1935191102728E+00 -3.3525787072866E-01
    28  2.7000000000000E-01  1.2288322863139E+00 -3.4211456139821E-01
    29  2.8000000000000E-01  1.2625961597795E+00 -3.4741836338291E-01
    30  2.9000000000000E-01  1.2947197087319E+00 -3.5103242044599E-01
    31  3.0000000000000E-01  1.3251143942951E+00 -3.5282682229327E-01
    32  3.1000000000000E-01  1.3536948597160E+00 -3.5268024316789E-01
    33  3.2000000000000E-01  1.3803796042020E+00 -3.5048147659206E-01
    34  3.3000000000000E-01  1.4050916231355E+00 -3.4613084337375E-01
    35  3.4000000000000E-01  1.4277590068595E+00 -3.3954145208009E-01
    36  3.5000000000000E-01  1.4483154909387E+00 -3.3064029360521E-01
    37  3.6000000000000E-01  1.4667009516127E+00 -3.1936915419231E-01
    38  3.7000000000000E-01  1.4828618410676E+00 -3.0568533426027E-01
    39  3.8000000000000E-01  1.4967515581342E+00 -2.8956216359030E-01
    40  3.9000000000000E-01  1.5083307510668E+00 -2.7098930679074E-01
    41  4.0000000000000E-01  1.5175675501458E+00 -2.4997285642677E-01
    42  4.1000000000000E-01  1.5244377289610E+00 -2.2653521471582E-01
    43  4.2000000000000E-01  1.5289247943531E+00 -2.0071476819112E-01
    44  4.3000000000000E-01  1.5310200061017E+00 -1.7256536316606E-01
    45  4.4000000000000E-01  1.5307223285253E+00 -1.4215559312991E-01
    46  4.5000000000000E-01  1.5280383171913E+00 -1.0956791231729E-01
    47  4.6000000000000E-01  1.5229819448943E+00 -7.4897592560580E-02
    48  4.7000000000000E-01  1.5155743719454E+00 -3.8251543109965E-02
    49  4.8000000000000E-01  1.5058436665949E+00  2.5298466099583E-04
    50  4.9000000000000E-01  1.4938244820849E+00  4.0489783893800E-02
    51  5.0000000000000E-01  1.4795576973729E+00  8.2325145021182E-02
    52  5.1000000000000E-01  1.4630900289838E+00  1.2561934848460E-01
    53  5.2000000000000E-01  1.4444736217210E+00  1.7022817067265E-01
    54  5.3000000000000E-01  1.4237656260949E+00  2.1600437631553E-01
    55  5.4000000000000E-01  1.4010277703060E+00  2.6279917101069E-01
    56  5.5000000000000E-01  1.3763259344538E+00  3.1046358847677E-01
    57  5.6000000000000E-01  1.3497297343234E+00  3.5884978852376E-01
    58  5.7000000000000E-01  1.3213121216535E+00  4.0781224356816E-01
    59  5.8000000000000E-01  1.2911490071953E+00  4.5720879378346E-01
    60  5.9000000000000E-01  1.2593189121694E+00  5.0690155362301E-01
    61  6.0000000000000E-01  1.2259026529025E+00  5.5675765544078E-01
    62  6.1000000000000E-01  1.1909830625178E+00  6.0664981921447E-01
    63  6.2000000000000E-01  1.1546447525563E+00  6.5645674089110E-01
    64  6.3000000000000E-01  1.1169739163579E+00  7.0606329556352E-01
    65  6.4000000000000E-01  1.0780581749375E+00  7.5536055548503E-01
    66  6.5000000000000E-01  1.0379864649802E+00  8.0424562676800E-01
    67  6.6000000000000E-01  9.9684896746823E-01  8.5262131242269E-01
    68  6.7000000000000E-01  9.5473707436738E-01  9.0039561310291E-01
    69  6.8000000000000E-01  9.1174338975563E-01  9.4748108046619E-01
    70  6.9000000000000E-01  8.6796176080026E-01  9.9379404135942E-01
    71  7.0000000000000E-01  8.2348733309810E-01  1.0392537140413E+00
    72  7.1000000000000E-01  7.7841662410517E-01  1.0837812402902E+00
    73  7.2000000000000E-01  7.3284760771603E-01  1.1272986594648E+00
    74  7.3000000000000E-01  6.8687980252370E-01  1.1697278523346E+00
    75  7.4000000000000E-01  6.4061435591063E-01  1.2109894837408E+00
    76  7.5000000000000E-01  5.9415411590211E-01  1.2510019738466E+00
    77  7.6000000000000E-01  5.4760368266105E-01  1.2896805278739E+00
    78  7.7000000000000E-01  5.0106943162427E-01  1.3269362537749E+00
    79  7.8000000000000E-01  4.5465950057527E-01  1.3626753962638E+00
    80  7.9000000000000E-01  4.0848373341647E-01  1.3967987140246E+00
    81  8.0000000000000E-01  3.6265357403963E-01  1.4292010247513E+00
    82  8.1000000000000E-01  3.1728190448929E-01  1.4597709399754E+00
    83  8.2000000000000E-01  2.7248282255927E-01  1.4883908084483E+00
    84  8.3000000000000E-01  2.2837135504220E-01  1.5149368832015E+00
    85  8.4000000000000E-01  1.8506310405117E-01  1.5392797233817E+00
    86  8.5000000000000E-01  1.4267382512966E-01  1.5612848375922E+00
    87  8.6000000000000E-01  1.0131893724158E-01  1.5808135708618E+00
    88  8.7000000000000E-01  6.1112966162573E-02  1.5977242325631E+00
    89  8.8000000000000E-01  2.2168924252357E-02  1.6118734577126E+00
    90  8.9000000000000E-01 -1.5402368949806E-02  1.6231177891785E+00
    91  9.0000000000000E-01 -5.1493019425692E-02  1.6313154634956E+00
    92  9.1000000000000E-01 -8.5998837404903E-02  1.6363283783197E+00
    93  9.2000000000000E-01 -1.1882015353551E-01  1.6380242151393E+00
    94  9.3000000000000E-01 -1.4986266270592E-01  1.6362786867796E+00
    95  9.4000000000000E-01 -1.7903828464100E-01  1.6309778755665E+00
    96  9.5000000000000E-01 -2.0626602946133E-01  1.6220206248362E+00
    97  9.6000000000000E-01 -2.3147285562874E-01  1.6093209438501E+00
    98  9.7000000000000E-01 -2.5459450712432E-01  1.5928103841612E+00
    99  9.8000000000000E-01 -2.7557631633037E-01  1.5724403441239E+00
   100  9.9000000000000E-01 -2.9437395892774E-01  1.5481842575916E+00
   101  1.0000000000000E+00 -3.1095414718281E-01  1.5200396229167E+00
   102  1.0100000000000E+00 -3.2529524828888E-01  1.4880298291868E+00
   103  1.0200000000000E+00 -3.3738781494538E-01  1.4522057381914E+00
   104  1.0300000000000E+00 -3.4723501610190E-01  1.4126469829073E+00
   105  1.0400000000000E+00 -3.5485295675573E-01  1.3694629462913E+00
   106  1.0500000000000E+00 -3.6027087686070E-01  1.3227933878522E+00
   107  1.0600000000000E+00 -3.6353122076427E-01  1.2728086897673E+00
   108  1.0700000000000E+00 -3.6468957012609E-01  1.2197096991858E+00
   109  1.0800000000000E+00 -3.6381443495653E-01  1.1637271487176E+00
   110  1.0900000000000E+00 -3.6098689922683E-01  1.1051206428830E+00
   111  1.1000000000000E+00 -3.5630011941985E-01  1.0441772044111E+00
   112  1.1100000000000E+00 -3.4985867636974E-01  9.8120938059232E-01
   113  1.1200000000000E+00 -3.4177778277089E-01  9.1655291637849E-01
   114  1.1300000000000E+00 -3.3218235076082E-01  8.5056400738687E-01
   115  1.1400000000000E+00 -3.2120592599678E-01  7.8361615240325E-01
   116  1.1500000000000E+00 -3.0898949658668E-01  7.1609663117268E-01
   117  1.1600000000000E+00 -2.9568018710151E-01  6.4840263922560E-01
   118  1.1700000000000E+00 -2.8142984962409E-01  5.8093711699588E-01
   119  1.1800000000000E+00 -2.6639356538246E-01  5.1410431556271E-01
   120  1.1900000000000E+00 -2.5072807191390E-01  4.4830514579468E-01
   121  1.2000000000000E+00 -2.3459013191278E-01  3.8393236150346E-01
   122  1.2100000000000E+00 -2.1813486088729E-01  3.2136563028742E-01
   123  1.2200000000000E+00 -2.0151403148250E-01  2.6096654804544E-01
   124  1.2300000000000E+00 -1.8487437279920E-01  2.0307365460299E-01
   125  1.2400000000000E+00 -1.6835588310540E-01  1.4799750784823E-01
   126  1.2500000000000E+00 -1.5209017795375E-01  9.6015891297099E-02
   127  1.2600000000000E+00 -1.3619888200288E-01  4.7369164142443E-02
   128  1.2700000000000E+00 -1.2079289122593E-01  2.2596915292141E-03
   129  1.2800000000000E+00 -1.0597307674575E-01 -3.9142339889144E-02
   130  1.2900000000000E+00 -9.1830029374096E-02 -7.6698497015649E-02
   131  1.3000000000000E+00 -7.8443354473877E-02 -1.1030414486467E-01
   132  1.3100000000000E+00 -6.5881102328081E-02 -1.3989004119907E-01
   133  1.3200000000000E+00 -5.4199331716034E-02 -1.6542350826037E-01
   134  1.3300000000000E+00 -4.3441816160327E-02 -1.8690914749769E-01
   135  1.3400000000000E+00 -3.3639898237047E-02 -2.0438908004221E-01
   136  1.3500000000000E+00 -2.4812495322223E-02 -2.1794270220557E-01
   137  1.3600000000000E+00 -1.6966258020096E-02 -2.2768595220608E-01
   138  1.3700000000000E+00 -1.0095880361796E-02 -2.3377009134595E-01
   139  1.3800000000000E+00 -4.1845586787576E-03 -2.3638000997034E-01
   140  1.3900000000000E+00  7.9540608363151E-04 -2.3573207549555E-01
   141  1.4000000000000E+00  4.8818699431735E-03 -2.3207154661183E-01
   142  1.4100000000000E+00  8.1219806735814E-03 -2.2566958424726E-01
   143  1.4200000000000E+00  1.0571197025275E-02 -2.1681989601330E-01
   144  1.4300000000000E+00  1.2292205312294E-02 -2.0583505645736E-01
   145  1.4400000000000E+00  1.3353747856567E-02 -1.9304255048933E-01
   146  1.4500000000000E+00  1.3829379132698E-02 -1.7878059173464E-01
   147  1.4600000000000E+00  1.3796166583064E-02 -1.6339377121660E-01
   148  1.4700000000000E+00  1.3333353959723E-02 -1.4722859463973E-01
   149  1.4800000000000E+00  1.2521005680396E-02 -1.3062896857978E-01
   150  1.4900000000000E+00  1.1438651047435E-02 -1.1393169704451E-01
   151  1.5000000000000E+00  1.0163948497244E-02 -9.7462053428689E-02
   152  1.5100000000000E+00  8.7713799645780E-03 -8.1529465787035E-02
   153  1.5200000000000E+00  7.3310537269263E-03 -6.6423561587427E-02
   154  1.5300000000000E+00  5.9047024508942E-03 -5.2402222165437E-02
   155  1.5400000000000E+00  4.5483108729001E-03 -3.9701968859959E-02
   156  1.5500000000000E+00  3.2976648114921E-03 -2.8472468908661E-02
   157  1.5600000000000E+00  2.1914054481456E-03 -1.8874075077255E-02
   158  1.5700000000000E+00  1.3007737349503E-03 -1.1189902081889E-02
   159  1.5800000000000E+00  6.3198904979500E-04 -5.4584871926081E-03
   160  1.5900000000000E+00  1.9976762838728E-04 -1.7389145566224E-03
   161  1.6000000000000E+00  1.6024590799612E-05 -1.4165139884062E-04
   162  1.6100000000000E+00 -3.1162327474980E-06  2.7488186839407E-05
   163  1.6200000000000E+00  9.9936338042432E-07 -8.7634726460636E-06
   164  1.63  0.  0.
   165  1.64  0.  0.
   166  1.65  0.  0.
   167  1.66  0.  0.
   168  1.67  0.  0.
   169  1.68  0.  0.
   170  1.69  0.  0.
   171  1.70  0.  0.
   172  1.71  0.  0.
   173  1.72  0.  0.
   174  1.73  0.  0.
   175  1.74  0.  0.
   176  1.75  0.  0.
   177  1.76  0.  0.
   178  1.77  0.  0.
   179  1.78  0.  0.
   180  1.79  0.  0.
   181  1.80  0.  0.
   182  1.81  0.  0.
   183  1.82  0.  0.
   184  1.83  0.  0.
   185  1.84  0.  0.
   186  1.85  0.  0.
   187  1.86  0.  0.
   188  1.87  0.  0.
   189  1.88  0.  0.
   190  1.89  0.  0.
   191  1.90  0.  0.
   192  1.91  0.  0.
   193  1.92  0.  0.
   194  1.93  0.  0.
   195  1.94  0.  0.
   196  1.95  0.  0.
   197  1.96  0.  0.
   198  1.97  0.  0.
   199  1.98  0.  0.
   200  1.99  0.  0.
   201  2.00  0.  0.
   202  2.01  0.  0.
   203  2.02  0.  0.
   204  2.03  0.  0.
   205  2.04  0.  0.
   206  2.05  0.  0.
   207  2.06  0.  0.
   208  2.07  0.  0.
   209  2.08  0.  0.
   210  2.09  0.  0.
   211  2.10  0.  0.
   212  2.11  0.  0.
   213  2.12  0.  0.
   214  2.13  0.  0.
   215  2.14  0.  0.
   216  2.15  0.  0.
   217  2.16  0.  0.
   218  2.17  0.  0.
   219  2.18  0.  0.
   220  2.19  0.  0.
   221  2.20  0.  0.
   222  2.21  0.  0.
   223  2.22  0.  0.
   224  2.23  0.  0.
   225  2.24  0.  0.
   226  2.25  0.  0.
   227  2.26  0.  0.
   228  2.27  0.  0.
   229  2.28  0.  0.
   230  2.29  0.  0.
   231  2.30  0.  0.
   232  2.31  0.  0.
   233  2.32  0.  0.
   234  2.33  0.  0.
   235  2.34  0.  0.
   236  2.35  0.  0.
   237  2.36  0.  0.
   238  2.37  0.  0.
   239  2.38  0.  0.
   240  2.39  0.  0.
   241  2.40  0.  0.
   242  2.41  0.  0.
   243  2.42  0.  0.
   244  2.43  0.  0.
   245  2.44  0.  0.
   246  2.45  0.  0.
   247  2.46  0.  0.
   248  2.47  0.  0.
   249  2.48  0.  0.
   250  2.49  0.  0.
   251  2.50  0.  0.
   252  2.51  0.  0.
   253  2.52  0.  0.
   254  2.53  0.  0.
   255  2.54  0.  0.
   256  2.55  0.  0.
   257  2.56  0.  0.
   258  2.57  0.  0.
   259  2.58  0.  0.
   260  2.59  0.  0.
   261  2.60  0.  0.
   262  2.61  0.  0.
   263  2.62  0.  0.
   264  2.63  0.  0.
   265  2.64  0.  0.
   266  2.65  0.  0.
   267  2.66  0.  0.
   268  2.67  0.  0.
   269  2.68  0.  0.
   270  2.69  0.  0.
   271  2.70  0.  0.
   272  2.71  0.  0.
   273  2.72  0.  0.
   274  2.73  0.  0.
   275  2.74  0.  0.
   276  2.75  0.  0.
   277  2.76  0.  0.
   278  2.77  0.  0.
   279  2.78  0.  0.
   280  2.79  0.  0.
   281  2.80  0.  0.
   282  2.81  0.  0.
   283  2.82  0.  0.
   284  2.83  0.  0.
   285  2.84  0.  0.
   286  2.85  0.  0.
   287  2.86  0.  0.
   288  2.87  0.  0.
   289  2.88  0.  0.
   290  2.89  0.  0.
   291  2.90  0.  0.
   292  2.91  0.  0.
   293  2.92  0.  0.
   294  2.93  0.  0.
   295  2.94  0.  0.
   296  2.95  0.  0.
   297  2.96  0.  0.
   298  2.97  0.  0.
   299  2.98  0.  0.
   300  2.99  0.  0.
   301  3.00  0.  0.
   302  3.01  0.  0.
   303  3.02  0.  0.
   304  3.03  0.  0.
   305  3.04  0.  0.
   306  3.05  0.  0.
   307  3.06  0.  0.
   308  3.07  0.  0.
   309  3.08  0.  0.
   310  3.09  0.  0.
   311  3.10  0.  0.
   312  3.11  0.  0.
   313  3.12  0.  0.
   314  3.13  0.  0.
   315  3.14  0.  0.
   316  3.15  0.  0.
   317  3.16  0.  0.
   318  3.17  0.  0.
   319  3.18  0.  0.
   320  3.19  0.  0.
   321  3.20  0.  0.
   322  3.21  0.  0.
   323  3.22  0.  0.
   324  3.23  0.  0.
   325  3.24  0.  0.
   326  3.25  0.  0.
   327  3.26  0.  0.
   328  3.27  0.  0.
   329  3.28  0.  0.
   330  3.29  0.  0.
   331  3.30  0.  0.
   332  3.31  0.  0.
   333  3.32  0.  0.
   334  3.33  0.  0.
   335  3.34  0.  0.
   336  3.35  0.  0.
   337  3.36  0.  0.
   338  3.37  0.  0.
   339  3.38  0.  0.
   340  3.39  0.  0.
   341  3.40  0.  0.
   342  3.41  0.  0.
   343  3.42  0.  0.
   344  3.43  0.  0.
   345  3.44  0.  0.
   346  3.45  0.  0.
   347  3.46  0.  0.
   348  3.47  0.  0.
   349  3.48  0.  0.
   350  3.49  0.  0.
   351  3.50  0.  0.
   352  3.51  0.  0.
   353  3.52  0.  0.
   354  3.53  0.  0.
   355  3.54  0.  0.
   356  3.55  0.  0.
   357  3.56  0.  0.
   358  3.57  0.  0.
   359  3.58  0.  0.
   360  3.59  0.  0.
   361  3.60  0.  0.
   362  3.61  0.  0.
   363  3.62  0.  0.
   364  3.63  0.  0.
   365  3.64  0.  0.
   366  3.65  0.  0.
   367  3.66  0.  0.
   368  3.67  0.  0.
   369  3.68  0.  0.
   370  3.69  0.  0.
   371  3.70  0.  0.
   372  3.71  0.  0.
   373  3.72  0.  0.
   374  3.73  0.  0.
   375  3.74  0.  0.
   376  3.75  0.  0.
   377  3.76  0.  0.
   378  3.77  0.  0.
   379  3.78  0.  0.
   380  3.79  0.  0.
   381  3.80  0.  0.
   382  3.81  0.  0.
   383  3.82  0.  0.
   384  3.83  0.  0.
   385  3.84  0.  0.
   386  3.85  0.  0.
   387  3.86  0.  0.
   388  3.87  0.  0.
   389  3.88  0.  0.
   390  3.89  0.  0.
   391  3.90  0.  0.
   392  3.91  0.  0.
   393  3.92  0.  0.
   394  3.93  0.  0.
   395  3.94  0.  0.
   396  3.95  0.  0.
   397  3.96  0.  0.
   398  3.97  0.  0.
   399  3.98  0.  0.
   400  3.99  0.  0.
   401  4.00  0.  0.
   402  4.01  0.  0.
   403  4.02  0.  0.
   404  4.03  0.  0.
   405  4.04  0.  0.
   406  4.05  0.  0.
   407  4.06  0.  0.
   408  4.07  0.  0.
   409  4.08  0.  0.
   410  4.09  0.  0.
   411  4.10  0.  0.
   412  4.11  0.  0.
   413  4.12  0.  0.
   414  4.13  0.  0.
   415  4.14  0.  0.
   416  4.15  0.  0.
   417  4.16  0.  0.
   418  4.17  0.  0.
   419  4.18  0.  0.
   420  4.19  0.  0.
   421  4.20  0.  0.
   422  4.21  0.  0.
   423  4.22  0.  0.
   424  4.23  0.  0.
   425  4.24  0.  0.
   426  4.25  0.  0.
   427  4.26  0.  0.
   428  4.27  0.  0.
   429  4.28  0.  0.
   430  4.29  0.  0.
   431  4.30  0.  0.
   432  4.31  0.  0.
   433  4.32  0.  0.
   434  4.33  0.  0.
   435  4.34  0.  0.
   436  4.35  0.  0.
   437  4.36  0.  0.
   438  4.37  0.  0.
   439  4.38  0.  0.
   440  4.39  0.  0.
   441  4.40  0.  0.
   442  4.41  0.  0.
   443  4.42  0.  0.
   444  4.43  0.  0.
   445  4.44  0.  0.
   446  4.45  0.  0.
   447  4.46  0.  0.
   448  4.47  0.  0.
   449  4.48  0.  0.
   450  4.49  0.  0.
   451  4.50  0.  0.
   452  4.51  0.  0.
   453  4.52  0.  0.
   454  4.53  0.  0.
   455  4.54  0.  0.
   456  4.55  0.  0.
   457  4.56  0.  0.
   458  4.57  0.  0.
   459  4.58  0.  0.
   460  4.59  0.  0.
   461  4.60  0.  0.
   462  4.61  0.  0.
   463  4.62  0.  0.
   464  4.63  0.  0.
   465  4.64  0.  0.
   466  4.65  0.  0.
   467  4.66  0.  0.
   468  4.67  0.  0.
   469  4.68  0.  0.
   470  4.69  0.  0.
   471  4.70  0.  0.
   472  4.71  0.  0.
   473  4.72  0.  0.
   474  4.73  0.  0.
   475  4.74  0.  0.
   476  4.75  0.  0.
   477  4.76  0.  0.
   478  4.77  0.  0.
   479  4.78  0.  0.
   480  4.79  0.  0.
   481  4.80  0.  0.
   482  4.81  0.  0.
   483  4.82  0.  0.
   484  4.83  0.  0.
   485  4.84  0.  0.
   486  4.85  0.  0.
   487  4.86  0.  0.
   488  4.87  0.  0.
   489  4.88  0.  0.
   490  4.89  0.  0.
   491  4.90  0.  0.
   492  4.91  0.  0.
   493  4.92  0.  0.
   494  4.93  0.  0.
   495  4.94  0.  0.
   496  4.95  0.  0.
   497  4.96  0.  0.
   498  4.97  0.  0.
   499  4.98  0.  0.
   500  4.99  0.  0.
   501  5.00  0.  0.
   502  5.01  0.  0.
   503  5.02  0.  0.
   504  5.03  0.  0.
   505  5.04  0.  0.
   506  5.05  0.  0.
   507  5.06  0.  0.
   508  5.07  0.  0.
   509  5.08  0.  0.
   510  5.09  0.  0.
   511  5.10  0.  0.
   512  5.11  0.  0.
   513  5.12  0.  0.
   514  5.13  0.  0.
   515  5.14  0.  0.
   516  5.15  0.  0.
   517  5.16  0.  0.
   518  5.17  0.  0.
   519  5.18  0.  0.
   520  5.19  0.  0.
   521  5.20  0.  0.
   522  5.21  0.  0.
   523  5.22  0.  0.
   524  5.23  0.  0.
   525  5.24  0.  0.
   526  5.25  0.  0.
   527  5.26  0.  0.
   528  5.27  0.  0.
   529  5.28  0.  0.
   530  5.29  0.  0.
   531  5.30  0.  0.
   532  5.31  0.  0.
   533  5.32  0.  0.
   534  5.33  0.  0.
   535  5.34  0.  0.
   536  5.35  0.  0.
   537  5.36  0.  0.
   538  5.37  0.  0.
   539  5.38  0.  0.
   540  5.39  0.  0.
   541  5.40  0.  0.
   542  5.41  0.  0.
   543  5.42  0.  0.
   544  5.43  0.  0.
   545  5.44  0.  0.
   546  5.45  0.  0.
   547  5.46  0.  0.
   548  5.47  0.  0.
   549  5.48  0.  0.
   550  5.49  0.  0.
   551  5.50  0.  0.
   552  5.51  0.  0.
   553  5.52  0.  0.
   554  5.53  0.  0.
   555  5.54  0.  0.
   556  5.55  0.  0.
   557  5.56  0.  0.
   558  5.57  0.  0.
   559  5.58  0.  0.
   560  5.59  0.  0.
   561  5.60  0.  0.
   562  5.61  0.  0.
   563  5.62  0.  0.
   564  5.63  0.  0.
   565  5.64  0.  0.
   566  5.65  0.  0.
   567  5.66  0.  0.
   568  5.67  0.  0.
   569  5.68  0.  0.
   570  5.69  0.  0.
   571  5.70  0.  0.
   572  5.71  0.  0.
   573  5.72  0.  0.
   574  5.73  0.  0.
   575  5.74  0.  0.
   576  5.75  0.  0.
   577  5.76  0.  0.
   578  5.77  0.  0.
   579  5.78  0.  0.
   580  5.79  0.  0.
   581  5.80  0.  0.
   582  5.81  0.  0.
   583  5.82  0.  0.
   584  5.83  0.  0.
   585  5.84  0.  0.
   586  5.85  0.  0.
   587  5.86  0.  0.
   588  5.87  0.  0.
   589  5.88  0.  0.
   590  5.89  0.  0.
   591  5.90  0.  0.
   592  5.91  0.  0.
   593  5.92  0.  0.
   594  5.93  0.  0.
   595  5.94  0.  0.
   596  5.95  0.  0.
   597  5.96  0.  0.
   598  5.97  0.  0.
   599  5.98  0.  0.
   600  5.99  0.  0.
   1                         9.0245832407280E+00  1.3845778679728E+00
     1  0.0000000000000E+00 -1.3883603988685E-09  3.7101269764750E-09
     2  1.0000000000000E-02  1.2073273613537E-03 -5.1484183866610E-04
     3  2.0000000000000E-02  4.8272281035399E-03 -2.0601922749527E-03
     4  3.0000000000000E-02  1.0853427559575E-02 -4.6384339783446E-03
     5  4.0000000000000E-02  1.9275366635818E-02 -8.2532332985061E-03
     6  5.0000000000000E-02  3.0078052701272E-02 -1.2909090788980E-02
     7  6.0000000000000E-02  4.3241856498404E-02 -1.8610727125721E-02
     8  7.0000000000000E-02  5.8742260605244E-02 -2.5362319234610E-02
     9  8.0000000000000E-02  7.6549566366864E-02 -3.3166605152255E-02
    10  9.0000000000000E-02  9.6628567464033E-02 -4.2023879476401E-02
    11  1.0000000000000E-01  1.1893819937240E-01 -5.1930904147509E-02
    12  1.1000000000000E-01  1.4343117486445E-01 -6.2879761680097E-02
    13  1.2000000000000E-01  1.7005361640035E-01 -7.4856679781891E-02
    14  1.3000000000000E-01  1.9874469672670E-01 -8.7840857519209E-02
    15  1.4000000000000E-01  2.2943629924471E-01 -1.0180332378106E-01
    16  1.5000000000000E-01  2.6205270971348E-01 -1.1670585874532E-01
    17  1.6000000000000E-01  2.9651035061929E-01 -1.3250000835409E-01
    18  1.7000000000000E-01  3.3271756906951E-01 -1.4912622047161E-01
    19  1.8000000000000E-01  3.7057448836869E-01 -1.6651312944724E-01
    20  1.9000000000000E-01  4.0997293251451E-01 -1.8457701327324E-01
    21  2.0000000000000E-01  4.5079643173000E-01 -2.0322144445586E-01
    22  2.1000000000000E-01  4.9292031584470E-01 -2.2233715216719E-01
    23  2.2000000000000E-01  5.3621190087553E-01 -2.4180210927832E-01
    24  2.3000000000000E-01  5.8053077256388E-01 -2.6148185356853E-01
    25  2.4000000000000E-01  6.2572916892975E-01 -2.8123004784129E-01
    26  2.5000000000000E-01  6.7165246213667E-01 -3.0088927894483E-01
    27  2.6000000000000E-01  7.1813973815758E-01 -3.2029209088564E-01
    28  2.7000000000000E-01  7.6502447092505E-01 -3.3926224243106E-01
    29  2.8000000000000E-01  8.1213528587444E-01 -3.5761617491907E-01
    30  2.9000000000000E-01  8.5929680608011E-01 -3.7516467152352E-01
    31  3.0000000000000E-01  9.0633057257618E-01 -3.9171468505184E-01
    32  3.1000000000000E-01  9.5305602897616E-01 -4.0707130756799E-01
    33  3.2000000000000E-01  9.9929155919046E-01 -4.2103985181470E-01
    34  3.3000000000000E-01  1.0448555659131E+00 -4.3342801162863E-01
    35  3.4000000000000E-01  1.0895675766336E+00 -4.4404806636181E-01
    36  3.5000000000000E-01  1.1332493632456E+00 -4.5271909279463E-01
    37  3.6000000000000E-01  1.1757260608879E+00 -4.5926914718758E-01
    38  3.7000000000000E-01  1.2168272714712E+00 -4.6353737999860E-01
    39  3.8000000000000E-01  1.2563881374332E+00 -4.6537604640129E-01
    40  3.9000000000000E-01  1.2942503716088E+00 -4.6465237707542E-01
    41  4.0000000000000E-01  1.3302632297168E+00 -4.6125027578869E-01
    42  4.1000000000000E-01  1.3642844128218E+00 -4.5507181301714E-01
    43  4.2000000000000E-01  1.3961808882335E+00 -4.4603848821671E-01
    44  4.3000000000000E-01  1.4258296186176E+00 -4.3409223730303E-01
    45  4.4000000000000E-01  1.4531181906092E+00 -4.1919616635054E-01
    46  4.5000000000000E-01  1.4779453358959E+00 -4.0133499740469E-01
    47  4.6000000000000E-01  1.5002213395566E+00 -3.8051521752206E-01
    48  4.7000000000000E-01  1.5198683323576E+00 -3.5676492761374E-01
    49  4.8000000000000E-01  1.5368204656937E+00 -3.3013339326267E-01
    50  4.9000000000000E-01  1.5510239698748E+00 -3.0069030530638E-01
    51  5.0000000000000E-01  1.5624370984570E+00 -2.6852476351194E-01
    52  5.1000000000000E-01  1.5710299632687E+00 -2.3374400200756E-01
    53  5.2000000000000E-01  1.5767842666422E+00 -1.9647188016664E-01
    54  5.3000000000000E-01  1.5796929390944E+00 -1.5684716725999E-01
    55  5.4000000000000E-01  1.5797596922695E+00 -1.1502165330130E-01
    56  5.5000000000000E-01  1.5769984983336E+00 -7.1158122021503E-02
    57  5.6000000000000E-01  1.5714330081593E+00 -2.5428224737207E-02
    58  5.7000000000000E-01  1.5630959215407E+00  2.1989704037043E-02
    59  5.8000000000000E-01  1.5520283233097E+00  7.0912847099393E-02
    60  5.9000000000000E-01  1.5382789995688E+00  1.2115607861533E-01
    61  6.0000000000000E-01  1.5219037483094E+00  1.7253406955213E-01
    62  6.1000000000000E-01  1.5029646984322E+00  2.2486328360952E-01
    63  6.2000000000000E-01  1.4815296506468E+00  2.7796382489695E-01
    64  6.3000000000000E-01  1.4576714528894E+00  3.3166110156594E-01
    65  6.4000000000000E-01  1.4314674217966E+00  3.8578727334216E-01
    66  6.5000000000000E-01  1.4029988204071E+00  4.4018245535164E-01
    67  6.6000000000000E-01  1.3723504006758E+00  4.9469565572219E-01
    68  6.7000000000000E-01  1.3396100175995E+00  5.4918543007014E-01
    69  6.8000000000000E-01  1.3048683197982E+00  6.0352024204857E-01
    70  6.9000000000000E-01  1.2682185193270E+00  6.5757852552126E-01
    71  7.0000000000000E-01  1.2297562413357E+00  7.1124845050857E-01
    72  7.1000000000000E-01  1.1895794520000E+00  7.6442740169971E-01
    73  7.2000000000000E-01  1.1477884609689E+00  8.1702118490019E-01
    74  7.3000000000000E-01  1.1044859924414E+00  8.6894298315282E-01
    75  7.4000000000000E-01  1.0597773169664E+00  9.2011209029336E-01
    76  7.5000000000000E-01  1.0137704341808E+00  9.7045245525442E-01
    77  7.6000000000000E-01  9.6657629501559E-01  1.0198910753825E+00
    78  7.7000000000000E-01  9.1830905044979E-01  1.0683562812738E+00
    79  7.8000000000000E-01  8.6908631270082E-01  1.1157759590592E+00
    80  7.9000000000000E-01  8.1902941385475E-01  1.1620757585912E+00
    81  8.0000000000000E-01  7.6826364637456E-01  1.2071773375324E+00
    82  8.1000000000000E-01  7.1691846970406E-01  1.2509966918646E+00
    83  8.2000000000000E-01  6.6512766732152E-01  1.2934426227926E+00
    84  8.3000000000000E-01  6.1302943909537E-01  1.3344153883991E+00
    85  8.4000000000000E-01  5.6076641465434E-01  1.3738055857167E+00
    86  8.5000000000000E-01  5.0848557469660E-01  1.4114933051598E+00
    87  8.6000000000000E-01  4.5633806871107E-01  1.4473475945422E+00
    88  8.7000000000000E-01  4.0447891944513E-01  1.4812262642769E+00
    89  8.8000000000000E-01  3.5306660659758E-01  1.5129760589008E+00
    90  8.9000000000000E-01  3.0226252460544E-01  1.5424332128945E+00
    91  9.0000000000000E-01  2.5223031198762E-01  1.5694244010118E+00
    92  9.1000000000000E-01  2.0313505245843E-01  1.5937680851245E+00
    93  9.2000000000000E-01  1.5514235087917E-01  1.6152762510890E+00
    94  9.3000000000000E-01  1.0841729002060E-01  1.6337565205052E+00
    95  9.4000000000000E-01  6.3123277007132E-02  1.6490146136347E+00
    96  9.5000000000000E-01  1.9420791145342E-02  1.6608571313535E+00
    97  9.6000000000000E-01 -2.2533952451896E-02  1.6690946159857E+00
    98  9.7000000000000E-01 -6.2590406506102E-02  1.6735448433873E+00
    99  9.8000000000000E-01 -1.0060514324656E-01  1.6740362918634E+00
   100  9.9000000000000E-01 -1.3644333287785E-01  1.6704117275658E+00
   101  1.0000000000000E+00 -1.6998022593000E-01  1.6625318410692E+00
   102  1.0100000000000E+00 -2.0110261528030E-01  1.6502788659646E+00
   103  1.0200000000000E+00 -2.2971025274618E-01  1.6335601076640E+00
   104  1.0300000000000E+00 -2.5571719469491E-01  1.6123113092299E+00
   105  1.0400000000000E+00 -2.7905305111779E-01  1.5864997810047E+00
   106  1.0500000000000E+00 -2.9966411308666E-01  1.5561272221378E+00
   107  1.0600000000000E+00 -3.1751433444794E-01  1.5212321647929E+00
   108  1.0700000000000E+00 -3.3258614501211E-01  1.4818919758561E+00
   109  1.0800000000000E+00 -3.4488107434451E-01  1.4382243562970E+00
   110  1.0900000000000E+00 -3.5442016753241E-01  1.3903882848861E+00
   111  1.1000000000000E+00 -3.6124417696852E-01  1.3385843606640E+00
   112  1.1100000000000E+00 -3.6541351719149E-01  1.2830545072248E+00
   113  1.1200000000000E+00 -3.6700797314438E-01  1.2240810114526E+00
   114  1.1300000000000E+00 -3.6612615575242E-01  1.1619848795593E+00
   115  1.1400000000000E+00 -3.6288470247576E-01  1.0971235040904E+00
   116  1.1500000000000E+00 -3.5741722433554E-01  1.0298876466215E+00
   117  1.1600000000000E+00 -3.4987300484078E-01  9.6069775216292E-01
   118  1.1700000000000E+00 -3.4041546011699E-01  8.8999962240895E-01
   119  1.1800000000000E+00 -3.2922037336232E-01  8.1825948592289E-01
   120  1.1900000000000E+00 -3.1647392038302E-01  7.4595851371976E-01
   121  1.2000000000000E+00 -3.0237050639415E-01  6.7358683849780E-01
   122  1.2100000000000E+00 -2.8711043738859E-01  6.0163714463020E-01
   123  1.2200000000000E+00 -2.7089745215536E-01  5.3059790388686E-01
   124  1.2300000000000E+00 -2.5393614340082E-01  4.6094633852767E-01
   125  1.2400000000000E+00 -2.3642929818247E-01  3.9314119796863E-01
   126  1.2500000000000E+00 -2.1857519338089E-01  3.2761545998541E-01
   127  1.2600000000000E+00 -2.0056486805850E-01  2.6476899412667E-01