W     ONCVPSP-4.0.1  r_core=   1.60310   1.60310   1.60310   2.00026
     74.0000     14.0000      250925    zatom,zion,pspd
     8   -1012   3     4   600     0    pspcod,pspxc,lmax,lloc,mmax,r2well
  5.99000000  5.00000000  0.00000000    rchrg fchrg qchrg
     2     2     2     2    nproj
     3     1           extension_switch
     4     3     3    nprojso
   0                         1.2900919682216E+01  1.7642363066907E+00
     1  0.0000000000000E+00  5.5204996129987E-10 -1.6326596741223E-09
     2  1.0000000000000E-02  4.9389685245190E-02 -1.1904079185279E-02
     3  2.0000000000000E-02  9.8765097972518E-02 -2.3860089881504E-02
     4  3.0000000000000E-02  1.4811133187999E-01 -3.5918305513315E-02
     5  4.0000000000000E-02  1.9741222290777E-01 -4.8125710456903E-02
     6  5.0000000000000E-02  2.4664974474212E-01 -6.0524422901825E-02
     7  6.0000000000000E-02  2.9580343317966E-01 -7.3150197394432E-02
     8  7.0000000000000E-02  3.4484984831344E-01 -8.6031031673500E-02
     9  8.0000000000000E-02  3.9376208295008E-01 -9.9185900776053E-02
    10  9.0000000000000E-02  4.4250932499288E-01 -1.1262363939827E-01
    11  1.0000000000000E-01  4.9105648073859E-01 -1.2634199117357E-01
    12  1.1000000000000E-01  5.3936386514769E-01 -1.4032684091355E-01
    13  1.2000000000000E-01  5.8738696417240E-01 -1.5455164298765E-01
    14  1.3000000000000E-01  6.3507627317833E-01 -1.6897705593896E-01
    15  1.4000000000000E-01  6.8237721438894E-01 -1.8355079019457E-01
    16  1.5000000000000E-01  7.2923013513530E-01 -1.9820767237893E-01
    17  1.6000000000000E-01  7.7557038752228E-01 -2.1286992633126E-01
    18  1.7000000000000E-01  8.2132848894470E-01 -2.2744766751610E-01
    19  1.8000000000000E-01  8.6643036172094E-01 -2.4183960415293E-01
    20  1.9000000000000E-01  9.1079764897364E-01 -2.5593393512986E-01
    21  2.0000000000000E-01  9.5434810279550E-01 -2.6960943166015E-01
    22  2.1000000000000E-01  9.9699603970843E-01 -2.8273668673656E-01
    23  2.2000000000000E-01  1.0386528574726E+00 -2.9517951378574E-01
    24  2.3000000000000E-01  1.0792276064417E+00 -3.0679647356435E-01
    25  2.4000000000000E-01  1.1186276079062E+00 -3.1744250631023E-01
    26  2.5000000000000E-01  1.1567591112279E+00 -3.2697064449715E-01
    27  2.6000000000000E-01  1.1935279810563E+00 -3.3523378027069E-01
    28  2.7000000000000E-01  1.2288404055386E+00 -3.4208646078532E-01
    29  2.8000000000000E-01  1.2626036161964E+00 -3.4738668423444E-01
    30  2.9000000000000E-01  1.2947266100448E+00 -3.5099766937579E-01
    31  3.0000000000000E-01  1.3251208645766E+00 -3.5278957180313E-01
    32  3.1000000000000E-01  1.3537010364269E+00 -3.5264112109867E-01
    33  3.2000000000000E-01  1.3803856348612E+00 -3.5044115430412E-01
    34  3.3000000000000E-01  1.4050976616971E+00 -3.4609002285397E-01
    35  3.4000000000000E-01  1.4277652098582E+00 -3.3950085219491E-01
    36  3.5000000000000E-01  1.4483220134709E+00 -3.3060063573849E-01
    37  3.6000000000000E-01  1.4667079432251E+00 -3.1933114752110E-01
    38  3.7000000000000E-01  1.4828694416272E+00 -3.0564966093328E-01
    39  3.8000000000000E-01  1.4967598937559E+00 -2.8952946407943E-01
    40  3.9000000000000E-01  1.5083399301761E+00 -2.7096016568827E-01
    41  4.0000000000000E-01  1.5175776597520E+00 -2.4994778895764E-01
    42  4.1000000000000E-01  1.5244488312145E+00 -2.2651465422670E-01
    43  4.2000000000000E-01  1.5289369234578E+00 -2.0069905486575E-01
    44  4.3000000000000E-01  1.5310331656479E+00 -1.7255473419892E-01
    45  4.4000000000000E-01  1.5307364893029E+00 -1.4215017456972E-01
    46  4.5000000000000E-01  1.5280534155361E+00 -1.0956771276569E-01
    47  4.6000000000000E-01  1.5229978816115E+00 -7.4902498883068E-02
    48  4.7000000000000E-01  1.5155910118463E+00 -3.8261318283502E-02
    49  4.8000000000000E-01  1.5058608386729E+00  2.3870147415156E-04
    50  4.9000000000000E-01  1.4938419803451E+00  4.0471474993575E-02
    51  5.0000000000000E-01  1.4795752823202E+00  8.2303409524773E-02
    52  5.1000000000000E-01  1.4631074297635E+00  1.2559489541521E-01
    53  5.2000000000000E-01  1.4444905388928E+00  1.7020180984786E-01
    54  5.3000000000000E-01  1.4237817350112E+00  2.1597700714086E-01
    55  5.4000000000000E-01  1.4010427250557E+00  2.6277176932251E-01
    56  5.5000000000000E-01  1.3763393723186E+00  3.1043719161542E-01
    57  5.6000000000000E-01  1.3497412806890E+00  3.5882547885223E-01
    58  5.7000000000000E-01  1.3213213953040E+00  4.0779113068286E-01
    59  5.8000000000000E-01  1.2911556259153E+00  4.5719199569148E-01
    60  5.9000000000000E-01  1.2593224985682E+00  5.0689017718389E-01
    61  6.0000000000000E-01  1.2259028403721E+00  5.5675277638934E-01
    62  6.1000000000000E-01  1.1909795012293E+00  6.0665246209580E-01
    63  6.2000000000000E-01  1.1546371153998E+00  6.5646785924663E-01
    64  6.3000000000000E-01  1.1169619047275E+00  7.0608375271053E-01
    65  6.4000000000000E-01  1.0780415242641E+00  7.5539110622872E-01
    66  6.5000000000000E-01  1.0379649499173E+00  8.0428690037692E-01
    67  6.6000000000000E-01  9.9682240664005E-01  8.5267379718347E-01
    68  6.7000000000000E-01  9.5470533459304E-01  9.0045964275058E-01
    69  6.8000000000000E-01  9.1170638966989E-01  9.4755682276060E-01
    70  6.9000000000000E-01  8.6791947380095E-01  9.9388148904777E-01
    71  7.0000000000000E-01  8.2343978955854E-01  1.0393526784118E+00
    72  7.1000000000000E-01  7.7836391280144E-01  1.0838913474827E+00
    73  7.2000000000000E-01  7.3278987643056E-01  1.1274193496607E+00
    74  7.3000000000000E-01  6.8681725779911E-01  1.1698583819040E+00
    75  7.4000000000000E-01  6.4054726194141E-01  1.2111289303754E+00
    76  7.5000000000000E-01  5.9408279256499E-01  1.2511492446600E+00
    77  7.6000000000000E-01  5.4752850269917E-01  1.2898343703983E+00
    78  7.7000000000000E-01  5.0099081701390E-01  1.3270952697370E+00
    79  7.8000000000000E-01  4.5457791811765E-01  1.3628380579717E+00
    80  7.9000000000000E-01  4.0839968961024E-01  1.3969633831528E+00
    81  8.0000000000000E-01  3.6256760930192E-01  1.4293659732667E+00
    82  8.1000000000000E-01  3.1719458680502E-01  1.4599343729081E+00
    83  8.2000000000000E-01  2.7239474064825E-01  1.4885508881732E+00
    84  8.3000000000000E-01  2.2828311114313E-01  1.5150917548691E+00
    85  8.4000000000000E-01  1.8497530642860E-01  1.5394275411079E+00
    86  8.5000000000000E-01  1.4258708041620E-01  1.5614237910018E+00
    87  8.6000000000000E-01  1.0123384273157E-01  1.5809419115631E+00
    88  8.7000000000000E-01  6.1030102175617E-02  1.5978403001303E+00
    89  8.8000000000000E-01  2.2088846685488E-02  1.6119757047497E+00
    90  8.9000000000000E-01 -1.5479135764281E-02  1.6232048050502E+00
    91  9.0000000000000E-01 -5.1565989443280E-02  1.6313859963237E+00
    92  9.1000000000000E-01 -8.6067569065014E-02  1.6363813548673E+00
    93  9.2000000000000E-01 -1.1888425533016E-01  1.6380587582346E+00
    94  9.3000000000000E-01 -1.4992179802965E-01  1.6362941299653E+00
    95  9.4000000000000E-01 -1.7909217584162E-01  1.6309737747024E+00
    96  9.5000000000000E-01 -2.0631446102310E-01  1.6219967664299E+00
    97  9.6000000000000E-01 -2.3151567643329E-01  1.6092773499406E+00
    98  9.7000000000000E-01 -2.5463163174920E-01  1.5927473136342E+00
    99  9.8000000000000E-01 -2.7560772536039E-01  1.5723582903975E+00
   100  9.9000000000000E-01 -2.9439969827039E-01  1.5480839426662E+00
   101  1.0000000000000E+00 -3.1097432639545E-01  1.5199219878476E+00
   102  1.0100000000000E+00 -3.2531003794142E-01  1.4878960210945E+00
   103  1.0200000000000E+00 -3.3739744305881E-01  1.4520570939862E+00
   104  1.0300000000000E+00 -3.4723976371828E-01  1.4124850099600E+00
   105  1.0400000000000E+00 -3.5485315271028E-01  1.3692893003361E+00
   106  1.0500000000000E+00 -3.6026689184053E-01  1.3226098484595E+00
   107  1.0600000000000E+00 -3.6352346075090E-01  1.2726171337666E+00
   108  1.0700000000000E+00 -3.6467846932986E-01  1.2195120724598E+00
   109  1.0800000000000E+00 -3.6380044836054E-01  1.1635254368221E+00
   110  1.0900000000000E+00 -3.6097049486566E-01  1.1049168409709E+00
   111  1.1000000000000E+00 -3.5628177052353E-01  1.0439732869600E+00
   112  1.1100000000000E+00 -3.4983885350726E-01  9.8100727144360E-01
   113  1.1200000000000E+00 -3.4175694612832E-01  9.1635445959864E-01
   114  1.1300000000000E+00 -3.3216094268837E-01  8.5037093945630E-01
   115  1.1400000000000E+00 -3.2118436395567E-01  7.8343007622247E-01
   116  1.1500000000000E+00 -3.0896816662112E-01  7.1591899235391E-01
   117  1.1600000000000E+00 -2.9565943795365E-01  6.4823470510705E-01
   118  1.1700000000000E+00 -2.8140998759993E-01  5.8077995877820E-01
   119  1.1800000000000E+00 -2.6637485006516E-01  5.1395879392244E-01
   120  1.1900000000000E+00 -2.5071071280770E-01  4.4817190027822E-01
   121  1.2000000000000E+00 -2.3457428608597E-01  3.8381180394906E-01
   122  1.2100000000000E+00 -2.1812063166656E-01  3.2125794246163E-01
   123  1.2200000000000E+00 -2.0150146823405E-01  2.6087168361563E-01
   124  1.2300000000000E+00 -1.8486347181411E-01  2.0299134550108E-01
   125  1.2400000000000E+00 -1.6834658958863E-01  1.4792727501181E-01
   126  1.2500000000000E+00 -1.5208238909815E-01  9.5957059704518E-02
   127  1.2600000000000E+00 -1.3619245111033E-01  4.7320881993138E-02
   128  1.2700000000000E+00 -1.2078763290894E-01  2.2209531373259E-03
   129  1.2800000000000E+00 -1.0596877327673E-01 -3.9172668123894E-02
   130  1.2900000000000E+00 -9.1826437961269E-02 -7.6721647610494E-02
   131  1.3000000000000E+00 -7.8440215292245E-02 -1.1032141748632E-01
   132  1.3100000000000E+00 -6.5878147186761E-02 -1.3990276858941E-01
   133  1.3200000000000E+00 -5.4196293229720E-02 -1.6543302035813E-01
   134  1.3300000000000E+00 -4.3438437283237E-02 -1.8691673429530E-01
   135  1.3400000000000E+00 -3.3635942009833E-02 -2.0439595374405E-01
   136  1.3500000000000E+00 -2.4807754676945E-02 -2.1794995927314E-01
   137  1.3600000000000E+00 -1.6960565485140E-02 -2.2769453588583E-01
   138  1.3700000000000E+00 -1.0089117508023E-02 -2.3378075527652E-01
   139  1.3800000000000E+00 -4.1766651498880E-03 -2.3639328345799E-01
   140  1.3900000000000E+00  8.0442410916033E-04 -2.3574823102986E-01
   141  1.4000000000000E+00  4.8919320050011E-03 -2.3209057016733E-01
   142  1.4100000000000E+00  8.1329251341187E-03 -2.2569114888277E-01
   143  1.4200000000000E+00  1.0582775152406E-02 -2.1684333923796E-01
   144  1.4300000000000E+00  1.2304076453067E-02 -2.0585936178249E-01
   145  1.4400000000000E+00  1.3365475799909E-02 -1.9306633352859E-01
   146  1.4500000000000E+00  1.3840429742613E-02 -1.7880209115253E-01
   147  1.4600000000000E+00  1.3805906765808E-02 -1.6341084475748E-01
   148  1.4700000000000E+00  1.3341052009445E-02 -1.4723872039823E-01
   149  1.4800000000000E+00  1.2525833027863E-02 -1.3062925159895E-01
   150  1.4900000000000E+00  1.1439685416105E-02 -1.1391888125161E-01
   151  1.5000000000000E+00  1.0160178450696E-02 -9.7432538841979E-02
   152  1.5100000000000E+00  8.7617108066544E-03 -8.1479330848060E-02
   153  1.5200000000000E+00  7.3142922985238E-03 -6.6348506059495E-02
   154  1.5300000000000E+00  5.8799956492922E-03 -5.2299221430710E-02
   155  1.5400000000000E+00  4.5116912769889E-03 -3.9556249202154E-02
   156  1.5500000000000E+00  3.2626977675222E-03 -2.8335406850471E-02
   157  1.5600000000000E+00  2.1774951830543E-03 -1.8818559766397E-02
   158  1.5700000000000E+00  1.2907931412916E-03 -1.1150615659973E-02
   159  1.5800000000000E+00  6.2716090613430E-04 -5.4396128678175E-03
   160  1.5900000000000E+00  1.9807580044846E-04 -1.7324058557089E-03
   161  1.6000000000000E+00  1.5925626015220E-05 -1.4124547691085E-04
   162  1.6100000000000E+00 -3.0572896896481E-06  2.7282053314226E-05
   163  1.6200000000000E+00  9.8376804944552E-07 -8.7080141223897E-06
   164  1.63  0.  0.
   165  1.64  0.  0.
   166  1.65  0.  0.
   167  1.66  0.  0.
   168  1.67  0.  0.
   169  1.68  0.  0.
   170  1.69  0.  0.
   171  1.70  0.  0.
   172  1.71  0.  0.
   173  1.72  0.  0.
   174  1.73  0.  0.
   175  1.74  0.  0.
   176  1.75  0.  0.
   177  1.76  0.  0.
   178  1.77  0.  0.
   179  1.78  0.  0.
   180  1.79  0.  0.
   181  1.80  0.  0.
   182  1.81  0.  0.
   183  1.82  0.  0.
   184  1.83  0.  0.
   185  1.84  0.  0.
   186  1.85  0.  0.
   187  1.86  0.  0.
   188  1.87  0.  0.
   189  1.88  0.  0.
   190  1.89  0.  0.
   191  1.90  0.  0.
   192  1.91  0.  0.
   193  1.92  0.  0.
   194  1.93  0.  0.
   195  1.94  0.  0.
   196  1.95  0.  0.
   197  1.96  0.  0.
   198  1.97  0.  0.
   199  1.98  0.  0.
   200  1.99  0.  0.
   201  2.00  0.  0.
   202  2.01  0.  0.
   203  2.02  0.  0.
   204  2.03  0.  0.
   205  2.04  0.  0.
   206  2.05  0.  0.
   207  2.06  0.  0.
   208  2.07  0.  0.
   209  2.08  0.  0.
   210  2.09  0.  0.
   211  2.10  0.  0.
   212  2.11  0.  0.
   213  2.12  0.  0.
   214  2.13  0.  0.
   215  2.14  0.  0.
   216  2.15  0.  0.
   217  2.16  0.  0.
   218  2.17  0.  0.
   219  2.18  0.  0.
   220  2.19  0.  0.
   221  2.20  0.  0.
   222  2.21  0.  0.
   223  2.22  0.  0.
   224  2.23  0.  0.
   225  2.24  0.  0.
   226  2.25  0.  0.
   227  2.26  0.  0.
   228  2.27  0.  0.
   229  2.28  0.  0.
   230  2.29  0.  0.
   231  2.30  0.  0.
   232  2.31  0.  0.
   233  2.32  0.  0.
   234  2.33  0.  0.
   235  2.34  0.  0.
   236  2.35  0.  0.
   237  2.36  0.  0.
   238  2.37  0.  0.
   239  2.38  0.  0.
   240  2.39  0.  0.
   241  2.40  0.  0.
   242  2.41  0.  0.
   243  2.42  0.  0.
   244  2.43  0.  0.
   245  2.44  0.  0.
   246  2.45  0.  0.
   247  2.46  0.  0.
   248  2.47  0.  0.
   249  2.48  0.  0.
   250  2.49  0.  0.
   251  2.50  0.  0.
   252  2.51  0.  0.
   253  2.52  0.  0.
   254  2.53  0.  0.
   255  2.54  0.  0.
   256  2.55  0.  0.
   257  2.56  0.  0.
   258  2.57  0.  0.
   259  2.58  0.  0.
   260  2.59  0.  0.
   261  2.60  0.  0.
   262  2.61  0.  0.
   263  2.62  0.  0.
   264  2.63  0.  0.
   265  2.64  0.  0.
   266  2.65  0.  0.
   267  2.66  0.  0.
   268  2.67  0.  0.
   269  2.68  0.  0.
   270  2.69  0.  0.
   271  2.70  0.  0.
   272  2.71  0.  0.
   273  2.72  0.  0.
   274  2.73  0.  0.
   275  2.74  0.  0.
   276  2.75  0.  0.
   277  2.76  0.  0.
   278  2.77  0.  0.
   279  2.78  0.  0.
   280  2.79  0.  0.
   281  2.80  0.  0.
   282  2.81  0.  0.
   283  2.82  0.  0.
   284  2.83  0.  0.
   285  2.84  0.  0.
   286  2.85  0.  0.
   287  2.86  0.  0.
   288  2.87  0.  0.
   289  2.88  0.  0.
   290  2.89  0.  0.
   291  2.90  0.  0.
   292  2.91  0.  0.
   293  2.92  0.  0.
   294  2.93  0.  0.
   295  2.94  0.  0.
   296  2.95  0.  0.
   297  2.96  0.  0.
   298  2.97  0.  0.
   299  2.98  0.  0.
   300  2.99  0.  0.
   301  3.00  0.  0.
   302  3.01  0.  0.
   303  3.02  0.  0.
   304  3.03  0.  0.
   305  3.04  0.  0.
   306  3.05  0.  0.
   307  3.06  0.  0.
   308  3.07  0.  0.
   309  3.08  0.  0.
   310  3.09  0.  0.
   311  3.10  0.  0.
   312  3.11  0.  0.
   313  3.12  0.  0.
   314  3.13  0.  0.
   315  3.14  0.  0.
   316  3.15  0.  0.
   317  3.16  0.  0.
   318  3.17  0.  0.
   319  3.18  0.  0.
   320  3.19  0.  0.
   321  3.20  0.  0.
   322  3.21  0.  0.
   323  3.22  0.  0.
   324  3.23  0.  0.
   325  3.24  0.  0.
   326  3.25  0.  0.
   327  3.26  0.  0.
   328  3.27  0.  0.
   329  3.28  0.  0.
   330  3.29  0.  0.
   331  3.30  0.  0.
   332  3.31  0.  0.
   333  3.32  0.  0.
   334  3.33  0.  0.
   335  3.34  0.  0.
   336  3.35  0.  0.
   337  3.36  0.  0.
   338  3.37  0.  0.
   339  3.38  0.  0.
   340  3.39  0.  0.
   341  3.40  0.  0.
   342  3.41  0.  0.
   343  3.42  0.  0.
   344  3.43  0.  0.
   345  3.44  0.  0.
   346  3.45  0.  0.
   347  3.46  0.  0.
   348  3.47  0.  0.
   349  3.48  0.  0.
   350  3.49  0.  0.
   351  3.50  0.  0.
   352  3.51  0.  0.
   353  3.52  0.  0.
   354  3.53  0.  0.
   355  3.54  0.  0.
   356  3.55  0.  0.
   357  3.56  0.  0.
   358  3.57  0.  0.
   359  3.58  0.  0.
   360  3.59  0.  0.
   361  3.60  0.  0.
   362  3.61  0.  0.
   363  3.62  0.  0.
   364  3.63  0.  0.
   365  3.64  0.  0.
   366  3.65  0.  0.
   367  3.66  0.  0.
   368  3.67  0.  0.
   369  3.68  0.  0.
   370  3.69  0.  0.
   371  3.70  0.  0.
   372  3.71  0.  0.
   373  3.72  0.  0.
   374  3.73  0.  0.
   375  3.74  0.  0.
   376  3.75  0.  0.
   377  3.76  0.  0.
   378  3.77  0.  0.
   379  3.78  0.  0.
   380  3.79  0.  0.
   381  3.80  0.  0.
   382  3.81  0.  0.
   383  3.82  0.  0.
   384  3.83  0.  0.
   385  3.84  0.  0.
   386  3.85  0.  0.
   387  3.86  0.  0.
   388  3.87  0.  0.
   389  3.88  0.  0.
   390  3.89  0.  0.
   391  3.90  0.  0.
   392  3.91  0.  0.
   393  3.92  0.  0.
   394  3.93  0.  0.
   395  3.94  0.  0.
   396  3.95  0.  0.
   397  3.96  0.  0.
   398  3.97  0.  0.
   399  3.98  0.  0.
   400  3.99  0.  0.
   401  4.00  0.  0.
   402  4.01  0.  0.
   403  4.02  0.  0.
   404  4.03  0.  0.
   405  4.04  0.  0.
   406  4.05  0.  0.
   407  4.06  0.  0.
   408  4.07  0.  0.
   409  4.08  0.  0.
   410  4.09  0.  0.
   411  4.10  0.  0.
   412  4.11  0.  0.
   413  4.12  0.  0.
   414  4.13  0.  0.
   415  4.14  0.  0.
   416  4.15  0.  0.
   417  4.16  0.  0.
   418  4.17  0.  0.
   419  4.18  0.  0.
   420  4.19  0.  0.
   421  4.20  0.  0.
   422  4.21  0.  0.
   423  4.22  0.  0.
   424  4.23  0.  0.
   425  4.24  0.  0.
   426  4.25  0.  0.
   427  4.26  0.  0.
   428  4.27  0.  0.
   429  4.28  0.  0.
   430  4.29  0.  0.
   431  4.30  0.  0.
   432  4.31  0.  0.
   433  4.32  0.  0.
   434  4.33  0.  0.
   435  4.34  0.  0.
   436  4.35  0.  0.
   437  4.36  0.  0.
   438  4.37  0.  0.
   439  4.38  0.  0.
   440  4.39  0.  0.
   441  4.40  0.  0.
   442  4.41  0.  0.
   443  4.42  0.  0.
   444  4.43  0.  0.
   445  4.44  0.  0.
   446  4.45  0.  0.
   447  4.46  0.  0.
   448  4.47  0.  0.
   449  4.48  0.  0.
   450  4.49  0.  0.
   451  4.50  0.  0.
   452  4.51  0.  0.
   453  4.52  0.  0.
   454  4.53  0.  0.
   455  4.54  0.  0.
   456  4.55  0.  0.
   457  4.56  0.  0.
   458  4.57  0.  0.
   459  4.58  0.  0.
   460  4.59  0.  0.
   461  4.60  0.  0.
   462  4.61  0.  0.
   463  4.62  0.  0.
   464  4.63  0.  0.
   465  4.64  0.  0.
   466  4.65  0.  0.
   467  4.66  0.  0.
   468  4.67  0.  0.
   469  4.68  0.  0.
   470  4.69  0.  0.
   471  4.70  0.  0.
   472  4.71  0.  0.
   473  4.72  0.  0.
   474  4.73  0.  0.
   475  4.74  0.  0.
   476  4.75  0.  0.
   477  4.76  0.  0.
   478  4.77  0.  0.
   479  4.78  0.  0.
   480  4.79  0.  0.
   481  4.80  0.  0.
   482  4.81  0.  0.
   483  4.82  0.  0.
   484  4.83  0.  0.
   485  4.84  0.  0.
   486  4.85  0.  0.
   487  4.86  0.  0.
   488  4.87  0.  0.
   489  4.88  0.  0.
   490  4.89  0.  0.
   491  4.90  0.  0.
   492  4.91  0.  0.
   493  4.92  0.  0.
   494  4.93  0.  0.
   495  4.94  0.  0.
   496  4.95  0.  0.
   497  4.96  0.  0.
   498  4.97  0.  0.
   499  4.98  0.  0.
   500  4.99  0.  0.
   501  5.00  0.  0.
   502  5.01  0.  0.
   503  5.02  0.  0.
   504  5.03  0.  0.
   505  5.04  0.  0.
   506  5.05  0.  0.
   507  5.06  0.  0.
   508  5.07  0.  0.
   509  5.08  0.  0.
   510  5.09  0.  0.
   511  5.10  0.  0.
   512  5.11  0.  0.
   513  5.12  0.  0.
   514  5.13  0.  0.
   515  5.14  0.  0.
   516  5.15  0.  0.
   517  5.16  0.  0.
   518  5.17  0.  0.
   519  5.18  0.  0.
   520  5.19  0.  0.
   521  5.20  0.  0.
   522  5.21  0.  0.
   523  5.22  0.  0.
   524  5.23  0.  0.
   525  5.24  0.  0.
   526  5.25  0.  0.
   527  5.26  0.  0.
   528  5.27  0.  0.
   529  5.28  0.  0.
   530  5.29  0.  0.
   531  5.30  0.  0.
   532  5.31  0.  0.
   533  5.32  0.  0.
   534  5.33  0.  0.
   535  5.34  0.  0.
   536  5.35  0.  0.
   537  5.36  0.  0.
   538  5.37  0.  0.
   539  5.38  0.  0.
   540  5.39  0.  0.
   541  5.40  0.  0.
   542  5.41  0.  0.
   543  5.42  0.  0.
   544  5.43  0.  0.
   545  5.44  0.  0.
   546  5.45  0.  0.
   547  5.46  0.  0.
   548  5.47  0.  0.
   549  5.48  0.  0.
   550  5.49  0.  0.
   551  5.50  0.  0.
   552  5.51  0.  0.
   553  5.52  0.  0.
   554  5.53  0.  0.
   555  5.54  0.  0.
   556  5.55  0.  0.
   557  5.56  0.  0.
   558  5.57  0.  0.
   559  5.58  0.  0.
   560  5.59  0.  0.
   561  5.60  0.  0.
   562  5.61  0.  0.
   563  5.62  0.  0.
   564  5.63  0.  0.
   565  5.64  0.  0.
   566  5.65  0.  0.
   567  5.66  0.  0.
   568  5.67  0.  0.
   569  5.68  0.  0.
   570  5.69  0.  0.
   571  5.70  0.  0.
   572  5.71  0.  0.
   573  5.72  0.  0.
   574  5.73  0.  0.
   575  5.74  0.  0.
   576  5.75  0.  0.
   577  5.76  0.  0.
   578  5.77  0.  0.
   579  5.78  0.  0.
   580  5.79  0.  0.
   581  5.80  0.  0.
   582  5.81  0.  0.
   583  5.82  0.  0.
   584  5.83  0.  0.
   585  5.84  0.  0.
   586  5.85  0.  0.
   587  5.86  0.  0.
   588  5.87  0.  0.
   589  5.88  0.  0.
   590  5.89  0.  0.
   591  5.90  0.  0.
   592  5.91  0.  0.
   593  5.92  0.  0.
   594  5.93  0.  0.
   595  5.94  0.  0.
   596  5.95  0.  0.
   597  5.96  0.  0.
   598  5.97  0.  0.
   599  5.98  0.  0.
   600  5.99  0.  0.
   1                         9.0249490375502E+00  1.3848003467061E+00
     1  0.0000000000000E+00 -1.3869323467475E-09  3.7056338483832E-09
     2  1.0000000000000E-02  1.2074276927662E-03 -5.1505143742649E-04
     3  2.0000000000000E-02  4.8276275029053E-03 -2.0610252471413E-03
     4  3.0000000000000E-02  1.0854319026305E-02 -4.6402879572336E-03
     5  4.0000000000000E-02  1.9276933745574E-02 -8.2564794360067E-03
     6  5.0000000000000E-02  3.0080466123446E-02 -1.2914064037482E-02
     7  6.0000000000000E-02  4.3245270793257E-02 -1.8617717371377E-02
     8  7.0000000000000E-02  5.8746811370229E-02 -2.5371563493013E-02
     9  8.0000000000000E-02  7.6555367794258E-02 -3.3178281014203E-02
    10  9.0000000000000E-02  9.6635710363164E-02 -4.2038099963964E-02
    11  1.0000000000000E-01  1.1894674969976E-01 -5.1947714109410E-02
    12  1.1000000000000E-01  1.4344117279413E-01 -6.2899135821514E-02
    13  1.2000000000000E-01  1.7006507595538E-01 -7.4878522387175E-02
    14  1.3000000000000E-01  1.9875760597994E-01 -8.7865003888350E-02
    15  1.4000000000000E-01  2.2945062108523E-01 -1.0182954336196E-01
    16  1.5000000000000E-01  2.6206838316220E-01 -1.1673385990545E-01
    17  1.6000000000000E-01  2.9652729266516E-01 -1.3252944469743E-01
    18  1.7000000000000E-01  3.3273567698624E-01 -1.4915669857081E-01
    19  1.8000000000000E-01  3.7059364246084E-01 -1.6654421782752E-01
    20  1.9000000000000E-01  4.0999299923193E-01 -1.8460825245403E-01
    21  2.0000000000000E-01  4.5081726708107E-01 -2.0325235783002E-01
    22  2.1000000000000E-01  4.9294176903130E-01 -2.2236725747547E-01
    23  2.2000000000000E-01  5.3623381806714E-01 -2.4183093041985E-01
    24  2.3000000000000E-01  5.8055300072418E-01 -2.6150893247639E-01
    25  2.4000000000000E-01  6.2575155960667E-01 -2.8125495614643E-01
    26  2.5000000000000E-01  6.7167487512683E-01 -3.0091162915161E-01
    27  2.6000000000000E-01  7.1816204495743E-01 -3.2031154678819E-01
    28  2.7000000000000E-01  7.6504655788446E-01 -3.3927852851158E-01
    29  2.8000000000000E-01  8.1215705697391E-01 -3.5762908448703E-01
    30  2.9000000000000E-01  8.5931818525983E-01 -3.7517407337776E-01
    31  3.0000000000000E-01  9.0635150555378E-01 -3.9172052847611E-01
    32  3.1000000000000E-01  9.5307648450038E-01 -4.0707362550321E-01
    33  3.2000000000000E-01  9.9931152968939E-01 -4.2103876208819E-01
    34  3.3000000000000E-01  1.0448750675081E+00 -4.3342371616074E-01
    35  3.4000000000000E-01  1.0895866485040E+00 -4.4404084831321E-01
    36  3.5000000000000E-01  1.1332680663423E+00 -4.5270931166164E-01
    37  3.6000000000000E-01  1.1757444760093E+00 -4.5925723189840E-01
    38  3.7000000000000E-01  1.2168454967292E+00 -4.6352382010803E-01
    39  3.8000000000000E-01  1.2564062851498E+00 -4.6536138152568E-01
    40  3.9000000000000E-01  1.2942685646994E+00 -4.6463718475144E-01
    41  4.0000000000000E-01  1.3302815976264E+00 -4.6123515797868E-01
    42  4.1000000000000E-01  1.3643030870954E+00 -4.5505738151883E-01
    43  4.2000000000000E-01  1.3961999978068E+00 -4.4602534926615E-01
    44  4.3000000000000E-01  1.4258492849288E+00 -4.3408097568478E-01
    45  4.4000000000000E-01  1.4531385226341E+00 -4.1918732934858E-01
    46  4.5000000000000E-01  1.4779664252166E+00 -4.0132907894084E-01
    47  4.6000000000000E-01  1.5002432555744E+00 -3.8051264283462E-01
    48  4.7000000000000E-01  1.5198911177625E+00 -3.5676603882811E-01
    49  4.8000000000000E-01  1.5368441323001E+00 -3.3013843619757E-01
    50  4.9000000000000E-01  1.5510484949294E+00 -3.0069941784380E-01
    51  5.0000000000000E-01  1.5624624215165E+00 -2.6853796583601E-01
    52  5.1000000000000E-01  1.5710559837395E+00 -2.3376118898842E-01
    53  5.2000000000000E-01  1.5768108420598E+00 -1.9649281612927E-01
    54  5.3000000000000E-01  1.5797198842103E+00 -1.5687148333609E-01
    55  5.4000000000000E-01  1.5797867789976E+00 -1.1504884751618E-01
    56  5.5000000000000E-01  1.5770254565929E+00 -7.1187562215718E-02
    57  5.6000000000000E-01  1.5714595276329E+00 -2.5459154369245E-02
    58  5.7000000000000E-01  1.5631216543526E+00  2.1958157218342E-02
    59  5.8000000000000E-01  1.5520528876036E+00  7.0881659581749E-02
    60  5.9000000000000E-01  1.5383019839550E+00  1.2112631697692E-01
    61  6.0000000000000E-01  1.5219247171253E+00  1.7250687382732E-01
    62  6.1000000000000E-01  1.5029831977480E+00  2.2483984840650E-01
    63  6.2000000000000E-01  1.4815452149281E+00  2.7794537855916E-01
    64  6.3000000000000E-01  1.4576836122153E+00  3.3164888371691E-01
    65  6.4000000000000E-01  1.4314757095159E+00  3.8578251119494E-01
    66  6.5000000000000E-01  1.4030027811055E+00  4.4018633920025E-01
    67  6.6000000000000E-01  1.3723495983164E+00  4.9470931406043E-01
    68  6.7000000000000E-01  1.3396040436907E+00  5.4920990480363E-01
    69  6.8000000000000E-01  1.3048568014401E+00  6.0355646427797E-01
    70  6.9000000000000E-01  1.2682011269844E+00  6.5762729237701E-01
    71  7.0000000000000E-01  1.2297326961871E+00  7.1131040351163E-01
    72  7.1000000000000E-01  1.1895495327160E+00  7.6450300710649E-01
    73  7.2000000000000E-01  1.1477520097797E+00  8.1711071646523E-01
    74  7.3000000000000E-01  1.1044429203638E+00  8.6904650770847E-01
    75  7.4000000000000E-01  1.0597276080710E+00  9.2022945650350E-01
    76  7.5000000000000E-01  1.0137141487967E+00  9.7058328584840E-01
    77  7.6000000000000E-01  9.6651357178720E-01  1.0200347631184E+00
    78  7.7000000000000E-01  9.1824010717681E-01  1.0685119888160E+00
    79  7.8000000000000E-01  8.6901144591657E-01  1.1159426228872E+00
    80  7.9000000000000E-01  8.1894899711778E-01  1.1622520969828E+00
    81  8.0000000000000E-01  7.6817812727234E-01  1.2073618625911E+00
    82  8.1000000000000E-01  7.1682836559111E-01  1.2511877254829E+00
    83  8.2000000000000E-01  6.6503355983746E-01  1.2936383163688E+00
    84  8.3000000000000E-01  6.1293196753189E-01  1.3346137460493E+00
    85  8.4000000000000E-01  5.6066626826226E-01  1.3740044906549E+00
    86  8.5000000000000E-01  5.0838348404524E-01  1.4116905488501E+00
    87  8.6000000000000E-01  4.5623479623142E-01  1.4475409081698E+00
    88  8.7000000000000E-01  4.0437524930568E-01  1.4814133520294E+00
    89  8.8000000000000E-01  3.5296333407624E-01  1.5131546325078E+00
    90  8.9000000000000E-01  3.0216044513309E-01  1.5426010268391E+00
    91  9.0000000000000E-01  2.5213021004767E-01  1.5695792878009E+00
    92  9.1000000000000E-01  2.0303769053236E-01  1.5939079899940E+00
    93  9.2000000000000E-01  1.5504845863005E-01  1.6153992655159E+00
    94  9.3000000000000E-01  1.0832755390557E-01  1.6338609139073E+00
    95  9.4000000000000E-01  6.3038330504239E-02  1.6490988626645E+00
    96  9.5000000000000E-01  1.9341205772098E-02  1.6609199462189E+00
    97  9.6000000000000E-01 -2.2607675163121E-02  1.6691349632811E+00
    98  9.7000000000000E-01 -6.2657841925942E-02  1.6735619649694E+00
    99  9.8000000000000E-01 -1.0066594932822E-01  1.6740297193711E+00
   100  9.9000000000000E-01 -1.3649725448777E-01  1.6703812922590E+00
   101  1.0000000000000E+00 -1.7002709774252E-01  1.6624776787381E+00
   102  1.0100000000000E+00 -2.0114236317459E-01  1.6502014167526E+00
   103  1.0200000000000E+00 -2.2974289367066E-01  1.6334601107343E+00
   104  1.0300000000000E+00 -2.5574283499234E-01  1.6121897923032E+00
   105  1.0400000000000E+00 -2.7907188333260E-01  1.5863580448897E+00
   106  1.0500000000000E+00 -2.9967641130480E-01  1.5559668204710E+00
   107  1.0600000000000E+00 -3.1752044824721E-01  1.5210548792973E+00
   108  1.0700000000000E+00 -3.3258649212797E-01  1.4816997875171E+00
   109  1.0800000000000E+00 -3.4487613218154E-01  1.4380194129358E+00
   110  1.0900000000000E+00 -3.5441046367473E-01  1.3901728656859E+00
   111  1.1000000000000E+00 -3.6123027886317E-01  1.3383608382729E+00
   112  1.1100000000000E+00 -3.6539602119627E-01  1.2828253081117E+00
   113  1.1200000000000E+00 -3.6698749314588E-01  1.2238485752389E+00
   114  1.1300000000000E+00 -3.6610331157058E-01  1.1617516180817E+00
   115  1.1400000000000E+00 -3.6286010827802E-01  1.0968917609666E+00
   116  1.1500000000000E+00 -3.5739147728591E-01  1.0296596580960E+00
   117  1.1600000000000E+00 -3.4984667420784E-01  9.6047561000286E-01
   118  1.1700000000000E+00 -3.4038907705878E-01  8.8978523959205E-01
   119  1.1800000000000E+00 -3.2919442159596E-01  8.1805456582675E-01
   120  1.1900000000000E+00 -3.1644882793310E-01  7.4576452346759E-01
   121  1.2000000000000E+00 -3.0234663859576E-01  6.7340498705393E-01
   122  1.2100000000000E+00 -2.8708809129970E-01  6.0146836616309E-01
   123  1.2200000000000E+00 -2.7087685250854E-01  5.3044284683190E-01
   124  1.2300000000000E+00 -2.5391744019702E-01  4.6080536068786E-01
   125  1.2400000000000E+00 -2.3641256599996E-01  3.9301436788949E-01
   126  1.2500000000000E+00 -2.1856043244164E-01  3.2750256473166E-01
   127  1.2600000000000E+00 -2.0055200706036E-01  2.6466955348157E-01