W     ONCVPSP-4.0.1  r_core=   1.60310   1.60310   1.60310   2.00026
     74.0000     14.0000      231019    zatom,zion,pspd
     8       2   3     4   600     0    pspcod,pspxc,lmax,lloc,mmax,r2well
  5.99000000  5.00000000  0.00000000    rchrg fchrg qchrg
     2     2     2     2     0    nproj
     1     1           extension_switch
   0                         1.2891107422547E+01  1.7673699064954E+00
     1  0.0000000000000E+00  5.5398186038502E-10 -1.6370552552436E-09
     2  1.0000000000000E-02  4.9499968721011E-02 -1.1914025353025E-02
     3  2.0000000000000E-02  9.8985256078339E-02 -2.3879757622578E-02
     4  3.0000000000000E-02  1.4844054715982E-01 -3.5947244292393E-02
     5  4.0000000000000E-02  1.9784926979049E-01 -4.8163241162357E-02
     6  5.0000000000000E-02  2.4719299034274E-01 -6.0569634035475E-02
     7  6.0000000000000E-02  2.9645083847605E-01 -7.3201940254689E-02
     8  7.0000000000000E-02  3.4559896978824E-01 -8.6087914751113E-02
     9  8.0000000000000E-02  3.9461007480655E-01 -9.9246283628167E-02
    10  9.0000000000000E-02  4.4345294206974E-01 -1.1268562630789E-01
    11  1.0000000000000E-01  4.9209208226262E-01 -1.2640342493659E-01
    12  1.1000000000000E-01  5.4048741947349E-01 -1.4038529712390E-01
    13  1.2000000000000E-01  5.8859405466613E-01 -1.5460442521166E-01
    14  1.3000000000000E-01  6.3636210540566E-01 -1.6902119218286E-01
    15  1.4000000000000E-01  6.8373662476762E-01 -1.8358303107318E-01
    16  1.5000000000000E-01  7.3065760120869E-01 -1.9822449138896E-01
    17  1.6000000000000E-01  7.7706004000238E-01 -2.1286752261977E-01
    18  1.7000000000000E-01  8.2287412566164E-01 -2.2742197151230E-01
    19  1.8000000000000E-01  8.6802546360017E-01 -2.4178628640099E-01
    20  1.9000000000000E-01  9.1243539814339E-01 -2.5584841862212E-01
    21  2.0000000000000E-01  9.5602140290432E-01 -2.6948690792341E-01
    22  2.1000000000000E-01  9.9869753850740E-01 -2.8257213587077E-01
    23  2.2000000000000E-01  1.0403749716884E+00 -2.9496772859525E-01
    24  2.3000000000000E-01  1.0809625489363E+00 -3.0653208785649E-01
    25  2.4000000000000E-01  1.1203674170868E+00 -3.1712002736689E-01
    26  2.5000000000000E-01  1.1584956826368E+00 -3.2658448965257E-01
    27  2.6000000000000E-01  1.1952531010351E+00 -3.3477831745400E-01
    28  2.7000000000000E-01  1.2305457868289E+00 -3.4155605281075E-01
    29  2.8000000000000E-01  1.2642809353009E+00 -3.4677573654740E-01
    30  2.9000000000000E-01  1.2963675461419E+00 -3.5030068088908E-01
    31  3.0000000000000E-01  1.3267171397491E+00 -3.5200118838782E-01
    32  3.1000000000000E-01  1.3552444569339E+00 -3.5175619122735E-01
    33  3.2000000000000E-01  1.3818681331561E+00 -3.4945478628395E-01
    34  3.3000000000000E-01  1.4065113388689E+00 -3.4499764303268E-01
    35  3.4000000000000E-01  1.4291023781548E+00 -3.3829826347645E-01
    36  3.5000000000000E-01  1.4495752385427E+00 -3.2928407570725E-01
    37  3.6000000000000E-01  1.4678700857183E+00 -3.1789734544547E-01
    38  3.7000000000000E-01  1.4839336977451E+00 -3.0409589290109E-01
    39  3.8000000000000E-01  1.4977198344078E+00 -2.8785360551070E-01
    40  3.9000000000000E-01  1.5091895383307E+00 -2.6916074047450E-01
    41  4.0000000000000E-01  1.5183113656249E+00 -2.4802401449228E-01
    42  4.1000000000000E-01  1.5250615449282E+00 -2.2446648161834E-01
    43  4.2000000000000E-01  1.5294240648334E+00 -1.9852720366360E-01
    44  4.3000000000000E-01  1.5313906908096E+00 -1.7026072100952E-01
    45  4.4000000000000E-01  1.5309609138040E+00 -1.3973633500362E-01
    46  4.5000000000000E-01  1.5281418337486E+00 -1.0703721622235E-01
    47  4.6000000000000E-01  1.5229479821585E+00 -7.2259355761257E-02
    48  4.7000000000000E-01  1.5154010888942E+00 -3.5510379290853E-02
    49  4.8000000000000E-01  1.5055297989469E+00  3.0917541447433E-03
    50  4.9000000000000E-01  1.4933693457755E+00  4.3420144753905E-02
    51  5.0000000000000E-01  1.4789611882767E+00  8.5340410777343E-02
    52  5.1000000000000E-01  1.4623526188811E+00  1.2871218715859E-01
    53  5.2000000000000E-01  1.4435963505468E+00  1.7339063731745E-01
    54  5.3000000000000E-01  1.4227500905451E+00  2.1922795119365E-01
    55  5.4000000000000E-01  1.3998761089163E+00  2.6607480316984E-01
    56  5.5000000000000E-01  1.3750408092997E+00  3.1378174440614E-01
    57  5.6000000000000E-01  1.3483143095301E+00  3.6220050551238E-01
    58  5.7000000000000E-01  1.3197700389316E+00  4.1118518732879E-01
    59  5.8000000000000E-01  1.2894843586538E+00  4.6059331985206E-01
    60  5.9000000000000E-01  1.2575362106811E+00  5.1028677199580E-01
    61  6.0000000000000E-01  1.2240068003226E+00  5.6013249786851E-01
    62  6.1000000000000E-01  1.1889793160756E+00  6.1000310853910E-01
    63  6.2000000000000E-01  1.1525386897557E+00  6.5977726178163E-01
    64  6.3000000000000E-01  1.1147713987341E+00  7.0933986598788E-01
    65  6.4000000000000E-01  1.0757653110235E+00  7.5858209824317E-01
    66  6.5000000000000E-01  1.0356095728386E+00  8.0740124040760E-01
    67  6.6000000000000E-01  9.9439453714229E-01  8.5570034086414E-01
    68  6.7000000000000E-01  9.5221173059650E-01  9.0338771331338E-01
    69  6.8000000000000E-01  9.0915385528943E-01  9.5037628754450E-01
    70  6.9000000000000E-01  8.6531482062899E-01  9.9658283042322E-01
    71  7.0000000000000E-01  8.2078979989661E-01  1.0419270583455E+00
    72  7.1000000000000E-01  7.7567530516343E-01  1.0863306650502E+00
    73  7.2000000000000E-01  7.3006927360205E-01  1.1297162909091E+00
    74  7.3000000000000E-01  6.8407115769354E-01  1.1720064615684E+00
    75  7.4000000000000E-01  6.3778201144780E-01  1.2131225250633E+00
    76  7.5000000000000E-01  5.9130456453330E-01  1.2529836172329E+00
    77  7.6000000000000E-01  5.4474327615902E-01  1.2915056853980E+00
    78  7.7000000000000E-01  4.9820436067160E-01  1.3286005998252E+00
    79  7.8000000000000E-01  4.5179577712540E-01  1.3641753814718E+00
    80  7.9000000000000E-01  4.0562717555153E-01  1.3981315729024E+00
    81  8.0000000000000E-01  3.5980979328882E-01  1.4303647771023E+00
    82  8.1000000000000E-01  3.1445629553722E-01  1.4607643862157E+00
    83  8.2000000000000E-01  2.6968055524165E-01  1.4892135190372E+00
    84  8.3000000000000E-01  2.2559736849682E-01  1.5155891824493E+00
    85  8.4000000000000E-01  1.8232210286573E-01  1.5397626679524E+00
    86  8.5000000000000E-01  1.3997027730542E-01  1.5616001900783E+00
    87  8.6000000000000E-01  9.8657073772812E-02  1.5809637688489E+00
    88  8.7000000000000E-01  5.8496782017252E-02  1.5977123536439E+00
    89  8.8000000000000E-01  1.9602180529257E-02  1.6117031809397E+00
    90  8.9000000000000E-01 -1.7916141918210E-02  1.6227933534716E+00
    91  9.0000000000000E-01 -5.3950518256152E-02  1.6308416235317E+00
    92  9.1000000000000E-01 -8.8396981360393E-02  1.6357103584471E+00
    93  9.2000000000000E-01 -1.2115607995670E-01  1.6372676618526E+00
    94  9.3000000000000E-01 -1.5213372238529E-01  1.6353896202892E+00
    95  9.4000000000000E-01 -1.8124203733185E-01  1.6299626409793E+00
    96  9.5000000000000E-01 -2.0840023969396E-01  1.6208858434436E+00
    97  9.6000000000000E-01 -2.3353548898330E-01  1.6080734649930E+00
    98  9.7000000000000E-01 -2.5658372708423E-01  1.5914572381064E+00
    99  9.8000000000000E-01 -2.7749048181194E-01  1.5709886963510E+00
   100  9.9000000000000E-01 -2.9621162255245E-01  1.5466413648454E+00
   101  1.0000000000000E+00 -3.1271405432795E-01  1.5184127913373E+00
   102  1.0100000000000E+00 -3.2697633692117E-01  1.4863263747819E+00
   103  1.0200000000000E+00 -3.3898921621159E-01  1.4504329498678E+00
   104  1.0300000000000E+00 -3.4875605562041E-01  1.4108120882304E+00
   105  1.0400000000000E+00 -3.5629315652460E-01  1.3675730800960E+00
   106  1.0500000000000E+00 -3.6162995767141E-01  1.3208555637815E+00
   107  1.0600000000000E+00 -3.6480910498675E-01  1.2708297747762E+00
   108  1.0700000000000E+00 -3.6588638470999E-01  1.2176963910064E+00
   109  1.0800000000000E+00 -3.6493051447678E-01  1.1616859562509E+00
   110  1.0900000000000E+00 -3.6202278878905E-01  1.1030578694518E+00
   111  1.1000000000000E+00 -3.5725657723219E-01  1.0420989337880E+00
   112  1.1100000000000E+00 -3.5073667578448E-01  9.7912146569962E-01
   113  1.1200000000000E+00 -3.4257851359975E-01  9.1446097054584E-01
   114  1.1300000000000E+00 -3.3290721967390E-01  8.4847339805270E-01
   115  1.1400000000000E+00 -3.2185655582587E-01  7.8153199714677E-01
   116  1.1500000000000E+00 -3.0956772436900E-01  7.1402379597585E-01
   117  1.1600000000000E+00 -2.9618806072014E-01  6.4634573888134E-01
   118  1.1700000000000E+00 -2.8186962292564E-01  5.7890051760226E-01
   119  1.1800000000000E+00 -2.6676769168079E-01  5.1209213907241E-01
   120  1.1900000000000E+00 -2.5103919582044E-01  4.4632127662321E-01
   121  1.2000000000000E+00 -2.3484107946876E-01  3.8198045523876E-01
   122  1.2100000000000E+00 -2.1832862801034E-01  3.1944912458589E-01
   123  1.2200000000000E+00 -2.0165377077884E-01  2.5908867584488E-01
   124  1.2300000000000E+00 -1.8496337883281E-01  2.0123745982979E-01
   125  1.2400000000000E+00 -1.6839757625594E-01  1.4620586384620E-01
   126  1.2500000000000E+00 -1.5208808703391E-01  9.4271522206501E-02
   127  1.2600000000000E+00 -1.3615662584838E-01  4.5674669632536E-02
   128  1.2700000000000E+00 -1.2071415919595E-01  6.1756480991709E-04
   129  1.2800000000000E+00 -1.0586160748256E-01 -4.0729717883143E-02
   130  1.2900000000000E+00 -9.1689587882694E-02 -7.8228872889373E-02
   131  1.3000000000000E+00 -7.8277707889301E-02 -1.1177540973718E-01
   132  1.3100000000000E+00 -6.5693994668446E-02 -1.4130024913084E-01
   133  1.3200000000000E+00 -5.3994457945208E-02 -1.6677089569771E-01
   134  1.3300000000000E+00 -4.3222795901826E-02 -1.8819215330376E-01
   135  1.3400000000000E+00 -3.3410249493698E-02 -2.0560636566838E-01
   136  1.3500000000000E+00 -2.4575608563183E-02 -2.1909317155106E-01
   137  1.3600000000000E+00 -1.6725370998996E-02 -2.2876877071244E-01
   138  1.3700000000000E+00 -9.8540540252232E-03 -2.3478470388364E-01
   139  1.3800000000000E+00 -3.9446545148189E-03 -2.3732615708979E-01
   140  1.3900000000000E+00  1.0307469223591E-03 -2.3660980763949E-01
   141  1.4000000000000E+00  5.1102454287147E-03 -2.3288123591673E-01
   142  1.4100000000000E+00  8.3412443158773E-03 -2.2641193359958E-01
   143  1.4200000000000E+00  1.0779471652468E-02 -2.1749594507024E-01
   144  1.4300000000000E+00  1.2487893995525E-02 -2.0644618439111E-01
   145  1.4400000000000E+00  1.3535541795291E-02 -1.9359047526762E-01
   146  1.4500000000000E+00  1.3996262358282E-02 -1.7926736580823E-01
   147  1.4600000000000E+00  1.3947417382561E-02 -1.6382177354432E-01
   148  1.4700000000000E+00  1.3468542967748E-02 -1.4760051904362E-01
   149  1.4800000000000E+00  1.2639990634338E-02 -1.3094780848610E-01
   150  1.4900000000000E+00  1.1541568248688E-02 -1.1420072672779E-01
   151  1.5000000000000E+00  1.0251201067231E-02 -9.7684805932087E-02
   152  1.5100000000000E+00  8.8436230385534E-03 -8.1709707782822E-02
   153  1.5200000000000E+00  7.3891750753034E-03 -6.6565258962489E-02
   154  1.5300000000000E+00  5.9498379159381E-03 -5.2509647662235E-02
   155  1.5400000000000E+00  4.5815440557517E-03 -3.9778600746715E-02
   156  1.5500000000000E+00  3.3216948217065E-03 -2.8527469013537E-02
   157  1.5600000000000E+00  2.2086639761915E-03 -1.8915158332881E-02
   158  1.5700000000000E+00  1.3107579595329E-03 -1.1213104315499E-02
   159  1.5800000000000E+00  6.3687202287672E-04 -5.4697644491181E-03
   160  1.5900000000000E+00  2.0130528909780E-04 -1.7424179757260E-03
   161  1.6000000000000E+00  1.6155818512639E-05 -1.4194930425830E-04
   162  1.6100000000000E+00 -3.1362910998718E-06  2.7530486493969E-05
   163  1.6200000000000E+00  1.0061739386394E-06 -8.7782560809704E-06
   164  1.63 -0.  0.
   165  1.64  0. -0.
   166  1.65  0.  0.
   167  1.66  0.  0.
   168  1.67  0.  0.
   169  1.68  0.  0.
   170  1.69  0.  0.
   171  1.70  0.  0.
   172  1.71  0.  0.
   173  1.72  0.  0.
   174  1.73  0.  0.
   175  1.74  0.  0.
   176  1.75  0.  0.
   177  1.76  0.  0.
   178  1.77  0.  0.
   179  1.78  0.  0.
   180  1.79  0.  0.
   181  1.80  0.  0.
   182  1.81  0.  0.
   183  1.82  0.  0.
   184  1.83  0.  0.
   185  1.84  0.  0.
   186  1.85  0.  0.
   187  1.86  0.  0.
   188  1.87  0.  0.
   189  1.88  0.  0.
   190  1.89  0.  0.
   191  1.90  0.  0.
   192  1.91  0.  0.
   193  1.92  0.  0.
   194  1.93  0.  0.
   195  1.94  0.  0.
   196  1.95  0.  0.
   197  1.96  0.  0.
   198  1.97  0.  0.
   199  1.98  0.  0.
   200  1.99  0.  0.
   201  2.00  0.  0.
   202  2.01  0.  0.
   203  2.02  0.  0.
   204  2.03  0.  0.
   205  2.04  0.  0.
   206  2.05  0.  0.
   207  2.06  0.  0.
   208  2.07  0.  0.
   209  2.08  0.  0.
   210  2.09  0.  0.
   211  2.10  0.  0.
   212  2.11  0.  0.
   213  2.12  0.  0.
   214  2.13  0.  0.
   215  2.14  0.  0.
   216  2.15  0.  0.
   217  2.16  0.  0.
   218  2.17  0.  0.
   219  2.18  0.  0.
   220  2.19  0.  0.
   221  2.20  0.  0.
   222  2.21  0.  0.
   223  2.22  0.  0.
   224  2.23  0.  0.
   225  2.24  0.  0.
   226  2.25  0.  0.
   227  2.26  0.  0.
   228  2.27  0.  0.
   229  2.28  0.  0.
   230  2.29  0.  0.
   231  2.30  0.  0.
   232  2.31  0.  0.
   233  2.32  0.  0.
   234  2.33  0.  0.
   235  2.34  0.  0.
   236  2.35  0.  0.
   237  2.36  0.  0.
   238  2.37  0.  0.
   239  2.38  0.  0.
   240  2.39  0.  0.
   241  2.40  0.  0.
   242  2.41  0.  0.
   243  2.42  0.  0.
   244  2.43  0.  0.
   245  2.44  0.  0.
   246  2.45  0.  0.
   247  2.46  0.  0.
   248  2.47  0.  0.
   249  2.48  0.  0.
   250  2.49  0.  0.
   251  2.50  0.  0.
   252  2.51  0.  0.
   253  2.52  0.  0.
   254  2.53  0.  0.
   255  2.54  0.  0.
   256  2.55  0.  0.
   257  2.56  0.  0.
   258  2.57  0.  0.
   259  2.58  0.  0.
   260  2.59  0.  0.
   261  2.60  0.  0.
   262  2.61  0.  0.
   263  2.62  0.  0.
   264  2.63  0.  0.
   265  2.64  0.  0.
   266  2.65  0.  0.
   267  2.66  0.  0.
   268  2.67  0.  0.
   269  2.68  0.  0.
   270  2.69  0.  0.
   271  2.70  0.  0.
   272  2.71  0.  0.
   273  2.72  0.  0.
   274  2.73  0.  0.
   275  2.74  0.  0.
   276  2.75  0.  0.
   277  2.76  0.  0.
   278  2.77  0.  0.
   279  2.78  0.  0.
   280  2.79  0.  0.
   281  2.80  0.  0.
   282  2.81  0.  0.
   283  2.82  0.  0.
   284  2.83  0.  0.
   285  2.84  0.  0.
   286  2.85  0.  0.
   287  2.86  0.  0.
   288  2.87  0.  0.
   289  2.88  0.  0.
   290  2.89  0.  0.
   291  2.90  0.  0.
   292  2.91  0.  0.
   293  2.92  0.  0.
   294  2.93  0.  0.
   295  2.94  0.  0.
   296  2.95  0.  0.
   297  2.96  0.  0.
   298  2.97  0.  0.
   299  2.98  0.  0.
   300  2.99  0.  0.
   301  3.00  0.  0.
   302  3.01  0.  0.
   303  3.02  0.  0.
   304  3.03  0.  0.
   305  3.04  0.  0.
   306  3.05  0.  0.
   307  3.06  0.  0.
   308  3.07  0.  0.
   309  3.08  0.  0.
   310  3.09  0.  0.
   311  3.10  0.  0.
   312  3.11  0.  0.
   313  3.12  0.  0.
   314  3.13  0.  0.
   315  3.14  0.  0.
   316  3.15  0.  0.
   317  3.16  0.  0.
   318  3.17  0.  0.
   319  3.18  0.  0.
   320  3.19  0.  0.
   321  3.20  0.  0.
   322  3.21  0.  0.
   323  3.22  0.  0.
   324  3.23  0.  0.
   325  3.24  0.  0.
   326  3.25  0.  0.
   327  3.26  0.  0.
   328  3.27  0.  0.
   329  3.28  0.  0.
   330  3.29  0.  0.
   331  3.30  0.  0.
   332  3.31  0.  0.
   333  3.32  0.  0.
   334  3.33  0.  0.
   335  3.34  0.  0.
   336  3.35  0.  0.
   337  3.36  0.  0.
   338  3.37  0.  0.
   339  3.38  0.  0.
   340  3.39  0.  0.
   341  3.40  0.  0.
   342  3.41  0.  0.
   343  3.42  0.  0.
   344  3.43  0.  0.
   345  3.44  0.  0.
   346  3.45  0.  0.
   347  3.46  0.  0.
   348  3.47  0.  0.
   349  3.48  0.  0.
   350  3.49  0.  0.
   351  3.50  0.  0.
   352  3.51  0.  0.
   353  3.52  0.  0.
   354  3.53  0.  0.
   355  3.54  0.  0.
   356  3.55  0.  0.
   357  3.56  0.  0.
   358  3.57  0.  0.
   359  3.58  0.  0.
   360  3.59  0.  0.
   361  3.60  0.  0.
   362  3.61  0.  0.
   363  3.62  0.  0.
   364  3.63  0.  0.
   365  3.64  0.  0.
   366  3.65  0.  0.
   367  3.66  0.  0.
   368  3.67  0.  0.
   369  3.68  0.  0.
   370  3.69  0.  0.
   371  3.70  0.  0.
   372  3.71  0.  0.
   373  3.72  0.  0.
   374  3.73  0.  0.
   375  3.74  0.  0.
   376  3.75  0.  0.
   377  3.76  0.  0.
   378  3.77  0.  0.
   379  3.78  0.  0.
   380  3.79  0.  0.
   381  3.80  0.  0.
   382  3.81  0.  0.
   383  3.82  0.  0.
   384  3.83  0.  0.
   385  3.84  0.  0.
   386  3.85  0.  0.
   387  3.86  0.  0.
   388  3.87  0.  0.
   389  3.88  0.  0.
   390  3.89  0.  0.
   391  3.90  0.  0.
   392  3.91  0.  0.
   393  3.92  0.  0.
   394  3.93  0.  0.
   395  3.94  0.  0.
   396  3.95  0.  0.
   397  3.96  0.  0.
   398  3.97  0.  0.
   399  3.98  0.  0.
   400  3.99  0.  0.
   401  4.00  0.  0.
   402  4.01  0.  0.
   403  4.02  0.  0.
   404  4.03  0.  0.
   405  4.04  0.  0.
   406  4.05  0.  0.
   407  4.06  0.  0.
   408  4.07  0.  0.
   409  4.08  0.  0.
   410  4.09  0.  0.
   411  4.10  0.  0.
   412  4.11  0.  0.
   413  4.12  0.  0.
   414  4.13  0.  0.
   415  4.14  0.  0.
   416  4.15  0.  0.
   417  4.16  0.  0.
   418  4.17  0.  0.
   419  4.18  0.  0.
   420  4.19  0.  0.
   421  4.20  0.  0.
   422  4.21  0.  0.
   423  4.22  0.  0.
   424  4.23  0.  0.
   425  4.24  0.  0.
   426  4.25  0.  0.
   427  4.26  0.  0.
   428  4.27  0.  0.
   429  4.28  0.  0.
   430  4.29  0.  0.
   431  4.30  0.  0.
   432  4.31  0.  0.
   433  4.32  0.  0.
   434  4.33  0.  0.
   435  4.34  0.  0.
   436  4.35  0.  0.
   437  4.36  0.  0.
   438  4.37  0.  0.
   439  4.38  0.  0.
   440  4.39  0.  0.
   441  4.40  0.  0.
   442  4.41  0.  0.
   443  4.42  0.  0.
   444  4.43  0.  0.
   445  4.44  0.  0.
   446  4.45  0.  0.
   447  4.46  0.  0.
   448  4.47  0.  0.
   449  4.48  0.  0.
   450  4.49  0.  0.
   451  4.50  0.  0.
   452  4.51  0.  0.
   453  4.52  0.  0.
   454  4.53  0.  0.
   455  4.54  0.  0.
   456  4.55  0.  0.
   457  4.56  0.  0.
   458  4.57  0.  0.
   459  4.58  0.  0.
   460  4.59  0.  0.
   461  4.60  0.  0.
   462  4.61  0.  0.
   463  4.62  0.  0.
   464  4.63  0.  0.
   465  4.64  0.  0.
   466  4.65  0.  0.
   467  4.66  0.  0.
   468  4.67  0.  0.
   469  4.68  0.  0.
   470  4.69  0.  0.
   471  4.70  0.  0.
   472  4.71  0.  0.
   473  4.72  0.  0.
   474  4.73  0.  0.
   475  4.74  0.  0.
   476  4.75  0.  0.
   477  4.76  0.  0.
   478  4.77  0.  0.
   479  4.78  0.  0.
   480  4.79  0.  0.
   481  4.80  0.  0.
   482  4.81  0.  0.
   483  4.82  0.  0.
   484  4.83  0.  0.
   485  4.84  0.  0.
   486  4.85  0.  0.
   487  4.86  0.  0.
   488  4.87  0.  0.
   489  4.88  0.  0.
   490  4.89  0.  0.
   491  4.90  0.  0.
   492  4.91  0.  0.
   493  4.92  0.  0.
   494  4.93  0.  0.
   495  4.94  0.  0.
   496  4.95  0.  0.
   497  4.96  0.  0.
   498  4.97  0.  0.
   499  4.98  0.  0.
   500  4.99  0.  0.
   501  5.00  0.  0.
   502  5.01  0.  0.
   503  5.02  0.  0.
   504  5.03  0.  0.
   505  5.04  0.  0.
   506  5.05  0.  0.
   507  5.06  0.  0.
   508  5.07  0.  0.
   509  5.08  0.  0.
   510  5.09  0.  0.
   511  5.10  0.  0.
   512  5.11  0.  0.
   513  5.12  0.  0.
   514  5.13  0.  0.
   515  5.14  0.  0.
   516  5.15  0.  0.
   517  5.16  0.  0.
   518  5.17  0.  0.
   519  5.18  0.  0.
   520  5.19  0.  0.
   521  5.20  0.  0.
   522  5.21  0.  0.
   523  5.22  0.  0.
   524  5.23  0.  0.
   525  5.24  0.  0.
   526  5.25  0.  0.
   527  5.26  0.  0.
   528  5.27  0.  0.
   529  5.28  0.  0.
   530  5.29  0.  0.
   531  5.30  0.  0.
   532  5.31  0.  0.
   533  5.32  0.  0.
   534  5.33  0.  0.
   535  5.34  0.  0.
   536  5.35  0.  0.
   537  5.36  0.  0.
   538  5.37  0.  0.
   539  5.38  0.  0.
   540  5.39  0.  0.
   541  5.40  0.  0.
   542  5.41  0.  0.
   543  5.42  0.  0.
   544  5.43  0.  0.
   545  5.44  0.  0.
   546  5.45  0.  0.
   547  5.46  0.  0.
   548  5.47  0.  0.
   549  5.48  0.  0.
   550  5.49  0.  0.
   551  5.50  0.  0.
   552  5.51  0.  0.
   553  5.52  0.  0.
   554  5.53  0.  0.
   555  5.54  0.  0.
   556  5.55  0.  0.
   557  5.56  0.  0.
   558  5.57  0.  0.
   559  5.58  0.  0.
   560  5.59  0.  0.
   561  5.60  0.  0.
   562  5.61  0.  0.
   563  5.62  0.  0.
   564  5.63  0.  0.
   565  5.64  0.  0.
   566  5.65  0.  0.
   567  5.66  0.  0.
   568  5.67  0.  0.
   569  5.68  0.  0.
   570  5.69  0.  0.
   571  5.70  0.  0.
   572  5.71  0.  0.
   573  5.72  0.  0.
   574  5.73  0.  0.
   575  5.74  0.  0.
   576  5.75  0.  0.
   577  5.76  0.  0.
   578  5.77  0.  0.
   579  5.78  0.  0.
   580  5.79  0.  0.
   581  5.80  0.  0.
   582  5.81  0.  0.
   583  5.82  0.  0.
   584  5.83  0.  0.
   585  5.84  0.  0.
   586  5.85  0.  0.
   587  5.86  0.  0.
   588  5.87  0.  0.
   589  5.88  0.  0.
   590  5.89  0.  0.
   591  5.90  0.  0.
   592  5.91  0.  0.
   593  5.92  0.  0.
   594  5.93  0.  0.
   595  5.94  0.  0.
   596  5.95  0.  0.
   597  5.96  0.  0.
   598  5.97  0.  0.
   599  5.98  0.  0.
   600  5.99  0.  0.
   1                         9.1153372777688E+00  1.3847794407079E+00
     1  0.0000000000000E+00 -1.4218978772185E-09  3.7254710982815E-09
     2  1.0000000000000E-02  1.2041569190260E-03 -4.9933821461201E-04
     3  2.0000000000000E-02  4.8146048575085E-03 -1.9982931225986E-03
     4  3.0000000000000E-02  1.0825243655805E-02 -4.4995925509719E-03
     5  4.0000000000000E-02  1.9225801543647E-02 -8.0074752067691E-03
     6  5.0000000000000E-02  3.0001680814187E-02 -1.2527236872826E-02
     7  6.0000000000000E-02  4.3133747568219E-02 -1.8064610326342E-02
     8  7.0000000000000E-02  5.8598071190078E-02 -2.4624993852441E-02
     9  8.0000000000000E-02  7.6365620638625E-02 -3.2212546950428E-02
    10  9.0000000000000E-02  9.6401925916713E-02 -4.0829175176361E-02
    11  1.0000000000000E-01  1.1866671419500E-01 -5.0473428963877E-02
    12  1.1000000000000E-01  1.4311353098758E-01 -6.1139343653640E-02
    13  1.2000000000000E-01  1.6968935748885E-01 -7.2815249791193E-02
    14  1.3000000000000E-01  1.9833423566756E-01 -8.5482583981686E-02
    15  1.4000000000000E-01  2.2898091296440E-01 -9.9114731190501E-02
    16  1.5000000000000E-01  2.6155451844667E-01 -1.1367592933427E-01
    17  1.6000000000000E-01  2.9597228203659E-01 -1.2912026631373E-01
    18  1.7000000000000E-01  3.3214330794964E-01 -1.4539079830659E-01
    19  1.8000000000000E-01  3.6996841276529E-01 -1.6241881618769E-01
    20  1.9000000000000E-01  4.0934003761509E-01 -1.8012328440759E-01
    21  2.0000000000000E-01  4.5014224282898E-01 -1.9841047358632E-01
    22  2.1000000000000E-01  4.9225079205061E-01 -2.1717380452155E-01
    23  2.2000000000000E-01  5.3553333133972E-01 -2.3629391733714E-01
    24  2.3000000000000E-01  5.7984966715226E-01 -2.5563897518373E-01
    25  2.4000000000000E-01  6.2505214535656E-01 -2.7506520733009E-01
    26  2.5000000000000E-01  6.7098613163896E-01 -2.9441769174144E-01
    27  2.6000000000000E-01  7.1749059180951E-01 -3.1353137242027E-01
    28  2.7000000000000E-01  7.6439876867165E-01 -3.3223230198337E-01
    29  2.8000000000000E-01  8.1153895030564E-01 -3.5033909525900E-01
    30  2.9000000000000E-01  8.5873532286871E-01 -3.6766457520812E-01
    31  3.0000000000000E-01  9.0580889936938E-01 -3.8401758829188E-01
    32  3.1000000000000E-01  9.5257851436250E-01 -3.9920496261353E-01
    33  3.2000000000000E-01  9.9886187316458E-01 -4.1303357883521E-01
    34  3.3000000000000E-01  1.0444766430347E+00 -4.2531252108131E-01
    35  3.4000000000000E-01  1.0892415728273E+00 -4.3585527285327E-01
    36  3.5000000000000E-01  1.1329776269208E+00 -4.4448192144583E-01
    37  3.6000000000000E-01  1.1755091187769E+00 -4.5102133351277E-01
    38  3.7000000000000E-01  1.2166648292952E+00 -4.5531326430575E-01
    39  3.8000000000000E-01  1.2562790952151E+00 -4.5721036371660E-01
    40  3.9000000000000E-01  1.2941928531642E+00 -4.5658004358824E-01
    41  4.0000000000000E-01  1.3302546255765E+00 -4.5330617280770E-01
    42  4.1000000000000E-01  1.3643214355763E+00 -4.4729056942404E-01
    43  4.2000000000000E-01  1.3962596390450E+00 -4.3845426240188E-01
    44  4.3000000000000E-01  1.4259456634269E+00 -4.2673849956891E-01
    45  4.4000000000000E-01  1.4532666443763E+00 -4.1210548277317E-01
    46  4.5000000000000E-01  1.4781209530552E+00 -3.9453881615354E-01
    47  4.6000000000000E-01  1.5004186087477E+00 -3.7404365865151E-01
    48  4.7000000000000E-01  1.5200815734136E+00 -3.5064657735767E-01
    49  4.8000000000000E-01  1.5370439268282E+00 -3.2439510388551E-01
    50  4.9000000000000E-01  1.5512519230101E+00 -2.9535700158910E-01
    51  5.0000000000000E-01  1.5626639306823E+00 -2.6361925697941E-01
    52  5.1000000000000E-01  1.5712502625032E+00 -2.2928681403256E-01
    53  5.2000000000000E-01  1.5769928997044E+00 -1.9248107511540E-01
    54  5.3000000000000E-01  1.5798851205432E+00 -1.5333819687141E-01
    55  5.4000000000000E-01  1.5799310425853E+00 -1.1200721351693E-01
    56  5.5000000000000E-01  1.5771450902356E+00 -6.8648023502147E-02
    57  5.6000000000000E-01  1.5715514001165E+00 -2.3429278314578E-02
    58  5.7000000000000E-01  1.5631831778133E+00  2.3473785722352E-02
    59  5.8000000000000E-01  1.5520820201541E+00  7.1881530530891E-02
    60  5.9000000000000E-01  1.5382972175477E+00  1.2161207168335E-01
    61  6.0000000000000E-01  1.5218850509595E+00  1.7248336400232E-01
    62  6.1000000000000E-01  1.5029080978524E+00  2.2431517652751E-01
    63  6.2000000000000E-01  1.4814345608699E+00  2.7693091817229E-01
    64  6.3000000000000E-01  1.4575376321888E+00  3.3015927837228E-01
    65  6.4000000000000E-01  1.4312949053435E+00  3.8383565078486E-01
    66  6.5000000000000E-01  1.4027878449324E+00  4.3780331257077E-01
    67  6.6000000000000E-01  1.3721013230011E+00  4.9191433689811E-01
    68  6.7000000000000E-01  1.3393232290671E+00  5.4603022195993E-01
    69  6.8000000000000E-01  1.3045441587636E+00  6.0002222588522E-01
    70  6.9000000000000E-01  1.2678571839611E+00  6.5377140333101E-01
    71  7.0000000000000E-01  1.2293577050210E+00  7.0716834614562E-01
    72  7.1000000000000E-01  1.1891433835986E+00  7.6011263715743E-01
    73  7.2000000000000E-01  1.1473141521784E+00  8.1251203273400E-01
    74  7.3000000000000E-01  1.1039722943503E+00  8.6428139613613E-01
    75  7.4000000000000E-01  1.0592225877640E+00  9.1534140972441E-01
    76  7.5000000000000E-01  1.0131724997781E+00  9.6561709963106E-01
    77  7.6000000000000E-01  9.6593242409398E-01  1.0150362114624E+00
    78  7.7000000000000E-01  9.1761594517327E-01  1.0635274798341E+00
    79  7.8000000000000E-01  8.6834011601839E-01  1.1110188379557E+00
    80  7.9000000000000E-01  8.1822573398066E-01  1.1574356159910E+00
    81  8.0000000000000E-01  7.6739759867592E-01  1.2026987784478E+00
    82  8.1000000000000E-01  7.1598473585328E-01  1.2467232513452E+00
    83  8.2000000000000E-01  6.6412057119260E-01  1.2894163893343E+00
    84  8.3000000000000E-01  6.1194303850600E-01  1.3306766312951E+00
    85  8.4000000000000E-01  5.5959460768769E-01  1.3703923902045E+00
    86  8.5000000000000E-01  5.0722221898493E-01  1.4084412193033E+00
    87  8.6000000000000E-01  4.5497711173556E-01  1.4446892918287E+00
    88  8.7000000000000E-01  4.0301453761009E-01  1.4789912258984E+00
    89  8.8000000000000E-01  3.5149335057789E-01  1.5111902796271E+00
    90  8.9000000000000E-01  3.0057546825136E-01  1.5411189343306E+00
    91  9.0000000000000E-01  2.5042520190441E-01  1.5685998758610E+00
    92  9.1000000000000E-01  2.0120845526560E-01  1.5934473758533E+00
    93  9.2000000000000E-01  1.5309179509765E-01  1.6154690661100E+00
    94  9.3000000000000E-01  1.0624139953904E-01  1.6344680906597E+00
    95  9.4000000000000E-01  6.0821893141172E-02  1.6502456113766E+00
    96  9.5000000000000E-01  1.6995080427172E-02  1.6626036346001E+00
    97  9.6000000000000E-01 -2.5081407434241E-02  1.6713481181314E+00
    98  9.7000000000000E-01 -6.5255535661007E-02  1.6762923104622E+00
    99  9.8000000000000E-01 -1.0338233907160E-01  1.6772602672745E+00
   100  9.9000000000000E-01 -1.3932542390055E-01  1.6740904842898E+00
   101  1.0000000000000E+00 -1.7295847491978E-01  1.6666395805759E+00
   102  1.0100000000000E+00 -2.0416674323369E-01  1.6547859625542E+00
   103  1.0200000000000E+00 -2.3284848919702E-01  1.6384333962955E+00
   104  1.0300000000000E+00 -2.5891635442980E-01  1.6175144143278E+00
   105  1.0400000000000E+00 -2.8229863689296E-01  1.5919934831465E+00
   106  1.0500000000000E+00 -3.0294044345487E-01  1.5618698589710E+00
   107  1.0600000000000E+00 -3.2080469532208E-01  1.5271800620021E+00
   108  1.0700000000000E+00 -3.3587296312514E-01  1.4879999035204E+00
   109  1.0800000000000E+00 -3.4814611032275E-01  1.4444460055398E+00
   110  1.0900000000000E+00 -3.5764472588919E-01  1.3966767593400E+00
   111  1.1000000000000E+00 -3.6440932995664E-01  1.3448926769598E+00
   112  1.1100000000000E+00 -3.6850033913361E-01  1.2893360984635E+00
   113  1.1200000000000E+00 -3.6999778159670E-01  1.2302902274476E+00
   114  1.1300000000000E+00 -3.6900075565535E-01  1.1680774775425E+00
   115  1.1400000000000E+00 -3.6562662931043E-01  1.1030571235613E+00
   116  1.1500000000000E+00 -3.6000998224011E-01  1.0356222620888E+00
   117  1.1600000000000E+00 -3.5230129564920E-01  9.6619609768381E-01
   118  1.1700000000000E+00 -3.4266539936477E-01  8.9522758206544E-01
   119  1.1800000000000E+00 -3.3127968945982E-01  8.2318644469607E-01
   120  1.1900000000000E+00 -3.1833213338464E-01  7.5055766361661E-01
   121  1.2000000000000E+00 -3.0401908308861E-01  6.7783543525600E-01
   122  1.2100000000000E+00 -2.8854291979723E-01  6.0551671086286E-01
   123  1.2200000000000E+00 -2.7210955694575E-01  5.3409437512714E-01
   124  1.2300000000000E+00 -2.5492583019641E-01  4.6405014928339E-01
   125  1.2400000000000E+00 -2.3719680526652E-01  3.9584730559154E-01
   126  1.2500000000000E+00 -2.1912303985047E-01  3.2992330488850E-01
   127  1.2600000000000E+00 -2.0089782205465E-01  2.6668239563559E-01