C     ONCVPSP-4.0.1  r_core=   1.20716   1.25127
      6.0000      4.0000      231019    zatom,zion,pspd
     8       2   1     4   600     0    pspcod,pspxc,lmax,lloc,mmax,r2well
  5.99000000  4.00000000  0.00000000    rchrg fchrg qchrg
     2     2     0     0     0    nproj
     1     1           extension_switch
   0                         6.5423645560615E+00  3.4722955396426E-01
     1  0.0000000000000E+00  5.1366940700959E-09 -3.3213566452694E-08
     2  1.0000000000000E-02  6.5804408530944E-02  3.6927970078847E-02
     3  2.0000000000000E-02  1.3159346731230E-01  7.2946012415450E-02
     4  3.0000000000000E-02  1.9734925473590E-01  1.0716401859113E-01
     5  4.0000000000000E-02  2.6304876844581E-01  1.3873110071477E-01
     6  5.0000000000000E-02  3.2866154103381E-01  1.6685416513897E-01
     7  6.0000000000000E-02  3.9414743925548E-01  1.9081526664113E-01
     8  7.0000000000000E-02  4.5945470175288E-01  2.0998737655438E-01
     9  8.0000000000000E-02  5.2451826513376E-01  2.2384823154647E-01
    10  9.0000000000000E-02  5.8925842204004E-01  2.3199196995142E-01
    11  1.0000000000000E-01  6.5357984767222E-01  2.3413830892292E-01
    12  1.1000000000000E-01  7.1737102326949E-01  2.3013906724025E-01
    13  1.2000000000000E-01  7.8050407644560E-01  2.1998189428362E-01
    14  1.3000000000000E-01  8.4283504922772E-01  2.0379112435107E-01
    15  1.4000000000000E-01  9.0420459532959E-01  1.8182573589255E-01
    16  1.5000000000000E-01  9.6443909880703E-01  1.5447445613062E-01
    17  1.6000000000000E-01  1.0233521969909E+00  1.2224811165362E-01
    18  1.7000000000000E-01  1.0807466816649E+00  8.5769383650019E-02
    19  1.8000000000000E-01  1.1364167440419E+00  4.5760181288091E-02
    20  1.9000000000000E-01  1.1901505213718E+00  3.0268971846953E-03
    21  2.0000000000000E-01  1.2417328961501E+00 -4.1556146109534E-02
    22  2.1000000000000E-01  1.2909484930357E+00 -8.7064711101606E-02
    23  2.2000000000000E-01  1.3375848138597E+00 -1.3254374295884E-01
    24  2.3000000000000E-01  1.3814354476083E+00 -1.7702714738914E-01
    25  2.4000000000000E-01  1.4223032900830E+00 -2.1955783139365E-01
    26  2.5000000000000E-01  1.4600037071182E+00 -2.5920758314572E-01
    27  2.6000000000000E-01  1.4943675758022E+00 -2.9509636979190E-01
    28  2.7000000000000E-01  1.5252441400900E+00 -3.2641064336595E-01
    29  2.8000000000000E-01  1.5525036204863E+00 -3.5242026503865E-01
    30  2.9000000000000E-01  1.5760395220447E+00 -3.7249368620290E-01
    31  3.0000000000000E-01  1.5957705906907E+00 -3.8611106084381E-01
    32  3.1000000000000E-01  1.6116423747153E+00 -3.9287500654489E-01
    33  3.2000000000000E-01  1.6236283560616E+00 -3.9251878045433E-01
    34  3.3000000000000E-01  1.6317306245844E+00 -3.8491169057980E-01
    35  3.4000000000000E-01  1.6359800776310E+00 -3.7006162078336E-01
    36  3.5000000000000E-01  1.6364361368716E+00 -3.4811460861076E-01
    37  3.6000000000000E-01  1.6331859841156E+00 -3.1935147735456E-01
    38  3.7000000000000E-01  1.6263433276725E+00 -2.8418158622055E-01
    39  3.8000000000000E-01  1.6160467204544E+00 -2.4313382383897E-01
    40  3.9000000000000E-01  1.6024574602700E+00 -1.9684502934879E-01
    41  4.0000000000000E-01  1.5857571114272E+00 -1.4604608064190E-01
    42  4.1000000000000E-01  1.5661446946722E+00 -9.1545939914322E-02
    43  4.2000000000000E-01  1.5438335994626E+00 -3.4213991352988E-02
    44  4.3000000000000E-01  1.5190482784704E+00  2.5038956368179E-02
    45  4.4000000000000E-01  1.4920207888890E+00  8.5280599924216E-02
    46  4.5000000000000E-01  1.4629872484941E+00  1.4557757879129E-01
    47  4.6000000000000E-01  1.4321842763859E+00  2.0501598256637E-01
    48  4.7000000000000E-01  1.3998454888868E+00  2.6272148651699E-01
    49  4.8000000000000E-01  1.3661981201502E+00  3.1787867910377E-01
    50  4.9000000000000E-01  1.3314598346825E+00  3.6974915980981E-01
    51  5.0000000000000E-01  1.2958357952103E+00  4.1768800915682E-01
    52  5.1000000000000E-01  1.2595160442294E+00  4.6115826484757E-01
    53  5.2000000000000E-01  1.2226732512351E+00  4.9974307793147E-01
    54  5.3000000000000E-01  1.1854608701877E+00  5.3315526995411E-01
    55  5.4000000000000E-01  1.1480117433547E+00  5.6124406528888E-01
    56  5.5000000000000E-01  1.1104371784671E+00  5.8399883118721E-01
    57  5.6000000000000E-01  1.0728265163110E+00  6.0154972034029E-01
    58  5.7000000000000E-01  1.0352471956529E+00  6.1416517565062E-01
    59  5.8000000000000E-01  9.9774531197396E-01  6.2224632313473E-01
    60  5.9000000000000E-01  9.6034665607944E-01  6.2631834505051E-01
    61  6.0000000000000E-01  9.2305820847364E-01  6.2701899008892E-01
    62  6.1000000000000E-01  8.8587005565472E-01  6.2508443944028E-01
    63  6.2000000000000E-01  8.4875768539867E-01  6.2133280543215E-01
    64  6.3000000000000E-01  8.1168460985385E-01  6.1664559201335E-01
    65  6.4000000000000E-01  7.7460525803673E-01  6.1194749250012E-01
    66  6.5000000000000E-01  7.3746807326065E-01  6.0818493870572E-01
    67  6.6000000000000E-01  7.0021874627616E-01  6.0630384598931E-01
    68  6.7000000000000E-01  6.6280351156053E-01  6.0722702019642E-01
    69  6.8000000000000E-01  6.2517243234443E-01  6.1183170441224E-01
    70  6.9000000000000E-01  5.8728259965433E-01  6.2092774559577E-01
    71  7.0000000000000E-01  5.4910117189643E-01  6.3523685338655E-01
    72  7.1000000000000E-01  5.1060818429763E-01  6.5537340576917E-01
    73  7.2000000000000E-01  4.7179906180553E-01  6.8182722912079E-01
    74  7.3000000000000E-01  4.3268677475342E-01  7.1494874395361E-01
    75  7.4000000000000E-01  3.9330358361273E-01  7.5493682305801E-01
    76  7.5000000000000E-01  3.5370232734876E-01  8.0182965661143E-01
    77  7.6000000000000E-01  3.1395721910570E-01  8.5549886015441E-01
    78  7.7000000000000E-01  2.7416412299364E-01  9.1564699729119E-01
    79  7.8000000000000E-01  2.3444029643305E-01  9.8180862082111E-01
    80  7.9000000000000E-01  1.9492359361632E-01  1.0533548651088E+00
    81  8.0000000000000E-01  1.5577113694892E-01  1.1295015502736E+00
    82  8.1000000000000E-01  1.1715747460264E-01  1.2093206866919E+00
    83  8.2000000000000E-01  7.9272253322030E-02  1.2917551978126E+00
    84  8.3000000000000E-01  4.2317446144187E-02  1.3756366118463E+00
    85  8.4000000000000E-01  6.5041845036672E-03  1.4597054098769E+00
    86  8.5000000000000E-01 -2.7950746906185E-02  1.5426336606819E+00
    87  8.6000000000000E-01 -6.0828686345366E-02  1.6230495222220E+00
    88  8.7000000000000E-01 -9.1913069611223E-02  1.6995631474541E+00
    89  8.8000000000000E-01 -1.2099352517055E-01  1.7707934987234E+00
    90  8.9000000000000E-01 -1.4787000841809E-01  1.8353955512610E+00
    91  9.0000000000000E-01 -1.7235689164953E-01  1.8920873527648E+00
    92  9.1000000000000E-01 -1.9428692600796E-01  1.9396764030512E+00
    93  9.2000000000000E-01 -2.1351499301219E-01  1.9770848254212E+00
    94  9.3000000000000E-01 -2.2992156629015E-01  2.0033728196405E+00
    95  9.4000000000000E-01 -2.4341580877025E-01  2.0177599149559E+00
    96  9.5000000000000E-01 -2.5393823674872E-01  2.0196435798744E+00
    97  9.6000000000000E-01 -2.6146288983620E-01  2.0086147927945E+00
    98  9.7000000000000E-01 -2.6599895465353E-01  1.9844702331165E+00
    99  9.8000000000000E-01 -2.6759180011928E-01  1.9472208150793E+00
   100  9.9000000000000E-01 -2.6632339306980E-01  1.8970963551218E+00
   101  1.0000000000000E+00 -2.6231207455207E-01  1.8345462366434E+00
   102  1.0100000000000E+00 -2.5571168921120E-01  1.7602360122400E+00
   103  1.0200000000000E+00 -2.4671007251934E-01  1.6750399613221E+00
   104  1.0300000000000E+00 -2.3552691292126E-01  1.5800296989490E+00
   105  1.0400000000000E+00 -2.2241101804696E-01  1.4764590081214E+00
   106  1.0500000000000E+00 -2.0763702573715E-01  1.3657451412210E+00
   107  1.0600000000000E+00 -1.9150161151095E-01  1.2494469052993E+00
   108  1.0700000000000E+00 -1.7431925403412E-01  1.1292399089652E+00
   109  1.0800000000000E+00 -1.5641762896327E-01  1.0068894046916E+00
   110  1.0900000000000E+00 -1.3813270902179E-01  8.8422120804023E-01
   111  1.1000000000000E+00 -1.1980365418644E-01  7.6309121381464E-01
   112  1.1100000000000E+00 -1.0176758029254E-01  6.4535405762827E-01
   113  1.1200000000000E+00 -8.4354297105224E-02  5.3283148920840E-01
   114  1.1300000000000E+00 -6.7881108552808E-02  4.2728103472792E-01
   115  1.1400000000000E+00 -5.2647764198932E-02  3.3036549897546E-01
   116  1.1500000000000E+00 -3.8930343179622E-02  2.4361562704673E-01
   117  1.1600000000000E+00 -2.6967029804460E-02  1.6834056083750E-01
   118  1.1700000000000E+00 -1.6983563498944E-02  1.0578991931078E-01
   119  1.1800000000000E+00 -9.1740629989140E-03  5.7035491679084E-02
   120  1.1900000000000E+00 -3.6928944745420E-03  2.2920032750987E-02
   121  1.2000000000000E+00 -6.4593958644436E-04  4.0030730205686E-03
   122  1.2100000000000E+00  3.2378184230961E-05 -2.0045234987374E-04
   123  1.2200000000000E+00 -5.8100865996639E-06  3.5980367168565E-05
   124  1.23 -0.  0.
   125  1.24  0.  0.
   126  1.25  0.  0.
   127  1.26  0.  0.
   128  1.27  0.  0.
   129  1.28  0.  0.
   130  1.29  0.  0.
   131  1.30  0.  0.
   132  1.31  0.  0.
   133  1.32  0.  0.
   134  1.33  0.  0.
   135  1.34  0.  0.
   136  1.35  0.  0.
   137  1.36  0.  0.
   138  1.37  0.  0.
   139  1.38  0.  0.
   140  1.39  0.  0.
   141  1.40  0.  0.
   142  1.41  0.  0.
   143  1.42  0.  0.
   144  1.43  0.  0.
   145  1.44  0.  0.
   146  1.45  0.  0.
   147  1.46  0.  0.
   148  1.47  0.  0.
   149  1.48  0.  0.
   150  1.49  0.  0.
   151  1.50  0.  0.
   152  1.51  0.  0.
   153  1.52  0.  0.
   154  1.53  0.  0.
   155  1.54  0.  0.
   156  1.55  0.  0.
   157  1.56  0.  0.
   158  1.57  0.  0.
   159  1.58  0.  0.
   160  1.59  0.  0.
   161  1.60  0.  0.
   162  1.61  0.  0.
   163  1.62  0.  0.
   164  1.63  0.  0.
   165  1.64  0.  0.
   166  1.65  0.  0.
   167  1.66  0.  0.
   168  1.67  0.  0.
   169  1.68  0.  0.
   170  1.69  0.  0.
   171  1.70  0.  0.
   172  1.71  0.  0.
   173  1.72  0.  0.
   174  1.73  0.  0.
   175  1.74  0.  0.
   176  1.75  0.  0.
   177  1.76  0.  0.
   178  1.77  0.  0.
   179  1.78  0.  0.
   180  1.79  0.  0.
   181  1.80  0.  0.
   182  1.81  0.  0.
   183  1.82  0.  0.
   184  1.83  0.  0.
   185  1.84  0.  0.
   186  1.85  0.  0.
   187  1.86  0.  0.
   188  1.87  0.  0.
   189  1.88  0.  0.
   190  1.89  0.  0.
   191  1.90  0.  0.
   192  1.91  0.  0.
   193  1.92  0.  0.
   194  1.93  0.  0.
   195  1.94  0.  0.
   196  1.95  0.  0.
   197  1.96  0.  0.
   198  1.97  0.  0.
   199  1.98  0.  0.
   200  1.99  0.  0.
   201  2.00  0.  0.
   202  2.01  0.  0.
   203  2.02  0.  0.
   204  2.03  0.  0.
   205  2.04  0.  0.
   206  2.05  0.  0.
   207  2.06  0.  0.
   208  2.07  0.  0.
   209  2.08  0.  0.
   210  2.09  0.  0.
   211  2.10  0.  0.
   212  2.11  0.  0.
   213  2.12  0.  0.
   214  2.13  0.  0.
   215  2.14  0.  0.
   216  2.15  0.  0.
   217  2.16  0.  0.
   218  2.17  0.  0.
   219  2.18  0.  0.
   220  2.19  0.  0.
   221  2.20  0.  0.
   222  2.21  0.  0.
   223  2.22  0.  0.
   224  2.23  0.  0.
   225  2.24  0.  0.
   226  2.25  0.  0.
   227  2.26  0.  0.
   228  2.27  0.  0.
   229  2.28  0.  0.
   230  2.29  0.  0.
   231  2.30  0.  0.
   232  2.31  0.  0.
   233  2.32  0.  0.
   234  2.33  0.  0.
   235  2.34  0.  0.
   236  2.35  0.  0.
   237  2.36  0.  0.
   238  2.37  0.  0.
   239  2.38  0.  0.
   240  2.39  0.  0.
   241  2.40  0.  0.
   242  2.41  0.  0.
   243  2.42  0.  0.
   244  2.43  0.  0.
   245  2.44  0.  0.
   246  2.45  0.  0.
   247  2.46  0.  0.
   248  2.47  0.  0.
   249  2.48  0.  0.
   250  2.49  0.  0.
   251  2.50  0.  0.
   252  2.51  0.  0.
   253  2.52  0.  0.
   254  2.53  0.  0.
   255  2.54  0.  0.
   256  2.55  0.  0.
   257  2.56  0.  0.
   258  2.57  0.  0.
   259  2.58  0.  0.
   260  2.59  0.  0.
   261  2.60  0.  0.
   262  2.61  0.  0.
   263  2.62  0.  0.
   264  2.63  0.  0.
   265  2.64  0.  0.
   266  2.65  0.  0.
   267  2.66  0.  0.
   268  2.67  0.  0.
   269  2.68  0.  0.
   270  2.69  0.  0.
   271  2.70  0.  0.
   272  2.71  0.  0.
   273  2.72  0.  0.
   274  2.73  0.  0.
   275  2.74  0.  0.
   276  2.75  0.  0.
   277  2.76  0.  0.
   278  2.77  0.  0.
   279  2.78  0.  0.
   280  2.79  0.  0.
   281  2.80  0.  0.
   282  2.81  0.  0.
   283  2.82  0.  0.
   284  2.83  0.  0.
   285  2.84  0.  0.
   286  2.85  0.  0.
   287  2.86  0.  0.
   288  2.87  0.  0.
   289  2.88  0.  0.
   290  2.89  0.  0.
   291  2.90  0.  0.
   292  2.91  0.  0.
   293  2.92  0.  0.
   294  2.93  0.  0.
   295  2.94  0.  0.
   296  2.95  0.  0.
   297  2.96  0.  0.
   298  2.97  0.  0.
   299  2.98  0.  0.
   300  2.99  0.  0.
   301  3.00  0.  0.
   302  3.01  0.  0.
   303  3.02  0.  0.
   304  3.03  0.  0.
   305  3.04  0.  0.
   306  3.05  0.  0.
   307  3.06  0.  0.
   308  3.07  0.  0.
   309  3.08  0.  0.
   310  3.09  0.  0.
   311  3.10  0.  0.
   312  3.11  0.  0.
   313  3.12  0.  0.
   314  3.13  0.  0.
   315  3.14  0.  0.
   316  3.15  0.  0.
   317  3.16  0.  0.
   318  3.17  0.  0.
   319  3.18  0.  0.
   320  3.19  0.  0.
   321  3.20  0.  0.
   322  3.21  0.  0.
   323  3.22  0.  0.
   324  3.23  0.  0.
   325  3.24  0.  0.
   326  3.25  0.  0.
   327  3.26  0.  0.
   328  3.27  0.  0.
   329  3.28  0.  0.
   330  3.29  0.  0.
   331  3.30  0.  0.
   332  3.31  0.  0.
   333  3.32  0.  0.
   334  3.33  0.  0.
   335  3.34  0.  0.
   336  3.35  0.  0.
   337  3.36  0.  0.
   338  3.37  0.  0.
   339  3.38  0.  0.
   340  3.39  0.  0.
   341  3.40  0.  0.
   342  3.41  0.  0.
   343  3.42  0.  0.
   344  3.43  0.  0.
   345  3.44  0.  0.
   346  3.45  0.  0.
   347  3.46  0.  0.
   348  3.47  0.  0.
   349  3.48  0.  0.
   350  3.49  0.  0.
   351  3.50  0.  0.
   352  3.51  0.  0.
   353  3.52  0.  0.
   354  3.53  0.  0.
   355  3.54  0.  0.
   356  3.55  0.  0.
   357  3.56  0.  0.
   358  3.57  0.  0.
   359  3.58  0.  0.
   360  3.59  0.  0.
   361  3.60  0.  0.
   362  3.61  0.  0.
   363  3.62  0.  0.
   364  3.63  0.  0.
   365  3.64  0.  0.
   366  3.65  0.  0.
   367  3.66  0.  0.
   368  3.67  0.  0.
   369  3.68  0.  0.
   370  3.69  0.  0.
   371  3.70  0.  0.
   372  3.71  0.  0.
   373  3.72  0.  0.
   374  3.73  0.  0.
   375  3.74  0.  0.
   376  3.75  0.  0.
   377  3.76  0.  0.
   378  3.77  0.  0.
   379  3.78  0.  0.
   380  3.79  0.  0.
   381  3.80  0.  0.
   382  3.81  0.  0.
   383  3.82  0.  0.
   384  3.83  0.  0.
   385  3.84  0.  0.
   386  3.85  0.  0.
   387  3.86  0.  0.
   388  3.87  0.  0.
   389  3.88  0.  0.
   390  3.89  0.  0.
   391  3.90  0.  0.
   392  3.91  0.  0.
   393  3.92  0.  0.
   394  3.93  0.  0.
   395  3.94  0.  0.
   396  3.95  0.  0.
   397  3.96  0.  0.
   398  3.97  0.  0.
   399  3.98  0.  0.
   400  3.99  0.  0.
   401  4.00  0.  0.
   402  4.01  0.  0.
   403  4.02  0.  0.
   404  4.03  0.  0.
   405  4.04  0.  0.
   406  4.05  0.  0.
   407  4.06  0.  0.
   408  4.07  0.  0.
   409  4.08  0.  0.
   410  4.09  0.  0.
   411  4.10  0.  0.
   412  4.11  0.  0.
   413  4.12  0.  0.
   414  4.13  0.  0.
   415  4.14  0.  0.
   416  4.15  0.  0.
   417  4.16  0.  0.
   418  4.17  0.  0.
   419  4.18  0.  0.
   420  4.19  0.  0.
   421  4.20  0.  0.
   422  4.21  0.  0.
   423  4.22  0.  0.
   424  4.23  0.  0.
   425  4.24  0.  0.
   426  4.25  0.  0.
   427  4.26  0.  0.
   428  4.27  0.  0.
   429  4.28  0.  0.
   430  4.29  0.  0.
   431  4.30  0.  0.
   432  4.31  0.  0.
   433  4.32  0.  0.
   434  4.33  0.  0.
   435  4.34  0.  0.
   436  4.35  0.  0.
   437  4.36  0.  0.
   438  4.37  0.  0.
   439  4.38  0.  0.
   440  4.39  0.  0.
   441  4.40  0.  0.
   442  4.41  0.  0.
   443  4.42  0.  0.
   444  4.43  0.  0.
   445  4.44  0.  0.
   446  4.45  0.  0.
   447  4.46  0.  0.
   448  4.47  0.  0.
   449  4.48  0.  0.
   450  4.49  0.  0.
   451  4.50  0.  0.
   452  4.51  0.  0.
   453  4.52  0.  0.
   454  4.53  0.  0.
   455  4.54  0.  0.
   456  4.55  0.  0.
   457  4.56  0.  0.
   458  4.57  0.  0.
   459  4.58  0.  0.
   460  4.59  0.  0.
   461  4.60  0.  0.
   462  4.61  0.  0.
   463  4.62  0.  0.
   464  4.63  0.  0.
   465  4.64  0.  0.
   466  4.65  0.  0.
   467  4.66  0.  0.
   468  4.67  0.  0.
   469  4.68  0.  0.
   470  4.69  0.  0.
   471  4.70  0.  0.
   472  4.71  0.  0.
   473  4.72  0.  0.
   474  4.73  0.  0.
   475  4.74  0.  0.
   476  4.75  0.  0.
   477  4.76  0.  0.
   478  4.77  0.  0.
   479  4.78  0.  0.
   480  4.79  0.  0.
   481  4.80  0.  0.
   482  4.81  0.  0.
   483  4.82  0.  0.
   484  4.83  0.  0.
   485  4.84  0.  0.
   486  4.85  0.  0.
   487  4.86  0.  0.
   488  4.87  0.  0.
   489  4.88  0.  0.
   490  4.89  0.  0.
   491  4.90  0.  0.
   492  4.91  0.  0.
   493  4.92  0.  0.
   494  4.93  0.  0.
   495  4.94  0.  0.
   496  4.95  0.  0.
   497  4.96  0.  0.
   498  4.97  0.  0.
   499  4.98  0.  0.
   500  4.99  0.  0.
   501  5.00  0.  0.
   502  5.01  0.  0.
   503  5.02  0.  0.
   504  5.03  0.  0.
   505  5.04  0.  0.
   506  5.05  0.  0.
   507  5.06  0.  0.
   508  5.07  0.  0.
   509  5.08  0.  0.
   510  5.09  0.  0.
   511  5.10  0.  0.
   512  5.11  0.  0.
   513  5.12  0.  0.
   514  5.13  0.  0.
   515  5.14  0.  0.
   516  5.15  0.  0.
   517  5.16  0.  0.
   518  5.17  0.  0.
   519  5.18  0.  0.
   520  5.19  0.  0.
   521  5.20  0.  0.
   522  5.21  0.  0.
   523  5.22  0.  0.
   524  5.23  0.  0.
   525  5.24  0.  0.
   526  5.25  0.  0.
   527  5.26  0.  0.
   528  5.27  0.  0.
   529  5.28  0.  0.
   530  5.29  0.  0.
   531  5.30  0.  0.
   532  5.31  0.  0.
   533  5.32  0.  0.
   534  5.33  0.  0.
   535  5.34  0.  0.
   536  5.35  0.  0.
   537  5.36  0.  0.
   538  5.37  0.  0.
   539  5.38  0.  0.
   540  5.39  0.  0.
   541  5.40  0.  0.
   542  5.41  0.  0.
   543  5.42  0.  0.
   544  5.43  0.  0.
   545  5.44  0.  0.
   546  5.45  0.  0.
   547  5.46  0.  0.
   548  5.47  0.  0.
   549  5.48  0.  0.
   550  5.49  0.  0.
   551  5.50  0.  0.
   552  5.51  0.  0.
   553  5.52  0.  0.
   554  5.53  0.  0.
   555  5.54  0.  0.
   556  5.55  0.  0.
   557  5.56  0.  0.
   558  5.57  0.  0.
   559  5.58  0.  0.
   560  5.59  0.  0.
   561  5.60  0.  0.
   562  5.61  0.  0.
   563  5.62  0.  0.
   564  5.63  0.  0.
   565  5.64  0.  0.
   566  5.65  0.  0.
   567  5.66  0.  0.
   568  5.67  0.  0.
   569  5.68  0.  0.
   570  5.69  0.  0.
   571  5.70  0.  0.
   572  5.71  0.  0.
   573  5.72  0.  0.
   574  5.73  0.  0.
   575  5.74  0.  0.
   576  5.75  0.  0.
   577  5.76  0.  0.
   578  5.77  0.  0.
   579  5.78  0.  0.
   580  5.79  0.  0.
   581  5.80  0.  0.
   582  5.81  0.  0.
   583  5.82  0.  0.
   584  5.83  0.  0.
   585  5.84  0.  0.
   586  5.85  0.  0.
   587  5.86  0.  0.
   588  5.87  0.  0.
   589  5.88  0.  0.
   590  5.89  0.  0.
   591  5.90  0.  0.
   592  5.91  0.  0.
   593  5.92  0.  0.
   594  5.93  0.  0.
   595  5.94  0.  0.
   596  5.95  0.  0.
   597  5.96  0.  0.
   598  5.97  0.  0.
   599  5.98  0.  0.
   600  5.99  0.  0.
   1                        -4.1835398096268E+00 -8.6132464588303E-01
     1  0.0000000000000E+00 -1.7673096569526E-08  3.3990085107627E-08
     2  1.0000000000000E-02  2.4197180438697E-03 -1.0256214827637E-03
     3  2.0000000000000E-02  9.6715357897913E-03 -4.1007036676931E-03
     4  3.0000000000000E-02  2.1733199848411E-02 -9.2194191425129E-03
     5  4.0000000000000E-02  3.8566819501823E-02 -1.6370477739454E-02
     6  5.0000000000000E-02  6.0117706942290E-02 -2.5534843778808E-02
     7  6.0000000000000E-02  8.6312837644627E-02 -3.6682704751707E-02
     8  7.0000000000000E-02  1.1705901112870E-01 -4.9769848207397E-02
     9  8.0000000000000E-02  1.5224081004156E-01 -6.4733637600357E-02
    10  9.0000000000000E-02  1.9171846947206E-01 -8.1488804281822E-02
    11  1.0000000000000E-01  2.3532577815003E-01 -9.9923290574984E-02
    12  1.1000000000000E-01  2.8286813827541E-01 -1.1989438716006E-01
    13  1.2000000000000E-01  3.3412091092614E-01 -1.4122540636112E-01
    14  1.3000000000000E-01  3.8882816923620E-01 -1.6370312127674E-01
    15  1.4000000000000E-01  4.4670197191931E-01 -1.8707617930849E-01
    16  1.5000000000000E-01  5.0742225551502E-01 -2.1105466815066E-01
    17  1.6000000000000E-01  5.7063742539026E-01 -2.3531097368734E-01
    18  1.7000000000000E-01  6.3596570363050E-01 -2.5948202379194E-01
    19  1.8000000000000E-01  7.0299726721983E-01 -2.8317296129083E-01
    20  1.9000000000000E-01  7.7129718316811E-01 -3.0596223511825E-01
    21  2.0000000000000E-01  8.4040911940292E-01 -3.2740804288034E-01
    22  2.1000000000000E-01  9.0985978226642E-01 -3.4705600269067E-01
    23  2.2000000000000E-01  9.7916400431847E-01 -3.6444787928152E-01
    24  2.3000000000000E-01  1.0478303808141E+00 -3.7913114103458E-01
    25  2.4000000000000E-01  1.1153673306106E+00 -3.9066908258946E-01
    26  2.5000000000000E-01  1.1812894382094E+00 -3.9865121377293E-01
    27  2.6000000000000E-01  1.2451239188776E+00 -4.0270359118976E-01
    28  2.7000000000000E-01  1.3064170389254E+00 -4.0249875507342E-01
    29  2.8000000000000E-01  1.3647403186789E+00 -3.9776493170766E-01
    30  2.9000000000000E-01  1.4196963467559E+00 -3.8829417131455E-01
    31  3.0000000000000E-01  1.4709240410042E+00 -3.7394911277916E-01
    32  3.1000000000000E-01  1.5181032038099E+00 -3.5466809954829E-01
    33  3.2000000000000E-01  1.5609582371193E+00 -3.3046841470618E-01
    34  3.3000000000000E-01  1.5992609049821E+00 -3.0144745640700E-01
    35  3.4000000000000E-01  1.6328320580710E+00 -2.6778173599855E-01
    36  3.5000000000000E-01  1.6615422646652E+00 -2.2972364845789E-01
    37  3.6000000000000E-01  1.6853113251026E+00 -1.8759603607961E-01
    38  3.7000000000000E-01  1.7041066806637E+00 -1.4178463942518E-01
    39  3.8000000000000E-01  1.7179407621994E+00 -9.2728601955340E-02
    40  3.9000000000000E-01  1.7268673574094E+00 -4.0909264084024E-02
    41  4.0000000000000E-01  1.7309771074271E+00  1.3162453786339E-02
    42  4.1000000000000E-01  1.7303922721898E+00  6.8959723643324E-02
    43  4.2000000000000E-01  1.7252609289705E+00  1.2595413586304E-01
    44  4.3000000000000E-01  1.7157507885409E+00  1.8363024251156E-01
    45  4.4000000000000E-01  1.7020428279637E+00  2.4149986024837E-01
    46  4.5000000000000E-01  1.6843249474008E+00  2.9911566796889E-01
    47  4.6000000000000E-01  1.6627858601726E+00  3.5608364202813E-01
    48  4.7000000000000E-01  1.6376094204196E+00  4.1207389464267E-01
    49  4.8000000000000E-01  1.6089695811183E+00  4.6682951857075E-01
    50  4.9000000000000E-01  1.5770261571318E+00  5.2017309263618E-01
    51  5.0000000000000E-01  1.5419215438625E+00  5.7201056683995E-01
    52  5.1000000000000E-01  1.5037785125910E+00  6.2233232100039E-01
    53  5.2000000000000E-01  1.4626991695402E+00  6.7121127499358E-01
    54  5.3000000000000E-01  1.4187651281082E+00  7.1879801930662E-01
    55  5.4000000000000E-01  1.3720389036854E+00  7.6531302907610E-01
    56  5.5000000000000E-01  1.3225664992339E+00  8.1103612018411E-01
    57  5.6000000000000E-01  1.2703811086543E+00  8.5629339934087E-01
    58  5.7000000000000E-01  1.2155078251985E+00  9.0144204840830E-01
    59  5.8000000000000E-01  1.1579692051022E+00  9.4685336359989E-01
    60  5.9000000000000E-01  1.0977915034431E+00  9.9289453990095E-01
    61  6.0000000000000E-01  1.0350113711070E+00  1.0399097476195E+00
    62  6.1000000000000E-01  9.6968277966969E-01  1.0882010892851E+00
    63  6.2000000000000E-01  9.0188392580780E-01  1.1380100494583E+00
    64  6.3000000000000E-01  8.3172385915862E-01  1.1895000561903E+00
    65  6.4000000000000E-01  7.5934857778581E-01  1.2427407601811E+00
    66  6.5000000000000E-01  6.8494634373089E-01  1.2976946060218E+00
    67  6.6000000000000E-01  6.0875198747950E-01  1.3542062197081E+00
    68  6.7000000000000E-01  5.3104999421762E-01  1.4119950689331E+00
    69  6.8000000000000E-01  4.5217619593571E-01  1.4706517690711E+00
    70  6.9000000000000E-01  3.7251793095773E-01  1.5296383103945E+00
    71  7.0000000000000E-01  2.9251257533022E-01  1.5882923734578E+00
    72  7.1000000000000E-01  2.1264439750642E-01  1.6458357827584E+00
    73  7.2000000000000E-01  1.3343973757817E-01  1.7013870269821E+00
    74  7.3000000000000E-01  5.5460563482292E-02  1.7539776509267E+00
    75  7.4000000000000E-01 -2.0703492365162E-02  1.8025722031537E+00
    76  7.5000000000000E-01 -9.4444463222942E-02  1.8460913082369E+00
    77  7.6000000000000E-01 -1.6514654606656E-01  1.8834373266826E+00
    78  7.7000000000000E-01 -2.3219752716028E-01  1.9135219725494E+00
    79  7.8000000000000E-01 -2.9500085934630E-01  1.9352951815422E+00
    80  7.9000000000000E-01 -3.5298808696437E-01  1.9477744635309E+00
    81  8.0000000000000E-01 -4.0563129421164E-01  1.9500739351997E+00
    82  8.1000000000000E-01 -4.5245524158359E-01  1.9414322124596E+00
    83  8.2000000000000E-01 -4.9304885331369E-01  1.9212383493264E+00
    84  8.3000000000000E-01 -5.2707572669226E-01  1.8890550404824E+00
    85  8.4000000000000E-01 -5.5428335175324E-01  1.8446383583465E+00
    86  8.5000000000000E-01 -5.7451075674310E-01  1.7879533711196E+00
    87  8.6000000000000E-01 -5.8769433042531E-01  1.7191850842422E+00
    88  8.7000000000000E-01 -5.9387161575330E-01  1.6387442616782E+00
    89  8.8000000000000E-01 -5.9318291965192E-01  1.5472678125211E+00
    90  8.9000000000000E-01 -5.8587063925301E-01  1.4456135692344E+00
    91  9.0000000000000E-01 -5.7227626443023E-01  1.3348494326096E+00
    92  9.1000000000000E-01 -5.5283507823178E-01  1.2162370111844E+00
    93  9.2000000000000E-01 -5.2806863908312E-01  1.0912100351534E+00
    94  9.3000000000000E-01 -4.9857518966540E-01  9.6134797244328E-01
    95  9.4000000000000E-01 -4.6501819540448E-01  8.2834541334316E-01
    96  9.5000000000000E-01 -4.2811326884008E-01  6.9397791584818E-01
    97  9.6000000000000E-01 -3.8861378320865E-01  5.6006511294097E-01
    98  9.7000000000000E-01 -3.4729551794414E-01  4.2843197207488E-01
    99  9.8000000000000E-01 -3.0494070926780E-01  3.0086916333822E-01
   100  9.9000000000000E-01 -2.6232189963632E-01  1.7909353399026E-01
   101  1.0000000000000E+00 -2.2018598982904E-01  6.4709701712148E-02
   102  1.0100000000000E+00 -1.7923889649792E-01 -4.0826233724402E-02
   103  1.0200000000000E+00 -1.4013120597967E-01 -1.3623990063684E-01
   104  1.0300000000000E+00 -1.0344519227587E-01 -2.2046789434106E-01
   105  1.0400000000000E+00 -6.9683533923414E-02 -2.9268224330493E-01
   106  1.0500000000000E+00 -3.9260021814830E-02 -3.5230941555926E-01
   107  1.0600000000000E+00 -1.2492498936749E-02 -3.9904331299656E-01
   108  1.0700000000000E+00  1.0401784980880E-02 -4.3285185197157E-01
   109  1.0800000000000E+00  2.9308284483006E-02 -4.5397689231277E-01
   110  1.0900000000000E+00  4.4214682807324E-02 -4.6292744838315E-01
   111  1.1000000000000E+00  5.5207846454600E-02 -4.6046629092153E-01
   112  1.1100000000000E+00  6.2468295724750E-02 -4.4759022250543E-01
   113  1.1200000000000E+00  6.6262343847127E-02 -4.2550447694504E-01
   114  1.1300000000000E+00  6.6932120601683E-02 -3.9559185055475E-01
   115  1.1400000000000E+00  6.4883753512469E-02 -3.5937731481051E-01
   116  1.1500000000000E+00  6.0574029991696E-02 -3.1848898344463E-01
   117  1.1600000000000E+00  5.4495904961800E-02 -2.7461640704586E-01
   118  1.1700000000000E+00  4.7163250894820E-02 -2.2946724486219E-01
   119  1.1800000000000E+00  3.9095262031708E-02 -1.8472340451273E-01
   120  1.1900000000000E+00  3.0800809418043E-02 -1.4199755372207E-01
   121  1.2000000000000E+00  2.2761086368699E-02 -1.0278855625275E-01
   122  1.2100000000000E+00  1.5422547041195E-02 -6.8453198913806E-02
   123  1.2200000000000E+00  9.1812861645256E-03 -4.0166223716031E-02
   124  1.2300000000000E+00  4.3709023505929E-03 -1.8893618295596E-02
   125  1.2400000000000E+00  1.2453651685191E-03 -5.3308575282614E-03
   126  1.2500000000000E+00  3.5853024377818E-05 -1.5212400923113E-04
   127  1.2600000000000E+00  4.8838861934411E-06 -2.0746884110758E-05
   128  1.2700000000000E+00 -1.4565461547880E-06  6.2136556157090E-06
   129  1.28  0. -0.
   130  1.29  0.  0.
   131  1.30  0.  0.
   132  1.31  0.  0.
   133  1.32  0.  0.
   134  1.33  0.  0.
   135  1.34  0.  0.
   136  1.35  0.  0.
   137  1.36  0.  0.
   138  1.37  0.  0.
   139  1.38  0.  0.
   140  1.39  0.  0.
   141  1.40  0.  0.
   142  1.41  0.  0.
   143  1.42  0.  0.
   144  1.43  0.  0.
   145  1.44  0.  0.
   146  1.45  0.  0.
   147  1.46  0.  0.
   148  1.47  0.  0.
   149  1.48  0.  0.
   150  1.49  0.  0.
   151  1.50  0.  0.
   152  1.51  0.  0.
   153  1.52  0.  0.
   154  1.53  0.  0.
   155  1.54  0.  0.
   156  1.55  0.  0.
   157  1.56  0.  0.
   158  1.57  0.  0.
   159  1.58  0.  0.
   160  1.59  0.  0.
   161  1.60  0.  0.
   162  1.61  0.  0.
   163  1.62  0.  0.
   164  1.63  0.  0.
   165  1.64  0.  0.
   166  1.65  0.  0.
   167  1.66  0.  0.
   168  1.67  0.  0.
   169  1.68  0.  0.
   170  1.69  0.  0.
   171  1.70  0.  0.
   172  1.71  0.  0.
   173  1.72  0.  0.
   174  1.73  0.  0.
   175  1.74  0.  0.
   176  1.75  0.  0.
   177  1.76  0.  0.
   178  1.77  0.  0.
   179  1.78  0.  0.
   180  1.79  0.  0.
   181  1.80  0.  0.
   182  1.81  0.  0.
   183  1.82  0.  0.
   184  1.83  0.  0.
   185  1.84  0.  0.
   186  1.85  0.  0.
   187  1.86  0.  0.
   188  1.87  0.  0.
   189  1.88  0.  0.
   190  1.89  0.  0.
   191  1.90  0.  0.
   192  1.91  0.  0.
   193  1.92  0.  0.
   194  1.93  0.  0.
   195  1.94  0.  0.
   196  1.95  0.  0.
   197  1.96  0.  0.
   198  1.97  0.  0.
   199  1.98  0.  0.
   200  1.99  0.  0.
   201  2.00  0.  0.
   202  2.01  0.  0.
   203  2.02  0.  0.
   204  2.03  0.  0.
   205  2.04  0.  0.
   206  2.05  0.  0.
   207  2.06  0.  0.
   208  2.07  0.  0.
   209  2.08  0.  0.
   210  2.09  0.  0.
   211  2.10  0.  0.
   212  2.11  0.  0.
   213  2.12  0.  0.
   214  2.13  0.  0.
   215  2.14  0.  0.
   216  2.15  0.  0.
   217  2.16  0.  0.
   218  2.17  0.  0.
   219  2.18  0.  0.
   220  2.19  0.  0.
   221  2.20  0.  0.