C     ONCVPSP-4.0.1  r_core=   1.20278   1.25421
      6.0000      4.0000      250217    zatom,zion,pspd
     8       2   1     4   600     0    pspcod,pspxc,lmax,lloc,mmax,r2well
  5.99000000  4.00000000  0.00000000    rchrg fchrg qchrg
     2     2     0     0    nproj
     3     1           extension_switch
     3     0     0    nprojso
   0                         6.5413605607831E+00  3.5401337449369E-01
     1  0.0000000000000E+00  5.6311795226804E-09 -3.6135468894916E-08
     2  1.0000000000000E-02  6.5008671133752E-02  4.1400315427451E-02
     3  2.0000000000000E-02  1.3001411416130E-01  8.1821377540006E-02
     4  3.0000000000000E-02  1.9501027691661E-01  1.2030521971948E-01
     5  4.0000000000000E-02  2.5998552781649E-01  1.5593599693581E-01
     6  5.0000000000000E-02  3.2492003642329E-01  1.8785992655274E-01
     7  6.0000000000000E-02  3.8978335420679E-01  2.1530391161822E-01
     8  7.0000000000000E-02  4.5453225545402E-01  2.3759245099317E-01
     9  8.0000000000000E-02  5.1910889264444E-01  2.5416247680773E-01
    10  9.0000000000000E-02  5.8343931379471E-01  2.6457580346685E-01
    11  1.0000000000000E-01  6.4743238142447E-01  2.6852892284264E-01
    12  1.1000000000000E-01  7.1097912406912E-01  2.6585993633658E-01
    13  1.2000000000000E-01  7.7395254184959E-01  2.5655247499634E-01
    14  1.3000000000000E-01  8.3620787770316E-01  2.4073652256391E-01
    15  1.4000000000000E-01  8.9758335569099E-01  2.1868612187991E-01
    16  1.5000000000000E-01  9.5790137754414E-01  1.9081401109745E-01
    17  1.6000000000000E-01  1.0169701585067E+00  1.5766330128256E-01
    18  1.7000000000000E-01  1.0745857737975E+00  1.1989636982699E-01
    19  1.8000000000000E-01  1.1305345778475E+00  7.8281203349262E-02
    20  1.9000000000000E-01  1.1845959500743E+00  3.3675478161240E-02
    21  2.0000000000000E-01  1.2365453135080E+00 -1.2991285222195E-02
    22  2.1000000000000E-01  1.2861573662464E+00 -6.0737115680697E-02
    23  2.2000000000000E-01  1.3332094606244E+00 -1.0854812188316E-01
    24  2.3000000000000E-01  1.3774850612531E+00 -1.5539972334105E-01
    25  2.4000000000000E-01  1.4187772107939E+00 -2.0027813032429E-01
    26  2.5000000000000E-01  1.4568919315399E+00 -2.4220161470854E-01
    27  2.6000000000000E-01  1.4916514916045E+00 -2.8024111736225E-01
    28  2.7000000000000E-01  1.5228974667513E+00 -3.1353975084312E-01
    29  2.8000000000000E-01  1.5504935326062E+00 -3.4133077871009E-01
    30  2.9000000000000E-01  1.5743279270922E+00 -3.6295368421493E-01
    31  3.0000000000000E-01  1.5943155293277E+00 -3.7786798088584E-01
    32  3.1000000000000E-01  1.6103995087919E+00 -3.8566446473967E-01
    33  3.2000000000000E-01  1.6225525071391E+00 -3.8607366159063E-01
    34  3.3000000000000E-01  1.6307773244589E+00 -3.7897128205260E-01
    35  3.4000000000000E-01  1.6351070918400E+00 -3.6438056013214E-01
    36  3.5000000000000E-01  1.6356049225891E+00 -3.4247141746400E-01
    37  3.6000000000000E-01  1.6323630451698E+00 -3.1355646286776E-01
    38  3.7000000000000E-01  1.6255014316347E+00 -2.7808390458522E-01
    39  3.8000000000000E-01  1.6151659457989E+00 -2.3662751886955E-01
    40  3.9000000000000E-01  1.6015260454341E+00 -1.8987388213793E-01
    41  4.0000000000000E-01  1.5847720821202E+00 -1.3860713331895E-01
    42  4.1000000000000E-01  1.5651122508986E+00 -8.3691587058407E-02
    43  4.2000000000000E-01  1.5427692493248E+00 -2.6052565928643E-02
    44  4.3000000000000E-01  1.5179767117703E+00  3.3344140310553E-02
    45  4.4000000000000E-01  1.4909754897320E+00  9.3513748903556E-02
    46  4.5000000000000E-01  1.4620098523625E+00  1.5347442995695E-01
    47  4.6000000000000E-01  1.4313236833590E+00  2.1226924956083E-01
    48  4.7000000000000E-01  1.3991567506892E+00  2.6898763314090E-01
    49  4.8000000000000E-01  1.3657411243797E+00  3.2278587947607E-01
    50  4.9000000000000E-01  1.3312978147581E+00  3.7290627327875E-01
    51  5.0000000000000E-01  1.2960336991783E+00  4.1869437137954E-01
    52  5.1000000000000E-01  1.2601387994514E+00  4.5961407387219E-01
    53  5.2000000000000E-01  1.2237839650625E+00  4.9526013634820E-01
    54  5.3000000000000E-01  1.1871190089223E+00  5.2536783169355E-01
    55  5.4000000000000E-01  1.1502713330481E+00  5.4981952878296E-01
    56  5.5000000000000E-01  1.1133450713754E+00  5.6864801959293E-01
    57  5.6000000000000E-01  1.0764207660853E+00  5.8203649445505E-01
    58  5.7000000000000E-01  1.0395555826127E+00  5.9031513598146E-01
    59  5.8000000000000E-01  1.0027840571021E+00  5.9395437414868E-01
    60  5.9000000000000E-01  9.6611935874907E-01  5.9355491663010E-01
    61  6.0000000000000E-01  9.2955503843623E-01  5.8983473821709E-01
    62  6.1000000000000E-01  8.9306722457354E-01  5.8361327959743E-01
    63  6.2000000000000E-01  8.5661721731272E-01  5.7579316745715E-01
    64  6.3000000000000E-01  8.2015442352723E-01  5.6733982351451E-01
    65  6.4000000000000E-01  7.8361956732377E-01  5.5925937848484E-01
    66  6.5000000000000E-01  7.4694810454593E-01  5.5257534704687E-01
    67  6.6000000000000E-01  7.1007376488507E-01  5.4830455074416E-01
    68  6.7000000000000E-01  6.7293214193840E-01  5.4743279669909E-01
    69  6.8000000000000E-01  6.3546424992993E-01  5.5089083053308E-01
    70  6.9000000000000E-01  5.9761996588067E-01  5.5953108167813E-01
    71  7.0000000000000E-01  5.5936127779151E-01  5.7410570826003E-01
    72  7.1000000000000E-01  5.2066526286124E-01  5.9524642707247E-01
    73  7.2000000000000E-01  4.8152672484268E-01  6.2344658221914E-01
    74  7.3000000000000E-01  4.4196042625040E-01  6.5904586435388E-01
    75  7.4000000000000E-01  4.0200285914571E-01  7.0221804188794E-01
    76  7.5000000000000E-01  3.6171350748574E-01  7.5296200703248E-01
    77  7.6000000000000E-01  3.2117556435011E-01  8.1109637424501E-01
    78  7.7000000000000E-01  2.8049607854489E-01  8.7625779785157E-01
    79  7.8000000000000E-01  2.3980551690629E-01  9.4790310072818E-01
    80  7.9000000000000E-01  1.9925674084646E-01  1.0253152284540E+00
    81  8.0000000000000E-01  1.5902340805058E-01  1.1076129648694E+00
    82  8.1000000000000E-01  1.1929782249735E-01  1.1937642670803E+00
    83  8.2000000000000E-01  8.0288267878470E-02  1.2826030022453E+00
    84  8.3000000000000E-01  4.2215870791352E-02  1.3728487965292E+00
    85  8.4000000000000E-01  5.3110505355266E-03  1.4631296399024E+00
    86  8.5000000000000E-01 -3.0190378263149E-02  1.5520068304054E+00
    87  8.6000000000000E-01 -6.4051375845971E-02  1.6380017893575E+00
    88  8.7000000000000E-01 -9.6038039286704E-02  1.7196242358799E+00
    89  8.8000000000000E-01 -1.2592407007807E-01  1.7954011759699E+00
    90  8.9000000000000E-01 -1.5349525778666E-01  1.8639061389409E+00
    91  9.0000000000000E-01 -1.7855388860602E-01  1.9237880828628E+00
    92  9.1000000000000E-01 -2.0092298785127E-01  1.9737993909987E+00
    93  9.2000000000000E-01 -2.2045030749196E-01  2.0128223932016E+00
    94  9.3000000000000E-01 -2.3701197368505E-01  2.0398938696444E+00
    95  9.4000000000000E-01 -2.5051571488169E-01  2.0542270287015E+00
    96  9.5000000000000E-01 -2.6090359833920E-01  2.0552304956629E+00
    97  9.6000000000000E-01 -2.6815421163484E-01  2.0425239033675E+00
    98  9.7000000000000E-01 -2.7228423589174E-01  2.0159497388088E+00
    99  9.8000000000000E-01 -2.7334936868528E-01  1.9755811700017E+00
   100  9.9000000000000E-01 -2.7144456679121E-01  1.9217256536020E+00
   101  1.0000000000000E+00 -2.6670359181387E-01  1.8549242043568E+00
   102  1.0100000000000E+00 -2.5929785505636E-01  1.7759462909473E+00
   103  1.0200000000000E+00 -2.4943457148633E-01  1.6857804074125E+00
   104  1.0300000000000E+00 -2.3735424604333E-01  1.5856204534316E+00
   105  1.0400000000000E+00 -2.2332752856997E-01  1.4768481386809E+00
   106  1.0500000000000E+00 -2.0765148605941E-01  1.3610117045621E+00
   107  1.0600000000000E+00 -1.9064535243256E-01  1.2398013291746E+00
   108  1.0700000000000E+00 -1.7264582649204E-01  1.1150216472155E+00
   109  1.0800000000000E+00 -1.5400199779138E-01  9.8856187394131E-01
   110  1.0900000000000E+00 -1.3506998774929E-01  8.6236407040810E-01
   111  1.1000000000000E+00 -1.1620739926952E-01  7.3839012492172E-01
   112  1.1100000000000E+00 -9.7767672256154E-02  6.1858805206476E-01
   113  1.1200000000000E+00 -8.0094445645886E-02  5.0485823150831E-01
   114  1.1300000000000E+00 -6.3516003771896E-02  3.9902006735337E-01
   115  1.1400000000000E+00 -4.8340040585384E-02  3.0278051926853E-01
   116  1.1500000000000E+00 -3.4842545172595E-02  2.1766559874430E-01
   117  1.1600000000000E+00 -2.3266741892021E-02  1.4501373675526E-01
   118  1.1700000000000E+00 -1.3840719944517E-02  8.6088667986408E-02
   119  1.1800000000000E+00 -6.7509041741424E-03  4.1915149019540E-02
   120  1.1900000000000E+00 -2.1340992189105E-03  1.3229564963143E-02
   121  1.2000000000000E+00 -1.3456920311582E-04  8.3299231433572E-04
   122  1.2100000000000E+00 -2.5044452080615E-08  1.5503521656363E-07
   123  1.2200000000000E+00  1.7051636080853E-06 -1.0562360946373E-05
   124  1.23  0.  0.
   125  1.24  0.  0.
   126  1.25  0.  0.
   127  1.26  0.  0.
   128  1.27  0.  0.
   129  1.28  0.  0.
   130  1.29  0.  0.
   131  1.30  0.  0.
   132  1.31  0.  0.
   133  1.32  0.  0.
   134  1.33  0.  0.
   135  1.34  0.  0.
   136  1.35  0.  0.
   137  1.36  0.  0.
   138  1.37  0.  0.
   139  1.38  0.  0.
   140  1.39  0.  0.
   141  1.40  0.  0.
   142  1.41  0.  0.
   143  1.42  0.  0.
   144  1.43  0.  0.
   145  1.44  0.  0.
   146  1.45  0.  0.
   147  1.46  0.  0.
   148  1.47  0.  0.
   149  1.48  0.  0.
   150  1.49  0.  0.
   151  1.50  0.  0.
   152  1.51  0.  0.
   153  1.52  0.  0.
   154  1.53  0.  0.
   155  1.54  0.  0.
   156  1.55  0.  0.
   157  1.56  0.  0.
   158  1.57  0.  0.
   159  1.58  0.  0.
   160  1.59  0.  0.
   161  1.60  0.  0.
   162  1.61  0.  0.
   163  1.62  0.  0.
   164  1.63  0.  0.
   165  1.64  0.  0.
   166  1.65  0.  0.
   167  1.66  0.  0.
   168  1.67  0.  0.
   169  1.68  0.  0.
   170  1.69  0.  0.
   171  1.70  0.  0.
   172  1.71  0.  0.
   173  1.72  0.  0.
   174  1.73  0.  0.
   175  1.74  0.  0.
   176  1.75  0.  0.
   177  1.76  0.  0.
   178  1.77  0.  0.
   179  1.78  0.  0.
   180  1.79  0.  0.
   181  1.80  0.  0.
   182  1.81  0.  0.
   183  1.82  0.  0.
   184  1.83  0.  0.
   185  1.84  0.  0.
   186  1.85  0.  0.
   187  1.86  0.  0.
   188  1.87  0.  0.
   189  1.88  0.  0.
   190  1.89  0.  0.
   191  1.90  0.  0.
   192  1.91  0.  0.
   193  1.92  0.  0.
   194  1.93  0.  0.
   195  1.94  0.  0.
   196  1.95  0.  0.
   197  1.96  0.  0.
   198  1.97  0.  0.
   199  1.98  0.  0.
   200  1.99  0.  0.
   201  2.00  0.  0.
   202  2.01  0.  0.
   203  2.02  0.  0.
   204  2.03  0.  0.
   205  2.04  0.  0.
   206  2.05  0.  0.
   207  2.06  0.  0.
   208  2.07  0.  0.
   209  2.08  0.  0.
   210  2.09  0.  0.
   211  2.10  0.  0.
   212  2.11  0.  0.
   213  2.12  0.  0.
   214  2.13  0.  0.
   215  2.14  0.  0.
   216  2.15  0.  0.
   217  2.16  0.  0.
   218  2.17  0.  0.
   219  2.18  0.  0.
   220  2.19  0.  0.
   221  2.20  0.  0.
   222  2.21  0.  0.
   223  2.22  0.  0.
   224  2.23  0.  0.
   225  2.24  0.  0.
   226  2.25  0.  0.
   227  2.26  0.  0.
   228  2.27  0.  0.
   229  2.28  0.  0.
   230  2.29  0.  0.
   231  2.30  0.  0.
   232  2.31  0.  0.
   233  2.32  0.  0.
   234  2.33  0.  0.
   235  2.34  0.  0.
   236  2.35  0.  0.
   237  2.36  0.  0.
   238  2.37  0.  0.
   239  2.38  0.  0.
   240  2.39  0.  0.
   241  2.40  0.  0.
   242  2.41  0.  0.
   243  2.42  0.  0.
   244  2.43  0.  0.
   245  2.44  0.  0.
   246  2.45  0.  0.
   247  2.46  0.  0.
   248  2.47  0.  0.
   249  2.48  0.  0.
   250  2.49  0.  0.
   251  2.50  0.  0.
   252  2.51  0.  0.
   253  2.52  0.  0.
   254  2.53  0.  0.
   255  2.54  0.  0.
   256  2.55  0.  0.
   257  2.56  0.  0.
   258  2.57  0.  0.
   259  2.58  0.  0.
   260  2.59  0.  0.
   261  2.60  0.  0.
   262  2.61  0.  0.
   263  2.62  0.  0.
   264  2.63  0.  0.
   265  2.64  0.  0.
   266  2.65  0.  0.
   267  2.66  0.  0.
   268  2.67  0.  0.
   269  2.68  0.  0.
   270  2.69  0.  0.
   271  2.70  0.  0.
   272  2.71  0.  0.
   273  2.72  0.  0.
   274  2.73  0.  0.
   275  2.74  0.  0.
   276  2.75  0.  0.
   277  2.76  0.  0.
   278  2.77  0.  0.
   279  2.78  0.  0.
   280  2.79  0.  0.
   281  2.80  0.  0.
   282  2.81  0.  0.
   283  2.82  0.  0.
   284  2.83  0.  0.
   285  2.84  0.  0.
   286  2.85  0.  0.
   287  2.86  0.  0.
   288  2.87  0.  0.
   289  2.88  0.  0.
   290  2.89  0.  0.
   291  2.90  0.  0.
   292  2.91  0.  0.
   293  2.92  0.  0.
   294  2.93  0.  0.
   295  2.94  0.  0.
   296  2.95  0.  0.
   297  2.96  0.  0.
   298  2.97  0.  0.
   299  2.98  0.  0.
   300  2.99  0.  0.
   301  3.00  0.  0.
   302  3.01  0.  0.
   303  3.02  0.  0.
   304  3.03  0.  0.
   305  3.04  0.  0.
   306  3.05  0.  0.
   307  3.06  0.  0.
   308  3.07  0.  0.
   309  3.08  0.  0.
   310  3.09  0.  0.
   311  3.10  0.  0.
   312  3.11  0.  0.
   313  3.12  0.  0.
   314  3.13  0.  0.
   315  3.14  0.  0.
   316  3.15  0.  0.
   317  3.16  0.  0.
   318  3.17  0.  0.
   319  3.18  0.  0.
   320  3.19  0.  0.
   321  3.20  0.  0.
   322  3.21  0.  0.
   323  3.22  0.  0.
   324  3.23  0.  0.
   325  3.24  0.  0.
   326  3.25  0.  0.
   327  3.26  0.  0.
   328  3.27  0.  0.
   329  3.28  0.  0.
   330  3.29  0.  0.
   331  3.30  0.  0.
   332  3.31  0.  0.
   333  3.32  0.  0.
   334  3.33  0.  0.
   335  3.34  0.  0.
   336  3.35  0.  0.
   337  3.36  0.  0.
   338  3.37  0.  0.
   339  3.38  0.  0.
   340  3.39  0.  0.
   341  3.40  0.  0.
   342  3.41  0.  0.
   343  3.42  0.  0.
   344  3.43  0.  0.
   345  3.44  0.  0.
   346  3.45  0.  0.
   347  3.46  0.  0.
   348  3.47  0.  0.
   349  3.48  0.  0.
   350  3.49  0.  0.
   351  3.50  0.  0.
   352  3.51  0.  0.
   353  3.52  0.  0.
   354  3.53  0.  0.
   355  3.54  0.  0.
   356  3.55  0.  0.
   357  3.56  0.  0.
   358  3.57  0.  0.
   359  3.58  0.  0.
   360  3.59  0.  0.
   361  3.60  0.  0.
   362  3.61  0.  0.
   363  3.62  0.  0.
   364  3.63  0.  0.
   365  3.64  0.  0.
   366  3.65  0.  0.
   367  3.66  0.  0.
   368  3.67  0.  0.
   369  3.68  0.  0.
   370  3.69  0.  0.
   371  3.70  0.  0.
   372  3.71  0.  0.
   373  3.72  0.  0.
   374  3.73  0.  0.
   375  3.74  0.  0.
   376  3.75  0.  0.
   377  3.76  0.  0.
   378  3.77  0.  0.
   379  3.78  0.  0.
   380  3.79  0.  0.
   381  3.80  0.  0.
   382  3.81  0.  0.
   383  3.82  0.  0.
   384  3.83  0.  0.
   385  3.84  0.  0.
   386  3.85  0.  0.
   387  3.86  0.  0.
   388  3.87  0.  0.
   389  3.88  0.  0.
   390  3.89  0.  0.
   391  3.90  0.  0.
   392  3.91  0.  0.
   393  3.92  0.  0.
   394  3.93  0.  0.
   395  3.94  0.  0.
   396  3.95  0.  0.
   397  3.96  0.  0.
   398  3.97  0.  0.
   399  3.98  0.  0.
   400  3.99  0.  0.
   401  4.00  0.  0.
   402  4.01  0.  0.
   403  4.02  0.  0.
   404  4.03  0.  0.
   405  4.04  0.  0.
   406  4.05  0.  0.
   407  4.06  0.  0.
   408  4.07  0.  0.
   409  4.08  0.  0.
   410  4.09  0.  0.
   411  4.10  0.  0.
   412  4.11  0.  0.
   413  4.12  0.  0.
   414  4.13  0.  0.
   415  4.14  0.  0.
   416  4.15  0.  0.
   417  4.16  0.  0.
   418  4.17  0.  0.
   419  4.18  0.  0.
   420  4.19  0.  0.
   421  4.20  0.  0.
   422  4.21  0.  0.
   423  4.22  0.  0.
   424  4.23  0.  0.
   425  4.24  0.  0.
   426  4.25  0.  0.
   427  4.26  0.  0.
   428  4.27  0.  0.
   429  4.28  0.  0.
   430  4.29  0.  0.
   431  4.30  0.  0.
   432  4.31  0.  0.
   433  4.32  0.  0.
   434  4.33  0.  0.
   435  4.34  0.  0.
   436  4.35  0.  0.
   437  4.36  0.  0.
   438  4.37  0.  0.
   439  4.38  0.  0.
   440  4.39  0.  0.
   441  4.40  0.  0.
   442  4.41  0.  0.
   443  4.42  0.  0.
   444  4.43  0.  0.
   445  4.44  0.  0.
   446  4.45  0.  0.
   447  4.46  0.  0.
   448  4.47  0.  0.
   449  4.48  0.  0.
   450  4.49  0.  0.
   451  4.50  0.  0.
   452  4.51  0.  0.
   453  4.52  0.  0.
   454  4.53  0.  0.
   455  4.54  0.  0.
   456  4.55  0.  0.
   457  4.56  0.  0.
   458  4.57  0.  0.
   459  4.58  0.  0.
   460  4.59  0.  0.
   461  4.60  0.  0.
   462  4.61  0.  0.
   463  4.62  0.  0.
   464  4.63  0.  0.
   465  4.64  0.  0.
   466  4.65  0.  0.
   467  4.66  0.  0.
   468  4.67  0.  0.
   469  4.68  0.  0.
   470  4.69  0.  0.
   471  4.70  0.  0.
   472  4.71  0.  0.
   473  4.72  0.  0.
   474  4.73  0.  0.
   475  4.74  0.  0.
   476  4.75  0.  0.
   477  4.76  0.  0.
   478  4.77  0.  0.
   479  4.78  0.  0.
   480  4.79  0.  0.
   481  4.80  0.  0.
   482  4.81  0.  0.
   483  4.82  0.  0.
   484  4.83  0.  0.
   485  4.84  0.  0.
   486  4.85  0.  0.
   487  4.86  0.  0.
   488  4.87  0.  0.
   489  4.88  0.  0.
   490  4.89  0.  0.
   491  4.90  0.  0.
   492  4.91  0.  0.
   493  4.92  0.  0.
   494  4.93  0.  0.
   495  4.94  0.  0.
   496  4.95  0.  0.
   497  4.96  0.  0.
   498  4.97  0.  0.
   499  4.98  0.  0.
   500  4.99  0.  0.
   501  5.00  0.  0.
   502  5.01  0.  0.
   503  5.02  0.  0.
   504  5.03  0.  0.
   505  5.04  0.  0.
   506  5.05  0.  0.
   507  5.06  0.  0.
   508  5.07  0.  0.
   509  5.08  0.  0.
   510  5.09  0.  0.
   511  5.10  0.  0.
   512  5.11  0.  0.
   513  5.12  0.  0.
   514  5.13  0.  0.
   515  5.14  0.  0.
   516  5.15  0.  0.
   517  5.16  0.  0.
   518  5.17  0.  0.
   519  5.18  0.  0.
   520  5.19  0.  0.
   521  5.20  0.  0.
   522  5.21  0.  0.
   523  5.22  0.  0.
   524  5.23  0.  0.
   525  5.24  0.  0.
   526  5.25  0.  0.
   527  5.26  0.  0.
   528  5.27  0.  0.
   529  5.28  0.  0.
   530  5.29  0.  0.
   531  5.30  0.  0.
   532  5.31  0.  0.
   533  5.32  0.  0.
   534  5.33  0.  0.
   535  5.34  0.  0.
   536  5.35  0.  0.
   537  5.36  0.  0.
   538  5.37  0.  0.
   539  5.38  0.  0.
   540  5.39  0.  0.
   541  5.40  0.  0.
   542  5.41  0.  0.
   543  5.42  0.  0.
   544  5.43  0.  0.
   545  5.44  0.  0.
   546  5.45  0.  0.
   547  5.46  0.  0.
   548  5.47  0.  0.
   549  5.48  0.  0.
   550  5.49  0.  0.
   551  5.50  0.  0.
   552  5.51  0.  0.
   553  5.52  0.  0.
   554  5.53  0.  0.
   555  5.54  0.  0.
   556  5.55  0.  0.
   557  5.56  0.  0.
   558  5.57  0.  0.
   559  5.58  0.  0.
   560  5.59  0.  0.
   561  5.60  0.  0.
   562  5.61  0.  0.
   563  5.62  0.  0.
   564  5.63  0.  0.
   565  5.64  0.  0.
   566  5.65  0.  0.
   567  5.66  0.  0.
   568  5.67  0.  0.
   569  5.68  0.  0.
   570  5.69  0.  0.
   571  5.70  0.  0.
   572  5.71  0.  0.
   573  5.72  0.  0.
   574  5.73  0.  0.
   575  5.74  0.  0.
   576  5.75  0.  0.
   577  5.76  0.  0.
   578  5.77  0.  0.
   579  5.78  0.  0.
   580  5.79  0.  0.
   581  5.80  0.  0.
   582  5.81  0.  0.
   583  5.82  0.  0.
   584  5.83  0.  0.
   585  5.84  0.  0.
   586  5.85  0.  0.
   587  5.86  0.  0.
   588  5.87  0.  0.
   589  5.88  0.  0.
   590  5.89  0.  0.
   591  5.90  0.  0.
   592  5.91  0.  0.
   593  5.92  0.  0.
   594  5.93  0.  0.
   595  5.94  0.  0.
   596  5.95  0.  0.
   597  5.96  0.  0.
   598  5.97  0.  0.
   599  5.98  0.  0.
   600  5.99  0.  0.
   1                        -4.1497264724156E+00 -8.5483983402262E-01
     1  0.0000000000000E+00 -1.7745555719317E-08  3.4150048955350E-08
     2  1.0000000000000E-02  2.4001882428209E-03 -1.0038641561764E-03
     3  2.0000000000000E-02  9.5937053211037E-03 -4.0141245297544E-03
     4  3.0000000000000E-02  2.1559160106328E-02 -9.0262966131241E-03
     5  4.0000000000000E-02  3.8260085847362E-02 -1.6031303116863E-02
     6  5.0000000000000E-02  5.9643760770445E-02 -2.5013153408441E-02
     7  6.0000000000000E-02  8.5639641093046E-02 -3.5945859567593E-02
     8  7.0000000000000E-02  1.1615748686393E-01 -4.8789746167827E-02
     9  8.0000000000000E-02  1.5108527878742E-01 -6.3487345043600E-02
    10  9.0000000000000E-02  1.9028703826253E-01 -7.9959092930054E-02
    11  1.0000000000000E-01  2.3360067271647E-01 -9.8099067857107E-02
    12  1.1000000000000E-01  2.8083597353247E-01 -1.1777100874810E-01
    13  1.2000000000000E-01  3.3177289421918E-01 -1.3880486135254E-01
    14  1.3000000000000E-01  3.8616023186818E-01 -1.6099408233605E-01
    15  1.4000000000000E-01  4.4371482549449E-01 -1.8409391231893E-01
    16  1.5000000000000E-01  5.0412137082172E-01 -2.0782079851919E-01
    17  1.6000000000000E-01  5.6703293288830E-01 -2.3185310937839E-01
    18  1.7000000000000E-01  6.3207221609667E-01 -2.5583323839662E-01
    19  1.8000000000000E-01  6.9883362671253E-01 -2.7937114391537E-01
    20  1.9000000000000E-01  7.6688613616769E-01 -3.0204931751809E-01
    21  2.0000000000000E-01  8.3577692572702E-01 -3.2342911798143E-01
    22  2.1000000000000E-01  9.0503576510039E-01 -3.4305835231339E-01
    23  2.2000000000000E-01  9.7418005038640E-01 -3.6047993239073E-01
    24  2.3000000000000E-01  1.0427204012861E+00 -3.7524138704638E-01
    25  2.4000000000000E-01  1.1101666947370E+00 -3.8690496703242E-01
    26  2.5000000000000E-01  1.1760343928283E+00 -3.9505804578941E-01
    27  2.6000000000000E-01  1.2398510078043E+00 -3.9932349384250E-01
    28  2.7000000000000E-01  1.3011625367412E+00 -3.9936969007221E-01
    29  2.8000000000000E-01  1.3595396935528E+00 -3.9491982989342E-01
    30  2.9000000000000E-01  1.4145837666122E+00 -3.8576019895791E-01
    31  3.0000000000000E-01  1.4659319365785E+00 -3.7174710142169E-01
    32  3.1000000000000E-01  1.5132619008944E+00 -3.5281216372709E-01
    33  3.2000000000000E-01  1.5562956686034E+00 -3.2896577748140E-01
    34  3.3000000000000E-01  1.5948024111624E+00 -3.0029849722373E-01
    35  3.4000000000000E-01  1.6286002811770E+00 -2.6698026916427E-01
    36  3.5000000000000E-01  1.6575571406888E+00 -2.2925743354899E-01
    37  3.6000000000000E-01  1.6815901728886E+00 -1.8744751408745E-01
    38  3.7000000000000E-01  1.7006643849233E+00 -1.4193188062715E-01
    39  3.8000000000000E-01  1.7147900437304E+00 -9.3146443591346E-02
    40  3.9000000000000E-01  1.7240191204675E+00 -4.1570608196109E-02
    41  4.0000000000000E-01  1.7284408510041E+00  1.2285219260635E-02
    42  4.1000000000000E-01  1.7281765490323E+00  6.7893223965529E-02
    43  4.2000000000000E-01  1.7233738336393E+00  1.2472247774435E-01
    44  4.3000000000000E-01  1.7142004537689E+00  1.8225350475290E-01
    45  4.4000000000000E-01  1.7008379071285E+00  2.3999266277790E-01
    46  4.5000000000000E-01  1.6834750601643E+00  2.9748587637526E-01
    47  4.6000000000000E-01  1.6623019783269E+00  3.5433126394673E-01
    48  4.7000000000000E-01  1.6375041717622E+00  4.1019022168258E-01
    49  4.8000000000000E-01  1.6092574507785E+00  4.6479656283673E-01
    50  4.9000000000000E-01  1.5777235681826E+00  5.1796336033099E-01
    51  5.0000000000000E-01  1.5430468022460E+00  5.6958720302114E-01
    52  5.1000000000000E-01  1.5053516052940E+00  6.1964964947551E-01
    53  5.2000000000000E-01  1.4647414094994E+00  6.6821574579594E-01
    54  5.3000000000000E-01  1.4212986443819E+00  7.1542956349051E-01
    55  5.4000000000000E-01  1.3750859808592E+00  7.6150680704996E-01
    56  5.5000000000000E-01  1.3261487756825E+00  8.0672463585582E-01
    57  5.6000000000000E-01  1.2745186489729E+00  8.5140893840887E-01
    58  5.7000000000000E-01  1.2202180876711E+00  8.9591938564779E-01
    59  5.8000000000000E-01  1.1632659302910E+00  9.4063267142873E-01
    60  5.9000000000000E-01  1.1036835546778E+00  9.8592441932248E-01
    61  6.0000000000000E-01  1.0415015616380E+00  1.0321502932688E+00
    62  6.1000000000000E-01  9.7676672436201E-01  1.0796268931529E+00
    63  6.2000000000000E-01  9.0954895733129E-01  1.1286130432915E+00
    64  6.3000000000000E-01  8.3994804956605E-01  1.1792920908491E+00
    65  6.4000000000000E-01  7.6809990605493E-01  1.2317558215983E+00
    66  6.5000000000000E-01  6.9418204823230E-01  1.2859905719685E+00
    67  6.6000000000000E-01  6.1841813939414E-01  1.3418660693699E+00
    68  6.7000000000000E-01  5.4108132369110E-01  1.3991274682536E+00
    69  6.8000000000000E-01  4.6249619728233E-01  1.4573909687742E+00
    70  6.9000000000000E-01  3.8303926662700E-01  1.5161433102504E+00
    71  7.0000000000000E-01  3.0313779076264E-01  1.5747453253677E+00
    72  7.1000000000000E-01  2.2326695062805E-01  1.6324396261013E+00
    73  7.2000000000000E-01  1.4394533772145E-01  1.6883623718849E+00
    74  7.3000000000000E-01  6.5728805234176E-02  1.7415589480361E+00
    75  7.4000000000000E-01 -1.0797224243209E-02  1.7910032614827E+00
    76  7.5000000000000E-01 -8.5026850794458E-02  1.8356202450061E+00
    77  7.6000000000000E-01 -1.5634399876095E-01  1.8743110540885E+00
    78  7.7000000000000E-01 -2.2413369532073E-01  1.9059803453713E+00
    79  7.8000000000000E-01 -2.8779405703357E-01  1.9295649457851E+00
    80  7.9000000000000E-01 -3.4674868573697E-01  1.9440631592787E+00
    81  8.0000000000000E-01 -4.0045915354453E-01  1.9485639159987E+00
    82  8.1000000000000E-01 -4.4843724381507E-01  1.9422749484181E+00
    83  8.2000000000000E-01 -4.9025661138561E-01  1.9245491813776E+00
    84  8.3000000000000E-01 -5.2556353138529E-01  1.8949085487127E+00
    85  8.4000000000000E-01 -5.5408642158358E-01  1.8530644978697E+00
    86  8.5000000000000E-01 -5.7564384820745E-01  1.7989345147594E+00
    87  8.6000000000000E-01 -5.9015075894065E-01  1.7326540924929E+00
    88  8.7000000000000E-01 -5.9762272858331E-01  1.6545836774116E+00
    89  8.8000000000000E-01 -5.9817805154198E-01  1.5653102512078E+00
    90  8.9000000000000E-01 -5.9203756966545E-01  1.4656433456796E+00
    91  9.0000000000000E-01 -5.7952218247825E-01  1.3566054331171E+00
    92  9.1000000000000E-01 -5.6104804799336E-01  1.2394167864993E+00
    93  9.2000000000000E-01 -5.3711954430516E-01  1.1154750554168E+00
    94  9.3000000000000E-01 -5.0832012332670E-01  9.8632995167092E-01
    95  9.4000000000000E-01 -4.7530124659179E-01  8.5365357860864E-01
    96  9.5000000000000E-01 -4.3876964730173E-01  7.1920706638885E-01
    97  9.6000000000000E-01 -3.9947321114819E-01  5.8480428772235E-01
    98  9.7000000000000E-01 -3.5818580947682E-01  4.5227352186847E-01
    99  9.8000000000000E-01 -3.1569145077779E-01  3.2341800581947E-01
   100  9.9000000000000E-01 -2.7276813931060E-01  1.9997635841384E-01
   101  1.0000000000000E+00 -2.3017184212122E-01  8.3583883912070E-02
   102  1.0100000000000E+00 -1.8862096732896E-01 -2.4264244597649E-02
   103  1.0200000000000E+00 -1.4878174716332E-01 -1.2224695495683E-01
   104  1.0300000000000E+00 -1.1125489900021E-01 -2.0924749176141E-01
   105  1.0400000000000E+00 -7.6563907010857E-02 -2.8437905638426E-01
   106  1.0500000000000E+00 -4.5145226728597E-02 -3.4700515788680E-01
   107  1.0600000000000E+00 -1.7340666013074E-02 -3.9675409040048E-01
   108  1.0700000000000E+00  6.6078603577222E-03 -4.3352709897842E-01
   109  1.0800000000000E+00  2.6561067214014E-02 -4.5749995555099E-01
   110  1.0900000000000E+00  4.2482457451731E-02 -4.6911783536477E-01
   111  1.1000000000000E+00  5.4435901777308E-02 -4.6908355811480E-01
   112  1.1100000000000E+00  6.2580707735286E-02 -4.5833943096510E-01
   113  1.1200000000000E+00  6.7164313573046E-02 -4.3804309991433E-01
   114  1.1300000000000E+00  6.8512806198681E-02 -4.0953797463011E-01
   115  1.1400000000000E+00  6.7019521456953E-02 -3.7431893783999E-01
   116  1.1500000000000E+00  6.3132036644013E-02 -3.3399417739432E-01
   117  1.1600000000000E+00  5.7337908916647E-02 -2.9024408556089E-01
   118  1.1700000000000E+00  5.0149548106159E-02 -2.4477825268562E-01
   119  1.1800000000000E+00  4.2088624160457E-02 -1.9929162033100E-01
   120  1.1900000000000E+00  3.3670472295266E-02 -1.5542095334951E-01
   121  1.2000000000000E+00  2.5387079606089E-02 -1.1470033802354E-01
   122  1.2100000000000E+00  1.7696126368383E-02 -7.8527209682242E-02
   123  1.2200000000000E+00  1.1011039466686E-02 -4.8131620250925E-02
   124  1.2300000000000E+00  5.6853671531287E-03 -2.4542354825636E-02
   125  1.2400000000000E+00  2.0025276927791E-03 -8.5556802710006E-03
   126  1.2500000000000E+00  2.0294188757757E-04 -8.5944862131050E-04
   127  1.2600000000000E+00 -1.3848729897179E-05  5.8379573390951E-05
   128  1.2700000000000E+00 -4.8560939136608E-07  2.0632882913742E-06
   129  1.28  0.  0.
   130  1.29  0.  0.
   131  1.30  0.  0.
   132  1.31  0.  0.
   133  1.32  0.  0.
   134  1.33  0.  0.
   135  1.34  0.  0.
   136  1.35  0.  0.
   137  1.36  0.  0.
   138  1.37  0.  0.
   139  1.38  0.  0.
   140  1.39  0.  0.
   141  1.40  0.  0.
   142  1.41  0.  0.
   143  1.42  0.  0.
   144  1.43  0.  0.
   145  1.44  0.  0.
   146  1.45  0.  0.
   147  1.46  0.  0.
   148  1.47  0.  0.
   149  1.48  0.  0.
   150  1.49  0.  0.
   151  1.50  0.  0.
   152  1.51  0.  0.
   153  1.52  0.  0.
   154  1.53  0.  0.
   155  1.54  0.  0.
   156  1.55  0.  0.
   157  1.56  0.  0.
   158  1.57  0.  0.
   159  1.58  0.  0.
   160  1.59  0.  0.
   161  1.60  0.  0.
   162  1.61  0.  0.
   163  1.62  0.  0.
   164  1.63  0.  0.
   165  1.64  0.  0.
   166  1.65  0.  0.
   167  1.66  0.  0.
   168  1.67  0.  0.
   169  1.68  0.  0.
   170  1.69  0.  0.
   171  1.70  0.  0.
   172  1.71  0.  0.
   173  1.72  0.  0.
   174  1.73  0.  0.
   175  1.74  0.  0.
   176  1.75  0.  0.
   177  1.76  0.  0.
   178  1.77  0.  0.
   179  1.78  0.  0.
   180  1.79  0.  0.
   181  1.80  0.  0.
   182  1.81  0.  0.
   183  1.82  0.  0.
   184  1.83  0.  0.
   185  1.84  0.  0.
   186  1.85  0.  0.
   187  1.86  0.  0.
   188  1.87  0.  0.
   189  1.88  0.  0.
   190  1.89  0.  0.
   191  1.90  0.  0.
   192  1.91  0.  0.
   193  1.92  0.  0.
   194  1.93  0.  0.
   195  1.94  0.  0.
   196  1.95  0.  0.
   197  1.96  0.  0.
   198  1.97  0.  0.
   199  1.98  0.  0.
   200  1.99  0.  0.
   201  2.00  0.  0.
   202  2.01  0.  0.
   203  2.02  0.  0.
   204  2.03  0.  0.
   205  2.04  0.  0.
   206  2.05  0.  0.
   207  2.06  0.  0.
   208  2.07  0.  0.
   209  2.08  0.  0.
   210  2.09  0.  0.
   211  2.10  0.  0.
   212  2.11  0.  0.
   213  2.12  0.  0.
   214  2.13  0.  0.
   215  2.14  0.  0.
   216  2.15  0.  0.
   217  2.16  0.  0.
   218  2.17  0.  0.
   219  2.18  0.  0.