C     ONCVPSP-4.0.1  r_core=   1.20278   1.25421
      6.0000      4.0000      250925    zatom,zion,pspd
     8   -1012   1     4   600     0    pspcod,pspxc,lmax,lloc,mmax,r2well
  5.99000000  4.00000000  0.00000000    rchrg fchrg qchrg
     2     2     0     0    nproj
     3     1           extension_switch
     3     0     0    nprojso
   0                         6.5416559158031E+00  3.5406443625287E-01
     1  0.0000000000000E+00  5.6313324003909E-09 -3.6135625880451E-08
     2  1.0000000000000E-02  6.5006826029290E-02  4.1404985670816E-02
     3  2.0000000000000E-02  1.3001043772049E-01  8.1830684154892E-02
     4  3.0000000000000E-02  1.9500479652737E-01  1.2031909529476E-01
     5  4.0000000000000E-02  2.5997828419236E-01  1.5595434118070E-01
     6  5.0000000000000E-02  3.2491108316829E-01  1.8788260727260E-01
     7  6.0000000000000E-02  3.8977275724635E-01  2.1533076599047E-01
     8  7.0000000000000E-02  4.5452009234141E-01  2.3762328712259E-01
     9  8.0000000000000E-02  5.1909525175390E-01  2.5419707553597E-01
    10  9.0000000000000E-02  5.8342429341432E-01  2.6461392040711E-01
    11  1.0000000000000E-01  6.4741608876324E-01  2.6857029060768E-01
    12  1.1000000000000E-01  7.1096167419396E-01  2.6590426692538E-01
    13  1.2000000000000E-01  7.7393405656872E-01  2.5659946230326E-01
    14  1.3000000000000E-01  8.3618848441303E-01  2.4078584497331E-01
    15  1.4000000000000E-01  8.9756318620396E-01  2.1873744490884E-01
    16  1.5000000000000E-01  9.5788056691410E-01  1.9086699005008E-01
    17  1.6000000000000E-01  1.0169488438693E+00  1.5771758388109E-01
    18  1.7000000000000E-01  1.0745640932407E+00  1.1995159878624E-01
    19  1.8000000000000E-01  1.1305126693276E+00  7.8337018864807E-02
    20  1.9000000000000E-01  1.1845739503898E+00  3.3731520284365E-02
    21  2.0000000000000E-01  1.2365233573449E+00 -1.2935374345172E-02
    22  2.1000000000000E-01  1.2861355853029E+00 -6.0681689723259E-02
    23  2.2000000000000E-01  1.3331879828240E+00 -1.0849352842133E-01
    24  2.3000000000000E-01  1.3774640100519E+00 -1.5534630211272E-01
    25  2.4000000000000E-01  1.4187567045855E+00 -2.0022621166926E-01
    26  2.5000000000000E-01  1.4568720831594E+00 -2.4215151818869E-01
    27  2.6000000000000E-01  1.4916324079308E+00 -2.8019315055599E-01
    28  2.7000000000000E-01  1.5228792484054E+00 -3.1349420830494E-01
    29  2.8000000000000E-01  1.5504762737396E+00 -3.4128794108141E-01
    30  2.9000000000000E-01  1.5743117152601E+00 -3.6291381746938E-01
    31  3.0000000000000E-01  1.5943004454380E+00 -3.7783133568949E-01
    32  3.1000000000000E-01  1.6103856271206E+00 -3.8563127590442E-01
    33  3.2000000000000E-01  1.6225398954010E+00 -3.8604414759800E-01
    34  3.3000000000000E-01  1.6307660439237E+00 -3.7894564462416E-01
    35  3.4000000000000E-01  1.6350971974797E+00 -3.6435898382388E-01
    36  3.5000000000000E-01  1.6355964632467E+00 -3.4245406926202E-01
    37  3.6000000000000E-01  1.6323560637361E+00 -3.1354349176560E-01
    38  3.7000000000000E-01  1.6254959652217E+00 -2.7807544112467E-01
    39  3.8000000000000E-01  1.6151620259012E+00 -2.3662367463125E-01
    40  3.9000000000000E-01  1.6015236980656E+00 -1.8987474917061E-01
    41  4.0000000000000E-01  1.5847713279210E+00 -1.3861278350178E-01
    42  4.1000000000000E-01  1.5651131052038E+00 -8.3702071394805E-02
    43  4.2000000000000E-01  1.5427717221907E+00 -2.6067913775333E-02
    44  4.3000000000000E-01  1.5179808079550E+00  3.3323922070421E-02
    45  4.4000000000000E-01  1.4909812086300E+00  9.3488676729218E-02
    46  4.5000000000000E-01  1.4620171878944E+00  1.5344454454201E-01
    47  4.6000000000000E-01  1.4313326238184E+00  2.1223461672456E-01
    48  4.7000000000000E-01  1.3991672785533E+00  2.6894834469109E-01
    49  4.8000000000000E-01  1.3657532160897E+00  3.2274205401220E-01
    50  4.9000000000000E-01  1.3313114404789E+00  3.7285805690056E-01
    51  5.0000000000000E-01  1.2960488225469E+00  4.1864193826462E-01
    52  5.1000000000000E-01  1.2601553773266E+00  4.5955762668482E-01
    53  5.2000000000000E-01  1.2238019472870E+00  4.9519990644106E-01
    54  5.3000000000000E-01  1.1871383381122E+00  5.2530407906510E-01
    55  5.4000000000000E-01  1.1502919444216E+00  5.4975254175469E-01
    56  5.5000000000000E-01  1.1133668926350E+00  5.6857811417398E-01
    57  5.6000000000000E-01  1.0764437173670E+00  5.8196401336554E-01
    58  5.7000000000000E-01  1.0395795765137E+00  5.9024044731006E-01
    59  5.8000000000000E-01  1.0028089987985E+00  5.9387786962723E-01
    60  5.9000000000000E-01  9.6614514621423E-01  5.9347700951348E-01
    61  6.0000000000000E-01  9.2958156276646E-01  5.8975586076451E-01
    62  6.1000000000000E-01  8.9309437042807E-01  5.8353388015956E-01
    63  6.2000000000000E-01  8.5664486347142E-01  5.7571370718116E-01
    64  6.3000000000000E-01  8.2018244356725E-01  5.6726077268860E-01
    65  6.4000000000000E-01  7.8364783041370E-01  5.5918121255215E-01
    66  6.5000000000000E-01  7.4697647635348E-01  5.5249854232714E-01
    67  6.6000000000000E-01  7.1010210859124E-01  5.4822957991011E-01
    68  6.7000000000000E-01  6.7296031934866E-01  5.4736012406234E-01
    69  6.8000000000000E-01  6.3549212267016E-01  5.5082090720078E-01
    70  6.9000000000000E-01  5.9764739666315E-01  5.5946434064877E-01
    71  7.0000000000000E-01  5.5938813173408E-01  5.7404255953082E-01
    72  7.1000000000000E-01  5.2069140884059E-01  5.9518725283531E-01
    73  7.2000000000000E-01  4.8155203686131E-01  6.2339173222453E-01
    74  7.3000000000000E-01  4.4198478479529E-01  6.5899565152286E-01
    75  7.4000000000000E-01  4.0202615251589E-01  7.0217273825218E-01
    76  7.5000000000000E-01  3.6173563306572E-01  7.5292184007984E-01
    77  7.6000000000000E-01  3.2119642980572E-01  8.1106152374510E-01
    78  7.7000000000000E-01  2.8051560291908E-01  8.7622839322920E-01
    79  7.8000000000000E-01  2.3982363159309E-01  9.4787921904705E-01
    80  7.9000000000000E-01  1.9927339042270E-01  1.0252968930635E+00
    81  8.0000000000000E-01  1.5903855094720E-01  1.1076001447588E+00
    82  8.1000000000000E-01  1.1931143149424E-01  1.1937568769718E+00
    83  8.2000000000000E-01  8.0300330409402E-02  1.2826009034477E+00
    84  8.3000000000000E-01  4.2226389049033E-02  1.3728517985595E+00
    85  8.4000000000000E-01  5.3200413697698E-03  1.4631375028696E+00
    86  8.5000000000000E-01 -3.0182883657267E-02  1.5520192681372E+00
    87  8.6000000000000E-01 -6.4045332449386E-02  1.6380184732359E+00
    88  8.7000000000000E-01 -9.6033388982654E-02  1.7196447993400E+00
    89  8.8000000000000E-01 -1.2592074257502E-01  1.7954252195996E+00
    90  8.9000000000000E-01 -1.5349317172566E-01  1.8639332361098E+00
    91  9.0000000000000E-01 -1.7855295283662E-01  1.9238177857951E+00
    92  9.1000000000000E-01 -2.0092310285656E-01  1.9738312371955E+00
    93  9.2000000000000E-01 -2.2045136694015E-01  2.0128559121079E+00
    94  9.3000000000000E-01 -2.3701386608214E-01  2.0399285894510E+00
    95  9.4000000000000E-01 -2.5051832529738E-01  2.0542624831649E+00
    96  9.5000000000000E-01 -2.6090681017604E-01  2.0552662308229E+00
    97  9.6000000000000E-01 -2.6815790840966E-01  2.0425594840442E+00
    98  9.7000000000000E-01 -2.7228830299696E-01  2.0159847547567E+00
    99  9.8000000000000E-01 -2.7335369509791E-01  1.9756152416078E+00
   100  9.9000000000000E-01 -2.7144904669750E-01  1.9217584370164E+00
   101  1.0000000000000E+00 -2.6670812611850E-01  1.8549553959535E+00
   102  1.0100000000000E+00 -2.5930235274689E-01  1.7759756310252E+00
   103  1.0200000000000E+00 -2.4943895082541E-01  1.6858076830549E+00
   104  1.0300000000000E+00 -2.3735843556446E-01  1.5856455004607E+00
   105  1.0400000000000E+00 -2.2333146785530E-01  1.4768708426562E+00
   106  1.0500000000000E+00 -2.0765512628230E-01  1.3610320007911E+00
   107  1.0600000000000E+00 -1.9064865665143E-01  1.2398192017213E+00
   108  1.0700000000000E+00 -1.7264876968678E-01  1.1150371269110E+00
   109  1.0800000000000E+00 -1.5400456663815E-01  9.8857503542155E-01
   110  1.0900000000000E+00 -1.3507218013458E-01  8.6237502822227E-01
   111  1.1000000000000E+00 -1.1620922354938E-01  7.3839902877517E-01
   112  1.1100000000000E+00 -9.7769146271331E-02  6.1859508127880E-01
   113  1.1200000000000E+00 -8.0095595508361E-02  5.0486358879494E-01
   114  1.1300000000000E+00 -6.3516862451264E-02  3.9902397207037E-01
   115  1.1400000000000E+00 -4.8340646276564E-02  3.0278320002741E-01
   116  1.1500000000000E+00 -3.4842942046193E-02  2.1766730074333E-01
   117  1.1600000000000E+00 -2.3266980066506E-02  1.4501472446837E-01
   118  1.1700000000000E+00 -1.3840845466507E-02  8.6089169874230E-02
   119  1.1800000000000E+00 -6.7509574053731E-03  4.1915353299672E-02
   120  1.1900000000000E+00 -2.1341134906974E-03  1.3229617150207E-02
   121  1.2000000000000E+00 -1.3456994417517E-04  8.3299489208156E-04
   122  1.2100000000000E+00 -2.5044582880507E-08  1.5503564711636E-07
   123  1.2200000000000E+00  1.7051734215839E-06 -1.0562394501570E-05
   124  1.23  0.  0.
   125  1.24  0.  0.
   126  1.25  0.  0.
   127  1.26  0.  0.
   128  1.27  0.  0.
   129  1.28  0.  0.
   130  1.29  0.  0.
   131  1.30  0.  0.
   132  1.31  0.  0.
   133  1.32  0.  0.
   134  1.33  0.  0.
   135  1.34  0.  0.
   136  1.35  0.  0.
   137  1.36  0.  0.
   138  1.37  0.  0.
   139  1.38  0.  0.
   140  1.39  0.  0.
   141  1.40  0.  0.
   142  1.41  0.  0.
   143  1.42  0.  0.
   144  1.43  0.  0.
   145  1.44  0.  0.
   146  1.45  0.  0.
   147  1.46  0.  0.
   148  1.47  0.  0.
   149  1.48  0.  0.
   150  1.49  0.  0.
   151  1.50  0.  0.
   152  1.51  0.  0.
   153  1.52  0.  0.
   154  1.53  0.  0.
   155  1.54  0.  0.
   156  1.55  0.  0.
   157  1.56  0.  0.
   158  1.57  0.  0.
   159  1.58  0.  0.
   160  1.59  0.  0.
   161  1.60  0.  0.
   162  1.61  0.  0.
   163  1.62  0.  0.
   164  1.63  0.  0.
   165  1.64  0.  0.
   166  1.65  0.  0.
   167  1.66  0.  0.
   168  1.67  0.  0.
   169  1.68  0.  0.
   170  1.69  0.  0.
   171  1.70  0.  0.
   172  1.71  0.  0.
   173  1.72  0.  0.
   174  1.73  0.  0.
   175  1.74  0.  0.
   176  1.75  0.  0.
   177  1.76  0.  0.
   178  1.77  0.  0.
   179  1.78  0.  0.
   180  1.79  0.  0.
   181  1.80  0.  0.
   182  1.81  0.  0.
   183  1.82  0.  0.
   184  1.83  0.  0.
   185  1.84  0.  0.
   186  1.85  0.  0.
   187  1.86  0.  0.
   188  1.87  0.  0.
   189  1.88  0.  0.
   190  1.89  0.  0.
   191  1.90  0.  0.
   192  1.91  0.  0.
   193  1.92  0.  0.
   194  1.93  0.  0.
   195  1.94  0.  0.
   196  1.95  0.  0.
   197  1.96  0.  0.
   198  1.97  0.  0.
   199  1.98  0.  0.
   200  1.99  0.  0.
   201  2.00  0.  0.
   202  2.01  0.  0.
   203  2.02  0.  0.
   204  2.03  0.  0.
   205  2.04  0.  0.
   206  2.05  0.  0.
   207  2.06  0.  0.
   208  2.07  0.  0.
   209  2.08  0.  0.
   210  2.09  0.  0.
   211  2.10  0.  0.
   212  2.11  0.  0.
   213  2.12  0.  0.
   214  2.13  0.  0.
   215  2.14  0.  0.
   216  2.15  0.  0.
   217  2.16  0.  0.
   218  2.17  0.  0.
   219  2.18  0.  0.
   220  2.19  0.  0.
   221  2.20  0.  0.
   222  2.21  0.  0.
   223  2.22  0.  0.
   224  2.23  0.  0.
   225  2.24  0.  0.
   226  2.25  0.  0.
   227  2.26  0.  0.
   228  2.27  0.  0.
   229  2.28  0.  0.
   230  2.29  0.  0.
   231  2.30  0.  0.
   232  2.31  0.  0.
   233  2.32  0.  0.
   234  2.33  0.  0.
   235  2.34  0.  0.
   236  2.35  0.  0.
   237  2.36  0.  0.
   238  2.37  0.  0.
   239  2.38  0.  0.
   240  2.39  0.  0.
   241  2.40  0.  0.
   242  2.41  0.  0.
   243  2.42  0.  0.
   244  2.43  0.  0.
   245  2.44  0.  0.
   246  2.45  0.  0.
   247  2.46  0.  0.
   248  2.47  0.  0.
   249  2.48  0.  0.
   250  2.49  0.  0.
   251  2.50  0.  0.
   252  2.51  0.  0.
   253  2.52  0.  0.
   254  2.53  0.  0.
   255  2.54  0.  0.
   256  2.55  0.  0.
   257  2.56  0.  0.
   258  2.57  0.  0.
   259  2.58  0.  0.
   260  2.59  0.  0.
   261  2.60  0.  0.
   262  2.61  0.  0.
   263  2.62  0.  0.
   264  2.63  0.  0.
   265  2.64  0.  0.
   266  2.65  0.  0.
   267  2.66  0.  0.
   268  2.67  0.  0.
   269  2.68  0.  0.
   270  2.69  0.  0.
   271  2.70  0.  0.
   272  2.71  0.  0.
   273  2.72  0.  0.
   274  2.73  0.  0.
   275  2.74  0.  0.
   276  2.75  0.  0.
   277  2.76  0.  0.
   278  2.77  0.  0.
   279  2.78  0.  0.
   280  2.79  0.  0.
   281  2.80  0.  0.
   282  2.81  0.  0.
   283  2.82  0.  0.
   284  2.83  0.  0.
   285  2.84  0.  0.
   286  2.85  0.  0.
   287  2.86  0.  0.
   288  2.87  0.  0.
   289  2.88  0.  0.
   290  2.89  0.  0.
   291  2.90  0.  0.
   292  2.91  0.  0.
   293  2.92  0.  0.
   294  2.93  0.  0.
   295  2.94  0.  0.
   296  2.95  0.  0.
   297  2.96  0.  0.
   298  2.97  0.  0.
   299  2.98  0.  0.
   300  2.99  0.  0.
   301  3.00  0.  0.
   302  3.01  0.  0.
   303  3.02  0.  0.
   304  3.03  0.  0.
   305  3.04  0.  0.
   306  3.05  0.  0.
   307  3.06  0.  0.
   308  3.07  0.  0.
   309  3.08  0.  0.
   310  3.09  0.  0.
   311  3.10  0.  0.
   312  3.11  0.  0.
   313  3.12  0.  0.
   314  3.13  0.  0.
   315  3.14  0.  0.
   316  3.15  0.  0.
   317  3.16  0.  0.
   318  3.17  0.  0.
   319  3.18  0.  0.
   320  3.19  0.  0.
   321  3.20  0.  0.
   322  3.21  0.  0.
   323  3.22  0.  0.
   324  3.23  0.  0.
   325  3.24  0.  0.
   326  3.25  0.  0.
   327  3.26  0.  0.
   328  3.27  0.  0.
   329  3.28  0.  0.
   330  3.29  0.  0.
   331  3.30  0.  0.
   332  3.31  0.  0.
   333  3.32  0.  0.
   334  3.33  0.  0.
   335  3.34  0.  0.
   336  3.35  0.  0.
   337  3.36  0.  0.
   338  3.37  0.  0.
   339  3.38  0.  0.
   340  3.39  0.  0.
   341  3.40  0.  0.
   342  3.41  0.  0.
   343  3.42  0.  0.
   344  3.43  0.  0.
   345  3.44  0.  0.
   346  3.45  0.  0.
   347  3.46  0.  0.
   348  3.47  0.  0.
   349  3.48  0.  0.
   350  3.49  0.  0.
   351  3.50  0.  0.
   352  3.51  0.  0.
   353  3.52  0.  0.
   354  3.53  0.  0.
   355  3.54  0.  0.
   356  3.55  0.  0.
   357  3.56  0.  0.
   358  3.57  0.  0.
   359  3.58  0.  0.
   360  3.59  0.  0.
   361  3.60  0.  0.
   362  3.61  0.  0.
   363  3.62  0.  0.
   364  3.63  0.  0.
   365  3.64  0.  0.
   366  3.65  0.  0.
   367  3.66  0.  0.
   368  3.67  0.  0.
   369  3.68  0.  0.
   370  3.69  0.  0.
   371  3.70  0.  0.
   372  3.71  0.  0.
   373  3.72  0.  0.
   374  3.73  0.  0.
   375  3.74  0.  0.
   376  3.75  0.  0.
   377  3.76  0.  0.
   378  3.77  0.  0.
   379  3.78  0.  0.
   380  3.79  0.  0.
   381  3.80  0.  0.
   382  3.81  0.  0.
   383  3.82  0.  0.
   384  3.83  0.  0.
   385  3.84  0.  0.
   386  3.85  0.  0.
   387  3.86  0.  0.
   388  3.87  0.  0.
   389  3.88  0.  0.
   390  3.89  0.  0.
   391  3.90  0.  0.
   392  3.91  0.  0.
   393  3.92  0.  0.
   394  3.93  0.  0.
   395  3.94  0.  0.
   396  3.95  0.  0.
   397  3.96  0.  0.
   398  3.97  0.  0.
   399  3.98  0.  0.
   400  3.99  0.  0.
   401  4.00  0.  0.
   402  4.01  0.  0.
   403  4.02  0.  0.
   404  4.03  0.  0.
   405  4.04  0.  0.
   406  4.05  0.  0.
   407  4.06  0.  0.
   408  4.07  0.  0.
   409  4.08  0.  0.
   410  4.09  0.  0.
   411  4.10  0.  0.
   412  4.11  0.  0.
   413  4.12  0.  0.
   414  4.13  0.  0.
   415  4.14  0.  0.
   416  4.15  0.  0.
   417  4.16  0.  0.
   418  4.17  0.  0.
   419  4.18  0.  0.
   420  4.19  0.  0.
   421  4.20  0.  0.
   422  4.21  0.  0.
   423  4.22  0.  0.
   424  4.23  0.  0.
   425  4.24  0.  0.
   426  4.25  0.  0.
   427  4.26  0.  0.
   428  4.27  0.  0.
   429  4.28  0.  0.
   430  4.29  0.  0.
   431  4.30  0.  0.
   432  4.31  0.  0.
   433  4.32  0.  0.
   434  4.33  0.  0.
   435  4.34  0.  0.
   436  4.35  0.  0.
   437  4.36  0.  0.
   438  4.37  0.  0.
   439  4.38  0.  0.
   440  4.39  0.  0.
   441  4.40  0.  0.
   442  4.41  0.  0.
   443  4.42  0.  0.
   444  4.43  0.  0.
   445  4.44  0.  0.
   446  4.45  0.  0.
   447  4.46  0.  0.
   448  4.47  0.  0.
   449  4.48  0.  0.
   450  4.49  0.  0.
   451  4.50  0.  0.
   452  4.51  0.  0.
   453  4.52  0.  0.
   454  4.53  0.  0.
   455  4.54  0.  0.
   456  4.55  0.  0.
   457  4.56  0.  0.
   458  4.57  0.  0.
   459  4.58  0.  0.
   460  4.59  0.  0.
   461  4.60  0.  0.
   462  4.61  0.  0.
   463  4.62  0.  0.
   464  4.63  0.  0.
   465  4.64  0.  0.
   466  4.65  0.  0.
   467  4.66  0.  0.
   468  4.67  0.  0.
   469  4.68  0.  0.
   470  4.69  0.  0.
   471  4.70  0.  0.
   472  4.71  0.  0.
   473  4.72  0.  0.
   474  4.73  0.  0.
   475  4.74  0.  0.
   476  4.75  0.  0.
   477  4.76  0.  0.
   478  4.77  0.  0.
   479  4.78  0.  0.
   480  4.79  0.  0.
   481  4.80  0.  0.
   482  4.81  0.  0.
   483  4.82  0.  0.
   484  4.83  0.  0.
   485  4.84  0.  0.
   486  4.85  0.  0.
   487  4.86  0.  0.
   488  4.87  0.  0.
   489  4.88  0.  0.
   490  4.89  0.  0.
   491  4.90  0.  0.
   492  4.91  0.  0.
   493  4.92  0.  0.
   494  4.93  0.  0.
   495  4.94  0.  0.
   496  4.95  0.  0.
   497  4.96  0.  0.
   498  4.97  0.  0.
   499  4.98  0.  0.
   500  4.99  0.  0.
   501  5.00  0.  0.
   502  5.01  0.  0.
   503  5.02  0.  0.
   504  5.03  0.  0.
   505  5.04  0.  0.
   506  5.05  0.  0.
   507  5.06  0.  0.
   508  5.07  0.  0.
   509  5.08  0.  0.
   510  5.09  0.  0.
   511  5.10  0.  0.
   512  5.11  0.  0.
   513  5.12  0.  0.
   514  5.13  0.  0.
   515  5.14  0.  0.
   516  5.15  0.  0.
   517  5.16  0.  0.
   518  5.17  0.  0.
   519  5.18  0.  0.
   520  5.19  0.  0.
   521  5.20  0.  0.
   522  5.21  0.  0.
   523  5.22  0.  0.
   524  5.23  0.  0.
   525  5.24  0.  0.
   526  5.25  0.  0.
   527  5.26  0.  0.
   528  5.27  0.  0.
   529  5.28  0.  0.
   530  5.29  0.  0.
   531  5.30  0.  0.
   532  5.31  0.  0.
   533  5.32  0.  0.
   534  5.33  0.  0.
   535  5.34  0.  0.
   536  5.35  0.  0.
   537  5.36  0.  0.
   538  5.37  0.  0.
   539  5.38  0.  0.
   540  5.39  0.  0.
   541  5.40  0.  0.
   542  5.41  0.  0.
   543  5.42  0.  0.
   544  5.43  0.  0.
   545  5.44  0.  0.
   546  5.45  0.  0.
   547  5.46  0.  0.
   548  5.47  0.  0.
   549  5.48  0.  0.
   550  5.49  0.  0.
   551  5.50  0.  0.
   552  5.51  0.  0.
   553  5.52  0.  0.
   554  5.53  0.  0.
   555  5.54  0.  0.
   556  5.55  0.  0.
   557  5.56  0.  0.
   558  5.57  0.  0.
   559  5.58  0.  0.
   560  5.59  0.  0.
   561  5.60  0.  0.
   562  5.61  0.  0.
   563  5.62  0.  0.
   564  5.63  0.  0.
   565  5.64  0.  0.
   566  5.65  0.  0.
   567  5.66  0.  0.
   568  5.67  0.  0.
   569  5.68  0.  0.
   570  5.69  0.  0.
   571  5.70  0.  0.
   572  5.71  0.  0.
   573  5.72  0.  0.
   574  5.73  0.  0.
   575  5.74  0.  0.
   576  5.75  0.  0.
   577  5.76  0.  0.
   578  5.77  0.  0.
   579  5.78  0.  0.
   580  5.79  0.  0.
   581  5.80  0.  0.
   582  5.81  0.  0.
   583  5.82  0.  0.
   584  5.83  0.  0.
   585  5.84  0.  0.
   586  5.85  0.  0.
   587  5.86  0.  0.
   588  5.87  0.  0.
   589  5.88  0.  0.
   590  5.89  0.  0.
   591  5.90  0.  0.
   592  5.91  0.  0.
   593  5.92  0.  0.
   594  5.93  0.  0.
   595  5.94  0.  0.
   596  5.95  0.  0.
   597  5.96  0.  0.
   598  5.97  0.  0.
   599  5.98  0.  0.
   600  5.99  0.  0.
   1                        -4.1493775696938E+00 -8.5481623610863E-01
     1  0.0000000000000E+00 -1.7745793251533E-08  3.4149077718371E-08
     2  1.0000000000000E-02  2.4001877177068E-03 -1.0038497531128E-03
     3  2.0000000000000E-02  9.5937032556288E-03 -4.0140665079015E-03
     4  3.0000000000000E-02  2.1559155586209E-02 -9.0261645435200E-03
     5  4.0000000000000E-02  3.8260078113592E-02 -1.6031064600089E-02
     6  5.0000000000000E-02  5.9643749254911E-02 -2.5012773393588E-02
     7  6.0000000000000E-02  8.5639625429434E-02 -3.5945299775134E-02
     8  7.0000000000000E-02  1.1615746686940E-01 -4.8788964641786E-02
     9  8.0000000000000E-02  1.5108525441222E-01 -6.3486295855131E-02
    10  9.0000000000000E-02  1.9028700950659E-01 -7.9957726050537E-02
    11  1.0000000000000E-01  2.3360063951430E-01 -9.8097329215288E-02
    12  1.1000000000000E-01  2.8083593560940E-01 -1.1776884047988E-01
    13  1.2000000000000E-01  3.3177285092454E-01 -1.3880220224839E-01
    14  1.3000000000000E-01  3.8616018199226E-01 -1.6099086848449E-01
    15  1.4000000000000E-01  4.4371476707836E-01 -1.8409007793992E-01
    16  1.5000000000000E-01  5.0412130096964E-01 -2.0781627697551E-01
    17  1.6000000000000E-01  5.6703284759381E-01 -2.3184783434791E-01
    18  1.7000000000000E-01  6.3207211009343E-01 -2.5582714518323E-01
    19  1.8000000000000E-01  6.9883349336103E-01 -2.7936417087185E-01
    20  1.9000000000000E-01  7.6688596738817E-01 -3.0204140754970E-01
    21  2.0000000000000E-01  8.3577671198774E-01 -3.2342022009577E-01
    22  2.1000000000000E-01  9.0503549546869E-01 -3.4304842317880E-01
    23  2.2000000000000E-01  9.7417971264767E-01 -3.6046893786375E-01
    24  2.3000000000000E-01  1.0427199821334E+00 -3.7522930362736E-01
    25  2.4000000000000E-01  1.1101661800311E+00 -3.8689178320817E-01
    26  2.5000000000000E-01  1.1760337679246E+00 -3.9504376322261E-01
    27  2.6000000000000E-01  1.2398502579400E+00 -3.9930812836903E-01
    28  2.7000000000000E-01  1.3011616474739E+00 -3.9935327247080E-01
    29  2.8000000000000E-01  1.3595386512364E+00 -3.9490240639538E-01
    30  2.9000000000000E-01  1.4145825588963E+00 -3.8574183146964E-01
    31  3.0000000000000E-01  1.4659305529120E+00 -3.7172786743814E-01
    32  3.1000000000000E-01  1.5132603330158E+00 -3.5279215592094E-01
    33  3.2000000000000E-01  1.5562939109959E+00 -3.2894510295959E-01
    34  3.3000000000000E-01  1.5948004614528E+00 -3.0027727645070E-01
    35  3.4000000000000E-01  1.6285981404591E+00 -2.6695863455908E-01
    36  3.5000000000000E-01  1.6575548137501E+00 -2.2923552777185E-01
    37  3.6000000000000E-01  1.6815876683243E+00 -1.8742548803899E-01
    38  3.7000000000000E-01  1.7006617151214E+00 -1.4190989119198E-01
    39  3.8000000000000E-01  1.7147872247174E+00 -9.3124651164835E-02
    40  3.9000000000000E-01  1.7240161716071E+00 -4.1549174040024E-02
    41  4.0000000000000E-01  1.7284377945452E+00  1.2306135781767E-02
    42  4.1000000000000E-01  1.7281734095101E+00  6.7913468210378E-02
    43  4.2000000000000E-01  1.7233706371350E+00  1.2474190262258E-01
    44  4.3000000000000E-01  1.7141972270425E+00  1.8227197349148E-01
    45  4.4000000000000E-01  1.7008346766414E+00  2.4001005156173E-01
    46  4.5000000000000E-01  1.6834718510149E+00  2.9750207679836E-01
    47  4.6000000000000E-01  1.6622988131272E+00  3.5434618521228E-01
    48  4.7000000000000E-01  1.6375010694859E+00  4.1020379249377E-01
    49  4.8000000000000E-01  1.6092544256155E+00  4.6480873292582E-01
    50  4.9000000000000E-01  1.5777206284360E+00  5.1797410158040E-01
    51  5.0000000000000E-01  1.5430439493097E+00  5.6959651013890E-01
    52  5.1000000000000E-01  1.5053488327484E+00  6.1965754019651E-01
    53  5.2000000000000E-01  1.4647387023615E+00  6.6822226059130E-01
    54  5.3000000000000E-01  1.4212959785441E+00  7.1543476477788E-01
    55  5.4000000000000E-01  1.3750833227469E+00  7.6151077791040E-01
    56  5.5000000000000E-01  1.3261460821566E+00  8.0672747827402E-01
    57  5.6000000000000E-01  1.2745158674968E+00  8.5141077106642E-01
    58  5.7000000000000E-01  1.2202151567562E+00  8.9592034131015E-01
    59  5.8000000000000E-01  1.1632627802259E+00  9.4063289397825E-01
    60  5.9000000000000E-01  1.1036801085394E+00  9.8592406049961E-01
    61  6.0000000000000E-01  1.0414977365752E+00  1.0321495091925E+00
    62  6.1000000000000E-01  9.7676243313162E-01  1.0796258406988E+00
    63  6.2000000000000E-01  9.0954411006177E-01  1.1286118764115E+00
    64  6.3000000000000E-01  8.3994255571278E-01  1.1792909569201E+00
    65  6.4000000000000E-01  7.6809367650653E-01  1.2317548578888E+00
    66  6.5000000000000E-01  6.9417499752006E-01  1.2859899023116E+00
    67  6.6000000000000E-01  6.1841018795186E-01  1.3418658011270E+00
    68  6.7000000000000E-01  5.4107240010890E-01  1.3991276896492E+00
    69  6.8000000000000E-01  4.6248624049578E-01  1.4573917466741E+00
    70  6.9000000000000E-01  3.8302822798193E-01  1.5161446884444E+00
    71  7.0000000000000E-01  3.0312563589740E-01  1.5747473234099E+00
    72  7.1000000000000E-01  2.2325366111710E-01  1.6324422387446E+00
    73  7.2000000000000E-01  1.4393091242897E-01  1.6883655691337E+00
    74  7.3000000000000E-01  6.5713261331715E-02  1.7415626758253E+00
    75  7.4000000000000E-01 -1.0813850633115E-02  1.7910074429758E+00
    76  7.5000000000000E-01 -8.5044504358685E-02  1.8356247824882E+00
    77  7.6000000000000E-01 -1.5636260518011E-01  1.8743158314147E+00
    78  7.7000000000000E-01 -2.2415316188688E-01  1.9059852309158E+00
    79  7.8000000000000E-01 -2.8781427369979E-01  1.9295697958222E+00
    80  7.9000000000000E-01 -3.4676952658576E-01  1.9440678217146E+00
    81  8.0000000000000E-01 -4.0048047865083E-01  1.9485682343622E+00
    82  8.1000000000000E-01 -4.4845890146867E-01  1.9422787660097E+00
    83  8.2000000000000E-01 -4.9027844062776E-01  1.9245523454717E+00
    84  8.3000000000000E-01 -5.2558536480480E-01  1.8949109147024E+00
    85  8.4000000000000E-01 -5.5410808831017E-01  1.8530659332459E+00
    86  8.5000000000000E-01 -5.7566517703349E-01  1.7989349028172E+00
    87  8.6000000000000E-01 -5.9017158149807E-01  1.7326533356631E+00
    88  8.7000000000000E-01 -5.9764288249954E-01  1.6545817001265E+00
    89  8.8000000000000E-01 -5.9819738349847E-01  1.5653070022178E+00
    90  8.9000000000000E-01 -5.9205593828339E-01  1.4656387997542E+00
    91  9.0000000000000E-01 -5.7953946096007E-01  1.3565995920774E+00
    92  9.1000000000000E-01 -5.6106412645372E-01  1.2394096795477E+00
    93  9.2000000000000E-01 -5.3713433173287E-01  1.1154667387476E+00
    94  9.3000000000000E-01 -5.0833354912796E-01  9.8632050736549E-01
    95  9.4000000000000E-01 -4.7531326167586E-01  8.5364311283845E-01
    96  9.5000000000000E-01 -4.3878022468191E-01  7.1919570696972E-01
    97  9.6000000000000E-01 -3.9948234604356E-01  5.8479218108093E-01
    98  9.7000000000000E-01 -3.5819351891344E-01  4.5226082950008E-01
    99  9.8000000000000E-01 -3.1569777270145E-01  3.2340490033172E-01
   100  9.9000000000000E-01 -2.7277313123598E-01  1.9996301926331E-01
   101  1.0000000000000E+00 -2.3017557935520E-01  8.3570492951889E-02
   102  1.0100000000000E+00 -1.8862354081696E-01 -2.4277507634498E-02
   103  1.0200000000000E+00 -1.4878326101781E-01 -1.2225991690979E-01
   104  1.0300000000000E+00 -1.1125546777906E-01 -2.0925999030146E-01
   105  1.0400000000000E+00 -7.6563652819701E-02 -2.8439094395443E-01
   106  1.0500000000000E+00 -4.5144276226024E-02 -3.4701630520617E-01
   107  1.0600000000000E+00 -1.7339147399540E-02 -3.9676438942407E-01
   108  1.0700000000000E+00  6.6098202864481E-03 -4.3353646521993E-01
   109  1.0800000000000E+00  2.6563345870588E-02 -4.5750832969216E-01
   110  1.0900000000000E+00  4.2484939044671E-02 -4.6912518409516E-01
   111  1.1000000000000E+00  5.4438479615770E-02 -4.6908987416754E-01
   112  1.1100000000000E+00  6.2583286193830E-02 -4.5834473233797E-01
   113  1.1200000000000E+00  6.7166809669937E-02 -4.3804742828991E-01
   114  1.1300000000000E+00  6.8515150753588E-02 -4.0954139303382E-01
   115  1.1400000000000E+00  6.7021659807360E-02 -3.7432152759949E-01
   116  1.1500000000000E+00  6.3133928913852E-02 -3.3399603448723E-01
   117  1.1600000000000E+00  5.7339529845205E-02 -2.9024531646025E-01
   118  1.1700000000000E+00  5.0150886456702E-02 -2.4477896982578E-01
   119  1.1800000000000E+00  4.2089681770871E-02 -1.9929193739134E-01
   120  1.1900000000000E+00  3.3671262717896E-02 -1.5542098031457E-01
   121  1.2000000000000E+00  2.5387632435148E-02 -1.1470018806167E-01
   122  1.2100000000000E+00  1.7696485652282E-02 -7.8526994821179E-02
   123  1.2200000000000E+00  1.1011248812286E-02 -4.8131421454531E-02
   124  1.2300000000000E+00  5.6854687976279E-03 -2.4542219797855E-02
   125  1.2400000000000E+00  2.0025615104942E-03 -8.5556216007419E-03
   126  1.2500000000000E+00  2.0294516355015E-04 -8.5944159294810E-04
   127  1.2600000000000E+00 -1.3848935773779E-05  5.8379022791507E-05
   128  1.2700000000000E+00 -4.8561699916841E-07  2.0632715405834E-06
   129  1.28  0.  0.
   130  1.29  0.  0.
   131  1.30  0.  0.
   132  1.31  0.  0.
   133  1.32  0.  0.
   134  1.33  0.  0.
   135  1.34  0.  0.
   136  1.35  0.  0.
   137  1.36  0.  0.
   138  1.37  0.  0.
   139  1.38  0.  0.
   140  1.39  0.  0.
   141  1.40  0.  0.
   142  1.41  0.  0.
   143  1.42  0.  0.
   144  1.43  0.  0.
   145  1.44  0.  0.
   146  1.45  0.  0.
   147  1.46  0.  0.
   148  1.47  0.  0.
   149  1.48  0.  0.
   150  1.49  0.  0.
   151  1.50  0.  0.
   152  1.51  0.  0.
   153  1.52  0.  0.
   154  1.53  0.  0.
   155  1.54  0.  0.
   156  1.55  0.  0.
   157  1.56  0.  0.
   158  1.57  0.  0.
   159  1.58  0.  0.
   160  1.59  0.  0.
   161  1.60  0.  0.
   162  1.61  0.  0.
   163  1.62  0.  0.
   164  1.63  0.  0.
   165  1.64  0.  0.
   166  1.65  0.  0.
   167  1.66  0.  0.
   168  1.67  0.  0.
   169  1.68  0.  0.
   170  1.69  0.  0.
   171  1.70  0.  0.
   172  1.71  0.  0.
   173  1.72  0.  0.
   174  1.73  0.  0.
   175  1.74  0.  0.
   176  1.75  0.  0.
   177  1.76  0.  0.
   178  1.77  0.  0.
   179  1.78  0.  0.
   180  1.79  0.  0.
   181  1.80  0.  0.
   182  1.81  0.  0.
   183  1.82  0.  0.
   184  1.83  0.  0.
   185  1.84  0.  0.
   186  1.85  0.  0.
   187  1.86  0.  0.
   188  1.87  0.  0.
   189  1.88  0.  0.
   190  1.89  0.  0.
   191  1.90  0.  0.
   192  1.91  0.  0.
   193  1.92  0.  0.
   194  1.93  0.  0.
   195  1.94  0.  0.
   196  1.95  0.  0.
   197  1.96  0.  0.
   198  1.97  0.  0.
   199  1.98  0.  0.
   200  1.99  0.  0.
   201  2.00  0.  0.
   202  2.01  0.  0.
   203  2.02  0.  0.
   204  2.03  0.  0.
   205  2.04  0.  0.
   206  2.05  0.  0.
   207  2.06  0.  0.
   208  2.07  0.  0.
   209  2.08  0.  0.
   210  2.09  0.  0.
   211  2.10  0.  0.
   212  2.11  0.  0.
   213  2.12  0.  0.
   214  2.13  0.  0.
   215  2.14  0.  0.
   216  2.15  0.  0.
   217  2.16  0.  0.
   218  2.17  0.  0.
   219  2.18  0.  0.