Br    ONCVPSP-4.0.1  r_core=   1.80857   1.50245   1.90861
     35.0000      7.0000      231019    zatom,zion,pspd
     8       2   2     4   600     0    pspcod,pspxc,lmax,lloc,mmax,r2well
  5.99000000  8.00000000  0.00000000    rchrg fchrg qchrg
     2     2     2     0     0    nproj
     1     1           extension_switch
   0                         8.0361496029221E+00  7.8026491393875E-01
     1  0.0000000000000E+00 -8.7827939365681E-10  2.7600096930147E-09
     2  1.0000000000000E-02  3.7255161143420E-02 -1.8586335310440E-02
     3  2.0000000000000E-02  7.4458090546735E-02 -3.7058688002036E-02
     4  3.0000000000000E-02  1.1155719540281E-01 -5.5305033807453E-02
     5  4.0000000000000E-02  1.4850214828685E-01 -7.3217226537078E-02
     6  5.0000000000000E-02  1.8524448886810E-01 -9.0692841276782E-02
     7  6.0000000000000E-02  2.2173818908511E-01 -1.0763690458527E-01
     8  7.0000000000000E-02  2.5794017065821E-01 -1.2396347733368E-01
     9  8.0000000000000E-02  2.9381076469135E-01 -1.3959705859007E-01
    10  9.0000000000000E-02  3.2931410418363E-01 -1.5447378230700E-01
    11  1.0000000000000E-01  3.6441844151033E-01 -1.6854238246124E-01
    12  1.1000000000000E-01  3.9909638432208E-01 -1.8176490665026E-01
    13  1.2000000000000E-01  4.3332504482402E-01 -1.9411716289271E-01
    14  1.3000000000000E-01  4.6708609900774E-01 -2.0558888942230E-01
    15  1.4000000000000E-01  5.0036575408891E-01 -2.1618364251706E-01
    16  1.5000000000000E-01  5.3315462412261E-01 -2.2591840277143E-01
    17  1.6000000000000E-01  5.6544751549615E-01 -2.3482290560115E-01
    18  1.7000000000000E-01  5.9724312570386E-01 -2.4293870707090E-01
    19  1.8000000000000E-01  6.2854366046093E-01 -2.5031800125613E-01
    20  1.9000000000000E-01  6.5935437578173E-01 -2.5702221019808E-01
    21  2.0000000000000E-01  6.8968305310663E-01 -2.6312037199647E-01
    22  2.1000000000000E-01  7.1953941688059E-01 -2.6868735662293E-01
    23  2.2000000000000E-01  7.4893450514516E-01 -2.7380194255471E-01
    24  2.3000000000000E-01  7.7788000467971E-01 -2.7854479025596E-01
    25  2.4000000000000E-01  8.0638756300039E-01 -2.8299635081599E-01
    26  2.5000000000000E-01  8.3446809008108E-01 -2.8723474964512E-01
    27  2.6000000000000E-01  8.6213106298886E-01 -2.9133368599630E-01
    28  2.7000000000000E-01  8.8938384671989E-01 -2.9536038920406E-01
    29  2.8000000000000E-01  9.1623104437665E-01 -2.9937367190413E-01
    30  2.9000000000000E-01  9.4267388944626E-01 -3.0342211912418E-01
    31  3.0000000000000E-01  9.6870969232651E-01 -3.0754245003767E-01
    32  3.1000000000000E-01  9.9433135241089E-01 -3.1175808638159E-01
    33  3.2000000000000E-01  1.0195269460000E+00 -3.1607795810045E-01
    34  3.3000000000000E-01  1.0442793990708E+00 -3.2049557274999E-01
    35  3.4000000000000E-01  1.0685662525275E+00 -3.2498837064299E-01
    36  3.5000000000000E-01  1.0923595260039E+00 -3.2951738272448E-01
    37  3.6000000000000E-01  1.1156256846093E+00 -3.3402720280952E-01
    38  3.7000000000000E-01  1.1383257112428E+00 -3.3844628019876E-01
    39  3.8000000000000E-01  1.1604152852664E+00 -3.4268753290225E-01
    40  3.9000000000000E-01  1.1818450664693E+00 -3.4664927585319E-01
    41  4.0000000000000E-01  1.2025610813907E+00 -3.5021645268587E-01
    42  4.1000000000000E-01  1.2225052072468E+00 -3.5326215398839E-01
    43  4.2000000000000E-01  1.2416157469442E+00 -3.5564939952522E-01
    44  4.3000000000000E-01  1.2598280870026E+00 -3.5723315685525E-01
    45  4.4000000000000E-01  1.2770754286758E+00 -3.5786256414252E-01
    46  4.5000000000000E-01  1.2932895811776E+00 -3.5738332085402E-01
    47  4.6000000000000E-01  1.3084018047268E+00 -3.5564020654282E-01
    48  4.7000000000000E-01  1.3223436901232E+00 -3.5247968509067E-01
    49  4.8000000000000E-01  1.3350480607987E+00 -3.4775254969053E-01
    50  4.9000000000000E-01  1.3464498827462E+00 -3.4131656253002E-01
    51  5.0000000000000E-01  1.3564871674426E+00 -3.3303904262287E-01
    52  5.1000000000000E-01  1.3651018528478E+00 -3.2279935554388E-01
    53  5.2000000000000E-01  1.3722406477837E+00 -3.1049125995679E-01
    54  5.3000000000000E-01  1.3778558254784E+00 -2.9602506777199E-01
    55  5.4000000000000E-01  1.3819059527886E+00 -2.7932957750593E-01
    56  5.5000000000000E-01  1.3843565425791E+00 -2.6035374389639E-01
    57  5.6000000000000E-01  1.3851806179314E+00 -2.3906805100275E-01
    58  5.7000000000000E-01  1.3843591782468E+00 -2.1546556082321E-01
    59  5.8000000000000E-01  1.3818815588876E+00 -1.8956261481120E-01
    60  5.9000000000000E-01  1.3777456777358E+00 -1.6139917148426E-01
    61  6.0000000000000E-01  1.3719581639065E+00 -1.3103876949173E-01
    62  6.1000000000000E-01  1.3645343658141E+00 -9.8568111938458E-02
    63  6.2000000000000E-01  1.3554982378074E+00 -6.4096274339234E-02
    64  6.3000000000000E-01  1.3448821066407E+00 -2.7753545189676E-02
    65  6.4000000000000E-01  1.3327263210884E+00  1.0310085332910E-02
    66  6.5000000000000E-01  1.3190787900114E+00  4.9926766696181E-02
    67  6.6000000000000E-01  1.3039944161077E+00  9.0912931506333E-02
    68  6.7000000000000E-01  1.2875344343890E+00  1.3307170771205E-01
    69  6.8000000000000E-01  1.2697656660968E+00  1.7619556098844E-01
    70  6.9000000000000E-01  1.2507597002638E+00  2.2006912431642E-01
    71  7.0000000000000E-01  1.2305920164244E+00  2.6447216802099E-01
    72  7.1000000000000E-01  1.2093410630469E+00  3.0918266055715E-01
    73  7.2000000000000E-01  1.1870873070854E+00  3.5397986819443E-01
    74  7.3000000000000E-01  1.1639122706151E+00  3.9864744049759E-01
    75  7.4000000000000E-01  1.1398975708064E+00  4.4297642816394E-01
    76  7.5000000000000E-01  1.1151239795046E+00  4.8676818037185E-01
    77  7.6000000000000E-01  1.0896705184118E+00  5.2983707032236E-01
    78  7.7000000000000E-01  1.0636136053152E+00  5.7201300009923E-01
    79  7.8000000000000E-01  1.0370262659861E+00  6.1314363929953E-01
    80  7.9000000000000E-01  1.0099774252858E+00  6.5309635605051E-01
    81  8.0000000000000E-01  9.8253128968842E-01  6.9175980396520E-01
    82  8.1000000000000E-01  9.5474683188034E-01  7.2904513422105E-01
    83  8.2000000000000E-01  9.2667738634451E-01  7.6488680818499E-01
    84  8.3000000000000E-01  8.9837036292258E-01  7.9924299275054E-01
    85  8.4000000000000E-01  8.6986708329050E-01  8.3209552768895E-01
    86  8.5000000000000E-01  8.4120274312565E-01  8.6344946172522E-01
    87  8.6000000000000E-01  8.1240650051953E-01  8.9333216160783E-01
    88  8.7000000000000E-01  7.8350168893699E-01  9.2179200601607E-01
    89  8.8000000000000E-01  7.5450615078149E-01  9.4889668361273E-01
    90  8.9000000000000E-01  7.2543268543361E-01  9.7473112176924E-01
    91  9.0000000000000E-01  6.9628960352597E-01  9.9939507933835E-01
    92  9.1000000000000E-01  6.6708137723943E-01  1.0230004432032E+00
    93  9.2000000000000E-01  6.3780937458757E-01  1.0456682740744E+00
    94  9.3000000000000E-01  6.0847266403288E-01  1.0675256520335E+00
    95  9.4000000000000E-01  5.7906887437803E-01  1.0887023765324E+00
    96  9.5000000000000E-01  5.4959509372614E-01  1.1093275788803E+00
    97  9.6000000000000E-01  5.2004879042614E-01  1.1295263075994E+00
    98  9.7000000000000E-01  4.9042873833268E-01  1.1494161483744E+00
    99  9.8000000000000E-01  4.6073592842564E-01  1.1691039406065E+00
   100  9.9000000000000E-01  4.3097444886148E-01  1.1886826518014E+00
   101  1.0000000000000E+00  4.0115231586873E-01  1.2082284691727E+00
   102  1.0100000000000E+00  3.7128223855124E-01  1.2277981649422E+00
   103  1.0200000000000E+00  3.4138230161687E-01  1.2474267879046E+00
   104  1.0300000000000E+00  3.1147655129064E-01  1.2671257289560E+00
   105  1.0400000000000E+00  2.8159547118642E-01  1.2868812025239E+00
   106  1.0500000000000E+00  2.5177633667074E-01  1.3066531792781E+00
   107  1.0600000000000E+00  2.2206343823177E-01  1.3263747982549E+00
   108  1.0700000000000E+00  1.9250816653683E-01  1.3459522786718E+00
   109  1.0800000000000E+00  1.6316895417861E-01  1.3652653434369E+00
   110  1.0900000000000E+00  1.3411107154826E-01  1.3841681577240E+00
   111  1.1000000000000E+00  1.0540627678043E-01  1.4024907772012E+00
   112  1.1100000000000E+00  7.7132322255456E-02  1.4200410916735E+00
   113  1.1200000000000E+00  4.9372322675624E-02  1.4366072411869E+00
   114  1.1300000000000E+00  2.2213992203541E-02  1.4519604732096E+00
   115  1.1400000000000E+00 -4.2512394658475E-03  1.4658584014603E+00
   116  1.1500000000000E+00 -2.9929219994034E-02  1.4780486194919E+00
   117  1.1600000000000E+00 -5.4724162074264E-02  1.4882726153251E+00
   118  1.1700000000000E+00 -7.8539809876089E-02  1.4962699274533E+00
   119  1.1800000000000E+00 -1.0128066663676E-01  1.5017824774550E+00
   120  1.1900000000000E+00 -1.2285326445525E-01  1.5045590103928E+00
   121  1.2000000000000E+00 -1.4316745632141E-01  1.5043595712070E+00
   122  1.2100000000000E+00 -1.6213770971174E-01  1.5009599434887E+00
   123  1.2200000000000E+00 -1.7968438071962E-01  1.4941559763958E+00
   124  1.2300000000000E+00 -1.9573494766946E-01  1.4837677260741E+00
   125  1.2400000000000E+00 -2.1022518349441E-01  1.4696433397571E+00
   126  1.2500000000000E+00 -2.2310024683417E-01  1.4516626137424E+00
   127  1.2600000000000E+00 -2.3431567282862E-01  1.4297401606447E+00
   128  1.2700000000000E+00 -2.4383824591741E-01  1.4038281266051E+00
   129  1.2800000000000E+00 -2.5164673860539E-01  1.3739184054898E+00
   130  1.2900000000000E+00 -2.5773250207967E-01  1.3400443043882E+00
   131  1.3000000000000E+00 -2.6209989673281E-01  1.3022816228032E+00
   132  1.3100000000000E+00 -2.6476655304416E-01  1.2607491167563E+00
   133  1.3200000000000E+00 -2.6576345584043E-01  1.2156083284019E+00
   134  1.3300000000000E+00 -2.6513484766049E-01  1.1670627715276E+00
   135  1.3400000000000E+00 -2.6293794974692E-01  1.1153564733602E+00
   136  1.3500000000000E+00 -2.5924250204197E-01  1.0607718832739E+00
   137  1.3600000000000E+00 -2.5413012640805E-01  1.0036271690586E+00
   138  1.3700000000000E+00 -2.4769352009503E-01  9.4427293125131E-01
   139  1.3800000000000E+00 -2.4003548918781E-01  8.8308837549538E-01
   140  1.3900000000000E+00 -2.3126783434342E-01  8.2047699180163E-01
   141  1.4000000000000E+00 -2.2151010351387E-01  7.5686179776833E-01
   142  1.4100000000000E+00 -2.1088822852769E-01  6.9268021019441E-01
   143  1.4200000000000E+00 -1.9953306430827E-01  6.2837861588719E-01
   144  1.4300000000000E+00 -1.8757885114172E-01  5.6440671781946E-01
   145  1.4400000000000E+00 -1.7516162170344E-01  5.0121173691075E-01
   146  1.4500000000000E+00 -1.6241757551987E-01  4.3923255262223E-01
   147  1.4600000000000E+00 -1.4948144414634E-01  3.7889386715558E-01
   148  1.4700000000000E+00 -1.3648487057755E-01  3.2060047831711E-01
   149  1.4800000000000E+00 -1.2355482621808E-01  2.6473174468638E-01
   150  1.4900000000000E+00 -1.1081208830535E-01  2.1163632495790E-01
   151  1.5000000000000E+00 -9.8369802135959E-02  1.6162728520098E-01
   152  1.5100000000000E+00 -8.6332146093675E-02  1.1497762969323E-01
   153  1.5200000000000E+00 -7.4793412491995E-02  7.1918330445809E-02
   154  1.5300000000000E+00 -6.3837439068401E-02  3.2638146995960E-02
   155  1.5400000000000E+00 -5.3536900557501E-02 -2.7181927134474E-03
   156  1.5500000000000E+00 -4.3952671512938E-02 -3.4051855564992E-02
   157  1.5600000000000E+00 -3.5133369685373E-02 -6.1311062067124E-02
   158  1.5700000000000E+00 -2.7115080007336E-02 -8.4491568216468E-02
   159  1.5800000000000E+00 -1.9921264175625E-02 -1.0363645247317E-01
   160  1.5900000000000E+00 -1.3562856771665E-02 -1.1883520873791E-01
   161  1.6000000000000E+00 -8.0385459536806E-03 -1.3022215661044E-01
   162  1.6100000000000E+00 -3.3352338149661E-03 -1.3797419089936E-01
   163  1.6200000000000E+00  5.7133136412231E-04 -1.4230790273808E-01
   164  1.6300000000000E+00  3.7157614897994E-03 -1.4347611457561E-01
   165  1.6400000000000E+00  6.1420867559050E-03 -1.4176388059422E-01
   166  1.6500000000000E+00  7.9026809495670E-03 -1.3748401260771E-01
   167  1.6600000000000E+00  9.0570715683161E-03 -1.3097219907741E-01
   168  1.6700000000000E+00  9.6706542041479E-03 -1.2258179142449E-01
   169  1.6800000000000E+00  9.8133321871156E-03 -1.1267833720872E-01
   170  1.6900000000000E+00  9.5581085882227E-03 -1.0163395935624E-01
   171  1.7000000000000E+00  8.9796024046933E-03 -8.9821506825054E-02
   172  1.7100000000000E+00  8.1527385637711E-03 -7.7609275203515E-02
   173  1.7200000000000E+00  7.1505760930857E-03 -6.5353060451203E-02
   174  1.7300000000000E+00  6.0368703630616E-03 -5.3371617457020E-02
   175  1.7400000000000E+00  4.8762964305085E-03 -4.1977839263745E-02
   176  1.7500000000000E+00  3.7349660943855E-03 -3.1479555954238E-02
   177  1.7600000000000E+00  2.6716529117858E-03 -2.2151108642343E-02
   178  1.7700000000000E+00  1.7375911662974E-03 -1.4231961199739E-02
   179  1.7800000000000E+00  9.7568672505177E-04 -7.9249299494988E-03
   180  1.7900000000000E+00  4.1702060571920E-04 -3.3712073541371E-03
   181  1.8000000000000E+00  9.2771528871114E-05 -7.4930492011268E-04
   182  1.8100000000000E+00 -4.3729798667190E-06  3.4746066416728E-05
   183  1.8200000000000E+00  4.6420423414313E-07 -3.7260467915184E-06
   184  1.83  0. -0.
   185  1.84 -0.  0.
   186  1.85  0. -0.
   187  1.86  0.  0.
   188  1.87  0.  0.
   189  1.88  0.  0.
   190  1.89  0.  0.
   191  1.90  0.  0.
   192  1.91  0.  0.
   193  1.92  0.  0.
   194  1.93  0.  0.
   195  1.94  0.  0.
   196  1.95  0.  0.
   197  1.96  0.  0.
   198  1.97  0.  0.
   199  1.98  0.  0.
   200  1.99  0.  0.
   201  2.00  0.  0.
   202  2.01  0.  0.
   203  2.02  0.  0.
   204  2.03  0.  0.
   205  2.04  0.  0.
   206  2.05  0.  0.
   207  2.06  0.  0.
   208  2.07  0.  0.
   209  2.08  0.  0.
   210  2.09  0.  0.
   211  2.10  0.  0.
   212  2.11  0.  0.
   213  2.12  0.  0.
   214  2.13  0.  0.
   215  2.14  0.  0.
   216  2.15  0.  0.
   217  2.16  0.  0.
   218  2.17  0.  0.
   219  2.18  0.  0.
   220  2.19  0.  0.
   221  2.20  0.  0.
   222  2.21  0.  0.
   223  2.22  0.  0.
   224  2.23  0.  0.
   225  2.24  0.  0.
   226  2.25  0.  0.
   227  2.26  0.  0.
   228  2.27  0.  0.
   229  2.28  0.  0.
   230  2.29  0.  0.
   231  2.30  0.  0.
   232  2.31  0.  0.
   233  2.32  0.  0.
   234  2.33  0.  0.
   235  2.34  0.  0.
   236  2.35  0.  0.
   237  2.36  0.  0.
   238  2.37  0.  0.
   239  2.38  0.  0.
   240  2.39  0.  0.
   241  2.40  0.  0.
   242  2.41  0.  0.
   243  2.42  0.  0.
   244  2.43  0.  0.
   245  2.44  0.  0.
   246  2.45  0.  0.
   247  2.46  0.  0.
   248  2.47  0.  0.
   249  2.48  0.  0.
   250  2.49  0.  0.
   251  2.50  0.  0.
   252  2.51  0.  0.
   253  2.52  0.  0.
   254  2.53  0.  0.
   255  2.54  0.  0.
   256  2.55  0.  0.
   257  2.56  0.  0.
   258  2.57  0.  0.
   259  2.58  0.  0.
   260  2.59  0.  0.
   261  2.60  0.  0.
   262  2.61  0.  0.
   263  2.62  0.  0.
   264  2.63  0.  0.
   265  2.64  0.  0.
   266  2.65  0.  0.
   267  2.66  0.  0.
   268  2.67  0.  0.
   269  2.68  0.  0.
   270  2.69  0.  0.
   271  2.70  0.  0.
   272  2.71  0.  0.
   273  2.72  0.  0.
   274  2.73  0.  0.
   275  2.74  0.  0.
   276  2.75  0.  0.
   277  2.76  0.  0.
   278  2.77  0.  0.
   279  2.78  0.  0.
   280  2.79  0.  0.
   281  2.80  0.  0.
   282  2.81  0.  0.
   283  2.82  0.  0.
   284  2.83  0.  0.
   285  2.84  0.  0.
   286  2.85  0.  0.
   287  2.86  0.  0.
   288  2.87  0.  0.
   289  2.88  0.  0.
   290  2.89  0.  0.
   291  2.90  0.  0.
   292  2.91  0.  0.
   293  2.92  0.  0.
   294  2.93  0.  0.
   295  2.94  0.  0.
   296  2.95  0.  0.
   297  2.96  0.  0.
   298  2.97  0.  0.
   299  2.98  0.  0.
   300  2.99  0.  0.
   301  3.00  0.  0.
   302  3.01  0.  0.
   303  3.02  0.  0.
   304  3.03  0.  0.
   305  3.04  0.  0.
   306  3.05  0.  0.
   307  3.06  0.  0.
   308  3.07  0.  0.
   309  3.08  0.  0.
   310  3.09  0.  0.
   311  3.10  0.  0.
   312  3.11  0.  0.
   313  3.12  0.  0.
   314  3.13  0.  0.
   315  3.14  0.  0.
   316  3.15  0.  0.
   317  3.16  0.  0.
   318  3.17  0.  0.
   319  3.18  0.  0.
   320  3.19  0.  0.
   321  3.20  0.  0.
   322  3.21  0.  0.
   323  3.22  0.  0.
   324  3.23  0.  0.
   325  3.24  0.  0.
   326  3.25  0.  0.
   327  3.26  0.  0.
   328  3.27  0.  0.
   329  3.28  0.  0.
   330  3.29  0.  0.
   331  3.30  0.  0.
   332  3.31  0.  0.
   333  3.32  0.  0.
   334  3.33  0.  0.
   335  3.34  0.  0.
   336  3.35  0.  0.
   337  3.36  0.  0.
   338  3.37  0.  0.
   339  3.38  0.  0.
   340  3.39  0.  0.
   341  3.40  0.  0.
   342  3.41  0.  0.
   343  3.42  0.  0.
   344  3.43  0.  0.
   345  3.44  0.  0.
   346  3.45  0.  0.
   347  3.46  0.  0.
   348  3.47  0.  0.
   349  3.48  0.  0.
   350  3.49  0.  0.
   351  3.50  0.  0.
   352  3.51  0.  0.
   353  3.52  0.  0.
   354  3.53  0.  0.
   355  3.54  0.  0.
   356  3.55  0.  0.
   357  3.56  0.  0.
   358  3.57  0.  0.
   359  3.58  0.  0.
   360  3.59  0.  0.
   361  3.60  0.  0.
   362  3.61  0.  0.
   363  3.62  0.  0.
   364  3.63  0.  0.
   365  3.64  0.  0.
   366  3.65  0.  0.
   367  3.66  0.  0.
   368  3.67  0.  0.
   369  3.68  0.  0.
   370  3.69  0.  0.
   371  3.70  0.  0.
   372  3.71  0.  0.
   373  3.72  0.  0.
   374  3.73  0.  0.
   375  3.74  0.  0.
   376  3.75  0.  0.
   377  3.76  0.  0.
   378  3.77  0.  0.
   379  3.78  0.  0.
   380  3.79  0.  0.
   381  3.80  0.  0.
   382  3.81  0.  0.
   383  3.82  0.  0.
   384  3.83  0.  0.
   385  3.84  0.  0.
   386  3.85  0.  0.
   387  3.86  0.  0.
   388  3.87  0.  0.
   389  3.88  0.  0.
   390  3.89  0.  0.
   391  3.90  0.  0.
   392  3.91  0.  0.
   393  3.92  0.  0.
   394  3.93  0.  0.
   395  3.94  0.  0.
   396  3.95  0.  0.
   397  3.96  0.  0.
   398  3.97  0.  0.
   399  3.98  0.  0.
   400  3.99  0.  0.
   401  4.00  0.  0.
   402  4.01  0.  0.
   403  4.02  0.  0.
   404  4.03  0.  0.
   405  4.04  0.  0.
   406  4.05  0.  0.
   407  4.06  0.  0.
   408  4.07  0.  0.
   409  4.08  0.  0.
   410  4.09  0.  0.
   411  4.10  0.  0.
   412  4.11  0.  0.
   413  4.12  0.  0.
   414  4.13  0.  0.
   415  4.14  0.  0.
   416  4.15  0.  0.
   417  4.16  0.  0.
   418  4.17  0.  0.
   419  4.18  0.  0.
   420  4.19  0.  0.
   421  4.20  0.  0.
   422  4.21  0.  0.
   423  4.22  0.  0.
   424  4.23  0.  0.
   425  4.24  0.  0.
   426  4.25  0.  0.
   427  4.26  0.  0.
   428  4.27  0.  0.
   429  4.28  0.  0.
   430  4.29  0.  0.
   431  4.30  0.  0.
   432  4.31  0.  0.
   433  4.32  0.  0.
   434  4.33  0.  0.
   435  4.34  0.  0.
   436  4.35  0.  0.
   437  4.36  0.  0.
   438  4.37  0.  0.
   439  4.38  0.  0.
   440  4.39  0.  0.
   441  4.40  0.  0.
   442  4.41  0.  0.
   443  4.42  0.  0.
   444  4.43  0.  0.
   445  4.44  0.  0.
   446  4.45  0.  0.
   447  4.46  0.  0.
   448  4.47  0.  0.
   449  4.48  0.  0.
   450  4.49  0.  0.
   451  4.50  0.  0.
   452  4.51  0.  0.
   453  4.52  0.  0.
   454  4.53  0.  0.
   455  4.54  0.  0.
   456  4.55  0.  0.
   457  4.56  0.  0.
   458  4.57  0.  0.
   459  4.58  0.  0.
   460  4.59  0.  0.
   461  4.60  0.  0.
   462  4.61  0.  0.
   463  4.62  0.  0.
   464  4.63  0.  0.
   465  4.64  0.  0.
   466  4.65  0.  0.
   467  4.66  0.  0.
   468  4.67  0.  0.
   469  4.68  0.  0.
   470  4.69  0.  0.
   471  4.70  0.  0.
   472  4.71  0.  0.
   473  4.72  0.  0.
   474  4.73  0.  0.
   475  4.74  0.  0.
   476  4.75  0.  0.
   477  4.76  0.  0.
   478  4.77  0.  0.
   479  4.78  0.  0.
   480  4.79  0.  0.
   481  4.80  0.  0.
   482  4.81  0.  0.
   483  4.82  0.  0.
   484  4.83  0.  0.
   485  4.84  0.  0.
   486  4.85  0.  0.
   487  4.86  0.  0.
   488  4.87  0.  0.
   489  4.88  0.  0.
   490  4.89  0.  0.
   491  4.90  0.  0.
   492  4.91  0.  0.
   493  4.92  0.  0.
   494  4.93  0.  0.
   495  4.94  0.  0.
   496  4.95  0.  0.
   497  4.96  0.  0.
   498  4.97  0.  0.
   499  4.98  0.  0.
   500  4.99  0.  0.
   501  5.00  0.  0.
   502  5.01  0.  0.
   503  5.02  0.  0.
   504  5.03  0.  0.
   505  5.04  0.  0.
   506  5.05  0.  0.
   507  5.06  0.  0.
   508  5.07  0.  0.
   509  5.08  0.  0.
   510  5.09  0.  0.
   511  5.10  0.  0.
   512  5.11  0.  0.
   513  5.12  0.  0.
   514  5.13  0.  0.
   515  5.14  0.  0.
   516  5.15  0.  0.
   517  5.16  0.  0.
   518  5.17  0.  0.
   519  5.18  0.  0.
   520  5.19  0.  0.
   521  5.20  0.  0.
   522  5.21  0.  0.
   523  5.22  0.  0.
   524  5.23  0.  0.
   525  5.24  0.  0.
   526  5.25  0.  0.
   527  5.26  0.  0.
   528  5.27  0.  0.
   529  5.28  0.  0.
   530  5.29  0.  0.
   531  5.30  0.  0.
   532  5.31  0.  0.
   533  5.32  0.  0.
   534  5.33  0.  0.
   535  5.34  0.  0.
   536  5.35  0.  0.
   537  5.36  0.  0.
   538  5.37  0.  0.
   539  5.38  0.  0.
   540  5.39  0.  0.
   541  5.40  0.  0.
   542  5.41  0.  0.
   543  5.42  0.  0.
   544  5.43  0.  0.
   545  5.44  0.  0.
   546  5.45  0.  0.
   547  5.46  0.  0.
   548  5.47  0.  0.
   549  5.48  0.  0.
   550  5.49  0.  0.
   551  5.50  0.  0.
   552  5.51  0.  0.
   553  5.52  0.  0.
   554  5.53  0.  0.
   555  5.54  0.  0.
   556  5.55  0.  0.
   557  5.56  0.  0.
   558  5.57  0.  0.
   559  5.58  0.  0.
   560  5.59  0.  0.
   561  5.60  0.  0.
   562  5.61  0.  0.
   563  5.62  0.  0.
   564  5.63  0.  0.
   565  5.64  0.  0.
   566  5.65  0.  0.
   567  5.66  0.  0.
   568  5.67  0.  0.
   569  5.68  0.  0.
   570  5.69  0.  0.
   571  5.70  0.  0.
   572  5.71  0.  0.
   573  5.72  0.  0.
   574  5.73  0.  0.
   575  5.74  0.  0.
   576  5.75  0.  0.
   577  5.76  0.  0.
   578  5.77  0.  0.
   579  5.78  0.  0.
   580  5.79  0.  0.
   581  5.80  0.  0.
   582  5.81  0.  0.
   583  5.82  0.  0.
   584  5.83  0.  0.
   585  5.84  0.  0.
   586  5.85  0.  0.
   587  5.86  0.  0.
   588  5.87  0.  0.
   589  5.88  0.  0.
   590  5.89  0.  0.
   591  5.90  0.  0.
   592  5.91  0.  0.
   593  5.92  0.  0.
   594  5.93  0.  0.
   595  5.94  0.  0.
   596  5.95  0.  0.
   597  5.96  0.  0.
   598  5.97  0.  0.
   599  5.98  0.  0.
   600  5.99  0.  0.
   1                         5.4945706686309E+00  8.7422600090300E-01
     1  0.0000000000000E+00  2.7673675170869E-08 -5.8130852673144E-08
     2  1.0000000000000E-02  1.6987453414516E-03 -2.1614306855541E-03
     3  2.0000000000000E-02  6.7644118867741E-03 -8.5845814448841E-03
     4  3.0000000000000E-02  1.5106014017952E-02 -1.9087535929990E-02
     5  4.0000000000000E-02  2.6574301654087E-02 -3.3372090089759E-02
     6  5.0000000000000E-02  4.0965290819455E-02 -5.1031114267070E-02
     7  6.0000000000000E-02  5.8025091081355E-02 -7.1558617602096E-02
     8  7.0000000000000E-02  7.7455917628866E-02 -9.4362278817594E-02
     9  8.0000000000000E-02  9.8923148089927E-02 -1.1877814933112E-01
    10  9.0000000000000E-02  1.2206325967058E-01 -1.4408718318192E-01
    11  1.0000000000000E-01  1.4649246140336E-01 -1.6953320465126E-01
    12  1.1000000000000E-01  1.7181581968720E-01 -1.9434188969644E-01
    13  1.2000000000000E-01  1.9763666327033E-01 -2.1774031221439E-01
    14  1.3000000000000E-01  2.2356604665200E-01 -2.3897659129157E-01
    15  1.4000000000000E-01  2.4923204873140E-01 -2.5733917134509E-01
    16  1.5000000000000E-01  2.7428868647471E-01 -2.7217527354054E-01
    17  1.6000000000000E-01  2.9842423135164E-01 -2.8290807397231E-01
    18  1.7000000000000E-01  3.2136872914811E-01 -2.8905219145948E-01
    19  1.8000000000000E-01  3.4290054121802E-01 -2.9022710486276E-01
    20  1.9000000000000E-01  3.6285174691842E-01 -2.8616816576525E-01
    21  2.0000000000000E-01  3.8111227240762E-01 -2.7673492617942E-01
    22  2.1000000000000E-01  3.9763263961782E-01 -2.6191656146400E-01
    23  2.2000000000000E-01  4.1242526041301E-01 -2.4183423452082E-01
    24  2.3000000000000E-01  4.2556423402029E-01 -2.1674031713269E-01
    25  2.4000000000000E-01  4.3718364004366E-01 -1.8701445644453E-01
    26  2.5000000000000E-01  4.4747435397216E-01 -1.5315654746756E-01
    27  2.6000000000000E-01  4.5667944630456E-01 -1.1577674446205E-01
    28  2.7000000000000E-01  4.6508825946039E-01 -7.5582713503041E-02
    29  2.8000000000000E-01  4.7302928778675E-01 -3.3364393876821E-02
    30  2.9000000000000E-01  4.8086201449128E-01  1.0023404300477E-02
    31  3.0000000000000E-01  4.8896788458150E-01  5.3680186085604E-02
    32  3.1000000000000E-01  4.9774061428285E-01  9.6680316620313E-02
    33  3.2000000000000E-01  5.0757605444005E-01  1.3809446495078E-01
    34  3.3000000000000E-01  5.1886183766847E-01  1.7701146158426E-01
    35  3.4000000000000E-01  5.3196704620834E-01  2.1256007020394E-01
    36  3.5000000000000E-01  5.4723213934864E-01  2.4393017071565E-01
    37  3.6000000000000E-01  5.6495937584831E-01  2.7039285887204E-01
    38  3.7000000000000E-01  5.8540395802747E-01  2.9131898701855E-01
    39  3.8000000000000E-01  6.0876611028484E-01  3.0619570069074E-01
    40  3.9000000000000E-01  6.3518428598912E-01  3.1464056627751E-01
    41  4.0000000000000E-01  6.6472967337068E-01  3.1641293493503E-01
    42  4.1000000000000E-01  6.9740214368673E-01  3.1142224635741E-01
    43  4.2000000000000E-01  7.3312775412184E-01  2.9973304165633E-01
    44  4.3000000000000E-01  7.7175788426924E-01  2.8156652607742E-01
    45  4.4000000000000E-01  8.1307004933755E-01  2.5729859805000E-01
    46  4.5000000000000E-01  8.5677039621338E-01  2.2745433948789E-01
    47  4.6000000000000E-01  9.0249785098857E-01  1.9269904161806E-01
    48  4.7000000000000E-01  9.4982984935573E-01  1.5382591916230E-01
    49  4.8000000000000E-01  9.9828954520873E-01  1.1174074169098E-01
    50  4.9000000000000E-01  1.0473543586629E+00  6.7443682701596E-02
    51  5.0000000000000E-01  1.0964656932984E+00  2.2008752825593E-02
    52  5.1000000000000E-01  1.1450396244466E+00 -2.3438757976338E-02
    53  5.2000000000000E-01  1.1924783364323E+00 -6.7746354667962E-02
    54  5.3000000000000E-01  1.2381820674094E+00 -1.0975941351097E-01
    55  5.4000000000000E-01  1.2815613062608E+00 -1.4834671737235E-01
    56  5.5000000000000E-01  1.3220489773254E+00 -1.8242588957776E-01
    57  5.6000000000000E-01  1.3591123457143E+00 -2.1098816087237E-01
    58  5.7000000000000E-01  1.3922643788023E+00 -2.3312191138749E-01
    59  5.8000000000000E-01  1.4210743081289E+00 -2.4803444920355E-01
    60  5.9000000000000E-01  1.4451771502770E+00 -2.5507151884629E-01
    61  6.0000000000000E-01  1.4642819650714E+00 -2.5373407628640E-01
    62  6.1000000000000E-01  1.4781786542651E+00 -2.4369192091107E-01
    63  6.2000000000000E-01  1.4867431332772E+00 -2.2479383843716E-01
    64  6.3000000000000E-01  1.4899407419193E+00 -1.9707398055903E-01
    65  6.4000000000000E-01  1.4878277967052E+00 -1.6075428579654E-01
    66  6.5000000000000E-01  1.4805512265321E+00 -1.1624282989145E-01
    67  6.6000000000000E-01  1.4683462744114E+00 -6.4128081431812E-02
    68  6.7000000000000E-01  1.4515322896608E+00 -5.1691273028879E-03
    69  6.8000000000000E-01  1.4305066766414E+00  5.9717978841027E-02
    70  6.9000000000000E-01  1.4057371068352E+00  1.2947750553115E-01
    71  7.0000000000000E-01  1.3777521399268E+00  2.0293464809957E-01
    72  7.1000000000000E-01  1.3471304357113E+00  2.7881905092438E-01
    73  7.2000000000000E-01  1.3144887712969E+00  3.5579078069006E-01
    74  7.3000000000000E-01  1.2804691064666E+00  4.3246822469010E-01
    75  7.4000000000000E-01  1.2457249635513E+00  5.0745733946250E-01
    76  7.5000000000000E-01  1.2109074061901E+00  5.7938163809250E-01
    77  7.6000000000000E-01  1.1766509134739E+00  6.4691228026730E-01
    78  7.7000000000000E-01  1.1435594518603E+00  7.0879761828916E-01
    79  7.8000000000000E-01  1.1121930467211E+00  7.6389155512512E-01
    80  7.9000000000000E-01  1.0830551483830E+00  8.1118008728508E-01
    81  8.0000000000000E-01  1.0565810741375E+00  8.4980543567241E-01
    82  8.1000000000000E-01  1.0331277881310E+00  8.7908721104229E-01
    83  8.2000000000000E-01  1.0129652556778E+00  8.9854011655004E-01
    84  8.3000000000000E-01  9.9626957782635E-01  9.0788775701852E-01
    85  8.4000000000000E-01  9.8311807657140E-01  9.0707220169396E-01
    86  8.5000000000000E-01  9.7348646163211E-01  8.9625903285895E-01
    87  8.6000000000000E-01  9.6724816702224E-01  8.7583770500230E-01
    88  8.7000000000000E-01  9.6417590058613E-01  8.4641713641848E-01
    89  8.8000000000000E-01  9.6394540320361E-01  8.0881655511454E-01
    90  8.9000000000000E-01  9.6614136744793E-01  7.6405172164846E-01
    91  9.0000000000000E-01  9.7026541910275E-01  7.1331675088430E-01
    92  9.1000000000000E-01  9.7574602009675E-01  6.5796185050794E-01
    93  9.2000000000000E-01  9.8195010906074E-01  5.9946738443747E-01
    94  9.3000000000000E-01  9.8819625677312E-01  5.3941475201996E-01
    95  9.4000000000000E-01  9.9376907909008E-01  4.7945464730631E-01
    96  9.5000000000000E-01  9.9793462033684E-01  4.2127332508094E-01
    97  9.6000000000000E-01  9.9995639622569E-01  3.6655755029381E-01
    98  9.7000000000000E-01  9.9911176774225E-01  3.1695894387982E-01
    99  9.8000000000000E-01  9.9470830652185E-01  2.7405845978085E-01
   100  9.9000000000000E-01  9.8609980832224E-01  2.3933173468936E-01
   101  1.0000000000000E+00  9.7270161443175E-01  2.1411604332476E-01
   102  1.0100000000000E+00  9.5400491124133E-01  1.9957956794304E-01
   103  1.0200000000000E+00  9.2958969559984E-01  1.9669365162899E-01
   104  1.0300000000000E+00  8.9913611764163E-01  2.0620865144493E-01
   105  1.0400000000000E+00  8.6243394314471E-01  2.2863394055240E-01
   106  1.0500000000000E+00  8.1938991349132E-01  2.6422252941898E-01
   107  1.0600000000000E+00  7.7003282228638E-01  3.1296068663981E-01
   108  1.0700000000000E+00  7.1451617291557E-01  3.7456284132879E-01
   109  1.0800000000000E+00  6.5311832968161E-01  4.4847194388132E-01
   110  1.0900000000000E+00  5.8624012594118E-01  5.3386535170042E-01
   111  1.1000000000000E+00  5.1439994458380E-01  6.2966619401105E-01
   112  1.1100000000000E+00  4.3822633832426E-01  7.3456005715498E-01
   113  1.1200000000000E+00  3.5844830855590E-01  8.4701672106271E-01