Br    ONCVPSP-4.0.1  r_core=   1.80857   1.50245   1.90861
     35.0000      7.0000      250217    zatom,zion,pspd
     8       2   2     4   600     0    pspcod,pspxc,lmax,lloc,mmax,r2well
  5.99000000  8.00000000  0.00000000    rchrg fchrg qchrg
     2     3     2     0    nproj
     3     1           extension_switch
     3     3     0    nprojso
   0                         8.0363577473049E+00  7.7994186799707E-01
     1  0.0000000000000E+00 -8.7712936913675E-10  2.7571376293167E-09
     2  1.0000000000000E-02  3.7237164469406E-02 -1.8574016327671E-02
     3  2.0000000000000E-02  7.4422186130639E-02 -3.7034215120874E-02
     4  3.0000000000000E-02  1.1150356010895E-01 -5.5268734812096E-02
     5  4.0000000000000E-02  1.4843104492958E-01 -7.3169587184084E-02
     6  5.0000000000000E-02  1.8515626328002E-01 -9.0634498307242E-02
     7  6.0000000000000E-02  2.2163326628485E-01 -1.0756863659856E-01
     8  7.0000000000000E-02  2.5781905018209E-01 -1.2388619368192E-01
     9  8.0000000000000E-02  2.9367401516687E-01 -1.3951178648687E-01
    10  9.0000000000000E-02  3.2916235723536E-01 -1.5438165237465E-01
    11  1.0000000000000E-01  3.6425238509962E-01 -1.6844461296759E-01
    12  1.1000000000000E-01  3.9891675563104E-01 -1.8166278670871E-01
    13  1.2000000000000E-01  4.3313262280135E-01 -1.9401203491573E-01
    14  1.3000000000000E-01  4.6688169669893E-01 -2.0548213113156E-01
    15  1.4000000000000E-01  5.0015021087627E-01 -2.1607664881916E-01
    16  1.5000000000000E-01  5.3292879800112E-01 -2.2581256780972E-01
    17  1.6000000000000E-01  5.6521227550931E-01 -2.3471960528915E-01
    18  1.7000000000000E-01  5.9699934466009E-01 -2.4283928240281E-01
    19  1.8000000000000E-01  6.2829220804475E-01 -2.5022374267414E-01
    20  1.9000000000000E-01  6.5909611216617E-01 -2.5693434327582E-01
    21  2.0000000000000E-01  6.8941882316294E-01 -2.6304004467234E-01
    22  2.1000000000000E-01  7.1927004507003E-01 -2.6861562818731E-01
    23  2.2000000000000E-01  7.4866079116401E-01 -2.7373977456197E-01
    24  2.3000000000000E-01  7.7760271991450E-01 -2.7849303949535E-01
    25  2.4000000000000E-01  8.0610744783444E-01 -2.8295576443660E-01
    26  2.5000000000000E-01  8.3418585207748E-01 -2.8720596248935E-01
    27  2.6000000000000E-01  8.6184737595810E-01 -2.9131722015443E-01
    28  2.7000000000000E-01  8.8909935066345E-01 -2.9535665576037E-01
    29  2.8000000000000E-01  9.1594634628134E-01 -2.9938297480360E-01
    30  2.9000000000000E-01  9.4238956488760E-01 -3.0344466104838E-01
    31  3.0000000000000E-01  9.6842628782402E-01 -3.0757834014017E-01
    32  3.1000000000000E-01  9.9404938846373E-01 -3.1180734969769E-01
    33  3.2000000000000E-01  1.0192469207182E+00 -3.1614054641376E-01
    34  3.3000000000000E-01  1.0440017923057E+00 -3.2057137667028E-01
    35  3.4000000000000E-01  1.0682915303951E+00 -3.2507723262604E-01
    36  3.5000000000000E-01  1.0920881456872E+00 -3.2961911074595E-01
    37  3.6000000000000E-01  1.1153580993198E+00 -3.3414158439149E-01
    38  3.7000000000000E-01  1.1380623752170E+00 -3.3857309648009E-01
    39  3.8000000000000E-01  1.1601566586738E+00 -3.4282657244167E-01
    40  3.9000000000000E-01  1.1815916201072E+00 -3.4680034785844E-01
    41  4.0000000000000E-01  1.2023133010463E+00 -3.5037939937171E-01
    42  4.1000000000000E-01  1.2222635976114E+00 -3.5343686178187E-01
    43  4.2000000000000E-01  1.2413808349735E+00 -3.5583580885773E-01
    44  4.3000000000000E-01  1.2596004246265E+00 -3.5743127030687E-01
    45  4.4000000000000E-01  1.2768555947718E+00 -3.5807245273470E-01
    46  4.5000000000000E-01  1.2930781827380E+00 -3.5760512832198E-01
    47  4.6000000000000E-01  1.3081994771619E+00 -3.5587415145704E-01
    48  4.7000000000000E-01  1.3221510966620E+00 -3.5272606073819E-01
    49  4.8000000000000E-01  1.3348658909630E+00 -3.4801172167030E-01
    50  4.9000000000000E-01  1.3462788498932E+00 -3.4158896406111E-01
    51  5.0000000000000E-01  1.3563280053898E+00 -3.3332516760970E-01
    52  5.1000000000000E-01  1.3649553116094E+00 -3.2309974948741E-01
    53  5.2000000000000E-01  1.3721074884686E+00 -3.1080650884462E-01
    54  5.3000000000000E-01  1.3777368144151E+00 -2.9635578512213E-01
    55  5.4000000000000E-01  1.3818018549581E+00 -2.7967638977835E-01
    56  5.5000000000000E-01  1.3842681144529E+00 -2.6071727452164E-01
    57  5.6000000000000E-01  1.3851085998236E+00 -2.3944890330938E-01
    58  5.7000000000000E-01  1.3843042863013E+00 -2.1586430017156E-01
    59  5.8000000000000E-01  1.3818444768315E+00 -1.8997975026334E-01
    60  5.9000000000000E-01  1.3777270485352E+00 -1.6183513735501E-01
    61  6.0000000000000E-01  1.3719585814675E+00 -1.3149390713574E-01
    62  6.1000000000000E-01  1.3645543668734E+00 -9.9042652130881E-02
    63  6.2000000000000E-01  1.3555382941561E+00 -6.4590320605005E-02
    64  6.3000000000000E-01  1.3449426178230E+00 -2.8267058425810E-02
    65  6.4000000000000E-01  1.3328076077104E+00  9.7773006134267E-03
    66  6.5000000000000E-01  1.3191810877885E+00  4.9375074192915E-02
    67  6.6000000000000E-01  1.3041178707672E+00  9.0342872755067E-02
    68  6.7000000000000E-01  1.2876790975339E+00  1.3248400925957E-01
    69  6.8000000000000E-01  1.2699314921200E+00  1.7559113891400E-01
    70  6.9000000000000E-01  1.2509465443885E+00  2.1944908593793E-01
    71  7.0000000000000E-01  1.2307996339255E+00  2.6383781067112E-01
    72  7.1000000000000E-01  1.2095691096911E+00  3.0853546736368E-01
    73  7.2000000000000E-01  1.1873353408076E+00  3.5332150085106E-01
    74  7.3000000000000E-01  1.1641797544272E+00  3.9797972906371E-01
    75  7.4000000000000E-01  1.1401838769153E+00  4.4230135798469E-01
    76  7.5000000000000E-01  1.1154283945937E+00  4.8608787626169E-01
    77  7.6000000000000E-01  1.0899922500214E+00  5.2915377820584E-01
    78  7.7000000000000E-01  1.0639517892390E+00  5.7132906635000E-01
    79  7.8000000000000E-01  1.0373799745803E+00  6.1246148806299E-01
    80  7.9000000000000E-01  1.0103456765729E+00  6.5241846487553E-01
    81  8.0000000000000E-01  9.8291305712297E-01  6.9108867810476E-01
    82  8.1000000000000E-01  9.5514105463031E-01  7.2838327999110E-01
    83  8.2000000000000E-01  9.2708297993308E-01  7.6423670579330E-01
    84  8.3000000000000E-01  8.9878623006649E-01  7.9860706902366E-01
    85  8.4000000000000E-01  8.7029212476692E-01  8.3147612913355E-01
    86  8.5000000000000E-01  8.4163586849718E-01  8.6284882836219E-01
    87  8.6000000000000E-01  8.1284663854776E-01  8.9275240201053E-01
    88  8.7000000000000E-01  7.8394779751902E-01  9.2123507397101E-01
    89  8.8000000000000E-01  7.5495722625025E-01  9.4836435679964E-01
    90  8.9000000000000E-01  7.2588777107231E-01  9.7422498282894E-01
    91  9.0000000000000E-01  6.9674779715930E-01  9.9891649966232E-01
    92  9.1000000000000E-01  6.6754183777845E-01  1.0225505697370E+00
    93  9.2000000000000E-01  6.3827132742230E-01  1.0452480193810E+00
    94  9.3000000000000E-01  6.0893540518532E-01  1.0671356878098E+00
    95  9.4000000000000E-01  5.7953177334897E-01  1.0883431307181E+00
    96  9.5000000000000E-01  5.5005759499086E-01  1.1089992364377E+00
    97  9.6000000000000E-01  5.2051041355721E-01  1.1292288149839E+00
    98  9.7000000000000E-01  4.9088907675131E-01  1.1491492216510E+00
    99  9.8000000000000E-01  4.6119464680682E-01  1.1688670771078E+00
   100  9.9000000000000E-01  4.3143127924167E-01  1.1884751451592E+00
   101  1.0000000000000E+00  4.0160705252763E-01  1.2080494274994E+00
   102  1.0100000000000E+00  3.7173473176132E-01  1.2276465318783E+00
   103  1.0200000000000E+00  3.4183245037434E-01  1.2473013661999E+00
   104  1.0300000000000E+00  3.1192429516089E-01  1.2670252062043E+00
   105  1.0400000000000E+00  2.8204078141296E-01  1.2868041786286E+00
   106  1.0500000000000E+00  2.5221920671151E-01  1.3065981951954E+00
   107  1.0600000000000E+00  2.2250387389777E-01  1.3263403655293E+00
   108  1.0700000000000E+00  1.9294617591687E-01  1.3459369092653E+00
   109  1.0800000000000E+00  1.6360453753963E-01  1.3652675793372E+00
   110  1.0900000000000E+00  1.3454421140292E-01  1.3841865998184E+00
   111  1.1000000000000E+00  1.0583692831280E-01  1.4025241129088E+00
   112  1.1100000000000E+00  7.7560404291352E-02  1.4200881208419E+00
   113  1.1200000000000E+00  4.9797709376908E-02  1.4366668997856E+00
   114  1.1300000000000E+00  2.2636505654733E-02  1.4520318543836E+00
   115  1.1400000000000E+00 -3.8318356237467E-03  1.4659407735463E+00
   116  1.1500000000000E+00 -2.9513225744135E-02  1.4781414406488E+00
   117  1.1600000000000E+00 -5.4311944899519E-02  1.4883755444820E+00
   118  1.1700000000000E+00 -7.8131807232160E-02  1.4963828313396E+00
   119  1.1800000000000E+00 -1.0087738694735E-01  1.5019054335390E+00
   120  1.1900000000000E+00 -1.2245528657996E-01  1.5046923056258E+00
   121  1.2000000000000E+00 -1.4277542747215E-01  1.5045036965374E+00
   122  1.2100000000000E+00 -1.6175234182062E-01  1.5011155841853E+00
   123  1.2200000000000E+00 -1.7930644528789E-01  1.4943239982895E+00
   124  1.2300000000000E+00 -1.9536526915415E-01  1.4839491578994E+00
   125  1.2400000000000E+00 -2.0986463131543E-01  1.4698393518442E+00
   126  1.2500000000000E+00 -2.2274972610965E-01  1.4518744933751E+00
   127  1.2600000000000E+00 -2.3397611396994E-01  1.4299692844626E+00
   128  1.2700000000000E+00 -2.4351059323704E-01  1.4040759304819E+00
   129  1.2800000000000E+00 -2.5133193811000E-01  1.3741863523697E+00
   130  1.2900000000000E+00 -2.5743148863764E-01  1.3403338506050E+00
   131  1.3000000000000E+00 -2.6181358081907E-01  1.3025941834382E+00
   132  1.3100000000000E+00 -2.6449580727578E-01  1.2610860306167E+00
   133  1.3200000000000E+00 -2.6550910152337E-01  1.2159708232161E+00
   134  1.3300000000000E+00 -2.6489764157152E-01  1.1674519299592E+00
   135  1.3400000000000E+00 -2.6271857137455E-01  1.1157732004381E+00
   136  1.3500000000000E+00 -2.5904154150599E-01  1.0612168758202E+00
   137  1.3600000000000E+00 -2.5394807327017E-01  1.0041008876721E+00
   138  1.3700000000000E+00 -2.4753075326146E-01  9.4477557537145E-01
   139  1.3800000000000E+00 -2.3989226809016E-01  8.8361986202524E-01
   140  1.3900000000000E+00 -2.3114429156636E-01  8.2103693771951E-01
   141  1.4000000000000E+00 -2.2140623901704E-01  7.5744950709654E-01
   142  1.4100000000000E+00 -2.1080390558590E-01  6.9329466562787E-01
   143  1.4200000000000E+00 -1.9946800726800E-01  6.2901847531172E-01
   144  1.4300000000000E+00 -1.8753264506434E-01  5.6507031587318E-01
   145  1.4400000000000E+00 -1.7513371393629E-01  5.0189709166102E-01
   146  1.4500000000000E+00 -1.6240727920595E-01  4.3993737734777E-01
   147  1.4600000000000E+00 -1.4948794365294E-01  3.7961558713989E-01
   148  1.4700000000000E+00 -1.3650722879305E-01  3.2133625247553E-01
   149  1.4800000000000E+00 -1.2359199363617E-01  2.6547849176791E-01
   150  1.4900000000000E+00 -1.1086291378636E-01  2.1239075398420E-01
   151  1.5000000000000E+00 -9.8433045206430E-02  1.6238592973486E-01
   152  1.5100000000000E+00 -8.6406490620167E-02  1.1573688545649E-01
   153  1.5200000000000E+00 -7.4877481427408E-02  7.2674496263248E-02
   154  1.5300000000000E+00 -6.3929810017957E-02  3.3387468884805E-02
   155  1.5400000000000E+00 -5.3636122095274E-02 -1.9794754272841E-03
   156  1.5500000000000E+00 -4.4057280054667E-02 -3.3327462937463E-02
   157  1.5600000000000E+00 -3.5241906667427E-02 -6.0604625722619E-02
   158  1.5700000000000E+00 -2.7226109117699E-02 -8.3806583747042E-02
   159  1.5800000000000E+00 -2.0033388379213E-02 -1.0297623277014E-01
   160  1.5900000000000E+00 -1.3674734873275E-02 -1.1820283896936E-01
   161  1.6000000000000E+00 -8.1489084468951E-03 -1.2962045154078E-01
   162  1.6100000000000E+00 -3.4428977742978E-03 -1.3740565521905E-01
   163  1.6200000000000E+00  4.6744857768120E-04 -1.4177469503258E-01
   164  1.6300000000000E+00  3.6166299231936E-03 -1.4298001551451E-01
   165  1.6400000000000E+00  6.0485531517938E-03 -1.4130626586312E-01
   166  1.6500000000000E+00  7.8154597978145E-03 -1.3706583103940E-01
   167  1.6600000000000E+00  8.9767380657336E-03 -1.3059395636527E-01
   168  1.6700000000000E+00  9.5976392387661E-03 -1.2224353972087E-01
   169  1.6800000000000E+00  9.7479194331958E-03 -1.1237967082610E-01
   170  1.6900000000000E+00  9.5004337648845E-03 -1.0137401669998E-01
   171  1.7000000000000E+00  8.9296547367773E-03 -8.9598978600722E-02
   172  1.7100000000000E+00  8.1103643630679E-03 -7.7422418805585E-02
   173  1.7200000000000E+00  7.1154847703041E-03 -6.5199720599277E-02
   174  1.7300000000000E+00  6.0086443088985E-03 -5.3249252330120E-02
   175  1.7400000000000E+00  4.8543987581483E-03 -4.1883550980226E-02
   176  1.7500000000000E+00  3.7187500734998E-03 -3.1410127424209E-02
   177  1.7600000000000E+00  2.6603759004442E-03 -2.2103046246653E-02
   178  1.7700000000000E+00  1.7304295906196E-03 -1.4201541122572E-02
   179  1.7800000000000E+00  9.7175130881448E-04 -7.9082435266095E-03
   180  1.7900000000000E+00  4.1538232151378E-04 -3.3642511621985E-03
   181  1.8000000000000E+00  9.2444470532694E-05 -7.4788239802161E-04
   182  1.8100000000000E+00 -4.3185483283491E-06  3.4553806145884E-05
   183  1.8200000000000E+00  4.6129646888888E-07 -3.7148583187381E-06
   184  1.83  0.  0.
   185  1.84  0.  0.
   186  1.85  0.  0.
   187  1.86  0.  0.
   188  1.87  0.  0.
   189  1.88  0.  0.
   190  1.89  0.  0.
   191  1.90  0.  0.
   192  1.91  0.  0.
   193  1.92  0.  0.
   194  1.93  0.  0.
   195  1.94  0.  0.
   196  1.95  0.  0.
   197  1.96  0.  0.
   198  1.97  0.  0.
   199  1.98  0.  0.
   200  1.99  0.  0.
   201  2.00  0.  0.
   202  2.01  0.  0.
   203  2.02  0.  0.
   204  2.03  0.  0.
   205  2.04  0.  0.
   206  2.05  0.  0.
   207  2.06  0.  0.
   208  2.07  0.  0.
   209  2.08  0.  0.
   210  2.09  0.  0.
   211  2.10  0.  0.
   212  2.11  0.  0.
   213  2.12  0.  0.
   214  2.13  0.  0.
   215  2.14  0.  0.
   216  2.15  0.  0.
   217  2.16  0.  0.
   218  2.17  0.  0.
   219  2.18  0.  0.
   220  2.19  0.  0.
   221  2.20  0.  0.
   222  2.21  0.  0.
   223  2.22  0.  0.
   224  2.23  0.  0.
   225  2.24  0.  0.
   226  2.25  0.  0.
   227  2.26  0.  0.
   228  2.27  0.  0.
   229  2.28  0.  0.
   230  2.29  0.  0.
   231  2.30  0.  0.
   232  2.31  0.  0.
   233  2.32  0.  0.
   234  2.33  0.  0.
   235  2.34  0.  0.
   236  2.35  0.  0.
   237  2.36  0.  0.
   238  2.37  0.  0.
   239  2.38  0.  0.
   240  2.39  0.  0.
   241  2.40  0.  0.
   242  2.41  0.  0.
   243  2.42  0.  0.
   244  2.43  0.  0.
   245  2.44  0.  0.
   246  2.45  0.  0.
   247  2.46  0.  0.
   248  2.47  0.  0.
   249  2.48  0.  0.
   250  2.49  0.  0.
   251  2.50  0.  0.
   252  2.51  0.  0.
   253  2.52  0.  0.
   254  2.53  0.  0.
   255  2.54  0.  0.
   256  2.55  0.  0.
   257  2.56  0.  0.
   258  2.57  0.  0.
   259  2.58  0.  0.
   260  2.59  0.  0.
   261  2.60  0.  0.
   262  2.61  0.  0.
   263  2.62  0.  0.
   264  2.63  0.  0.
   265  2.64  0.  0.
   266  2.65  0.  0.
   267  2.66  0.  0.
   268  2.67  0.  0.
   269  2.68  0.  0.
   270  2.69  0.  0.
   271  2.70  0.  0.
   272  2.71  0.  0.
   273  2.72  0.  0.
   274  2.73  0.  0.
   275  2.74  0.  0.
   276  2.75  0.  0.
   277  2.76  0.  0.
   278  2.77  0.  0.
   279  2.78  0.  0.
   280  2.79  0.  0.
   281  2.80  0.  0.
   282  2.81  0.  0.
   283  2.82  0.  0.
   284  2.83  0.  0.
   285  2.84  0.  0.
   286  2.85  0.  0.
   287  2.86  0.  0.
   288  2.87  0.  0.
   289  2.88  0.  0.
   290  2.89  0.  0.
   291  2.90  0.  0.
   292  2.91  0.  0.
   293  2.92  0.  0.
   294  2.93  0.  0.
   295  2.94  0.  0.
   296  2.95  0.  0.
   297  2.96  0.  0.
   298  2.97  0.  0.
   299  2.98  0.  0.
   300  2.99  0.  0.
   301  3.00  0.  0.
   302  3.01  0.  0.
   303  3.02  0.  0.
   304  3.03  0.  0.
   305  3.04  0.  0.
   306  3.05  0.  0.
   307  3.06  0.  0.
   308  3.07  0.  0.
   309  3.08  0.  0.
   310  3.09  0.  0.
   311  3.10  0.  0.
   312  3.11  0.  0.
   313  3.12  0.  0.
   314  3.13  0.  0.
   315  3.14  0.  0.
   316  3.15  0.  0.
   317  3.16  0.  0.
   318  3.17  0.  0.
   319  3.18  0.  0.
   320  3.19  0.  0.
   321  3.20  0.  0.
   322  3.21  0.  0.
   323  3.22  0.  0.
   324  3.23  0.  0.
   325  3.24  0.  0.
   326  3.25  0.  0.
   327  3.26  0.  0.
   328  3.27  0.  0.
   329  3.28  0.  0.
   330  3.29  0.  0.
   331  3.30  0.  0.
   332  3.31  0.  0.
   333  3.32  0.  0.
   334  3.33  0.  0.
   335  3.34  0.  0.
   336  3.35  0.  0.
   337  3.36  0.  0.
   338  3.37  0.  0.
   339  3.38  0.  0.
   340  3.39  0.  0.
   341  3.40  0.  0.
   342  3.41  0.  0.
   343  3.42  0.  0.
   344  3.43  0.  0.
   345  3.44  0.  0.
   346  3.45  0.  0.
   347  3.46  0.  0.
   348  3.47  0.  0.
   349  3.48  0.  0.
   350  3.49  0.  0.
   351  3.50  0.  0.
   352  3.51  0.  0.
   353  3.52  0.  0.
   354  3.53  0.  0.
   355  3.54  0.  0.
   356  3.55  0.  0.
   357  3.56  0.  0.
   358  3.57  0.  0.
   359  3.58  0.  0.
   360  3.59  0.  0.
   361  3.60  0.  0.
   362  3.61  0.  0.
   363  3.62  0.  0.
   364  3.63  0.  0.
   365  3.64  0.  0.
   366  3.65  0.  0.
   367  3.66  0.  0.
   368  3.67  0.  0.
   369  3.68  0.  0.
   370  3.69  0.  0.
   371  3.70  0.  0.
   372  3.71  0.  0.
   373  3.72  0.  0.
   374  3.73  0.  0.
   375  3.74  0.  0.
   376  3.75  0.  0.
   377  3.76  0.  0.
   378  3.77  0.  0.
   379  3.78  0.  0.
   380  3.79  0.  0.
   381  3.80  0.  0.
   382  3.81  0.  0.
   383  3.82  0.  0.
   384  3.83  0.  0.
   385  3.84  0.  0.
   386  3.85  0.  0.
   387  3.86  0.  0.
   388  3.87  0.  0.
   389  3.88  0.  0.
   390  3.89  0.  0.
   391  3.90  0.  0.
   392  3.91  0.  0.
   393  3.92  0.  0.
   394  3.93  0.  0.
   395  3.94  0.  0.
   396  3.95  0.  0.
   397  3.96  0.  0.
   398  3.97  0.  0.
   399  3.98  0.  0.
   400  3.99  0.  0.
   401  4.00  0.  0.
   402  4.01  0.  0.
   403  4.02  0.  0.
   404  4.03  0.  0.
   405  4.04  0.  0.
   406  4.05  0.  0.
   407  4.06  0.  0.
   408  4.07  0.  0.
   409  4.08  0.  0.
   410  4.09  0.  0.
   411  4.10  0.  0.
   412  4.11  0.  0.
   413  4.12  0.  0.
   414  4.13  0.  0.
   415  4.14  0.  0.
   416  4.15  0.  0.
   417  4.16  0.  0.
   418  4.17  0.  0.
   419  4.18  0.  0.
   420  4.19  0.  0.
   421  4.20  0.  0.
   422  4.21  0.  0.
   423  4.22  0.  0.
   424  4.23  0.  0.
   425  4.24  0.  0.
   426  4.25  0.  0.
   427  4.26  0.  0.
   428  4.27  0.  0.
   429  4.28  0.  0.
   430  4.29  0.  0.
   431  4.30  0.  0.
   432  4.31  0.  0.
   433  4.32  0.  0.
   434  4.33  0.  0.
   435  4.34  0.  0.
   436  4.35  0.  0.
   437  4.36  0.  0.
   438  4.37  0.  0.
   439  4.38  0.  0.
   440  4.39  0.  0.
   441  4.40  0.  0.
   442  4.41  0.  0.
   443  4.42  0.  0.
   444  4.43  0.  0.
   445  4.44  0.  0.
   446  4.45  0.  0.
   447  4.46  0.  0.
   448  4.47  0.  0.
   449  4.48  0.  0.
   450  4.49  0.  0.
   451  4.50  0.  0.
   452  4.51  0.  0.
   453  4.52  0.  0.
   454  4.53  0.  0.
   455  4.54  0.  0.
   456  4.55  0.  0.
   457  4.56  0.  0.
   458  4.57  0.  0.
   459  4.58  0.  0.
   460  4.59  0.  0.
   461  4.60  0.  0.
   462  4.61  0.  0.
   463  4.62  0.  0.
   464  4.63  0.  0.
   465  4.64  0.  0.
   466  4.65  0.  0.
   467  4.66  0.  0.
   468  4.67  0.  0.
   469  4.68  0.  0.
   470  4.69  0.  0.
   471  4.70  0.  0.
   472  4.71  0.  0.
   473  4.72  0.  0.
   474  4.73  0.  0.
   475  4.74  0.  0.
   476  4.75  0.  0.
   477  4.76  0.  0.
   478  4.77  0.  0.
   479  4.78  0.  0.
   480  4.79  0.  0.
   481  4.80  0.  0.
   482  4.81  0.  0.
   483  4.82  0.  0.
   484  4.83  0.  0.
   485  4.84  0.  0.
   486  4.85  0.  0.
   487  4.86  0.  0.
   488  4.87  0.  0.
   489  4.88  0.  0.
   490  4.89  0.  0.
   491  4.90  0.  0.
   492  4.91  0.  0.
   493  4.92  0.  0.
   494  4.93  0.  0.
   495  4.94  0.  0.
   496  4.95  0.  0.
   497  4.96  0.  0.
   498  4.97  0.  0.
   499  4.98  0.  0.
   500  4.99  0.  0.
   501  5.00  0.  0.
   502  5.01  0.  0.
   503  5.02  0.  0.
   504  5.03  0.  0.
   505  5.04  0.  0.
   506  5.05  0.  0.
   507  5.06  0.  0.
   508  5.07  0.  0.
   509  5.08  0.  0.
   510  5.09  0.  0.
   511  5.10  0.  0.
   512  5.11  0.  0.
   513  5.12  0.  0.
   514  5.13  0.  0.
   515  5.14  0.  0.
   516  5.15  0.  0.
   517  5.16  0.  0.
   518  5.17  0.  0.
   519  5.18  0.  0.
   520  5.19  0.  0.
   521  5.20  0.  0.
   522  5.21  0.  0.
   523  5.22  0.  0.
   524  5.23  0.  0.
   525  5.24  0.  0.
   526  5.25  0.  0.
   527  5.26  0.  0.
   528  5.27  0.  0.
   529  5.28  0.  0.
   530  5.29  0.  0.
   531  5.30  0.  0.
   532  5.31  0.  0.
   533  5.32  0.  0.
   534  5.33  0.  0.
   535  5.34  0.  0.
   536  5.35  0.  0.
   537  5.36  0.  0.
   538  5.37  0.  0.
   539  5.38  0.  0.
   540  5.39  0.  0.
   541  5.40  0.  0.
   542  5.41  0.  0.
   543  5.42  0.  0.
   544  5.43  0.  0.
   545  5.44  0.  0.
   546  5.45  0.  0.
   547  5.46  0.  0.
   548  5.47  0.  0.
   549  5.48  0.  0.
   550  5.49  0.  0.
   551  5.50  0.  0.
   552  5.51  0.  0.
   553  5.52  0.  0.
   554  5.53  0.  0.
   555  5.54  0.  0.
   556  5.55  0.  0.
   557  5.56  0.  0.
   558  5.57  0.  0.
   559  5.58  0.  0.
   560  5.59  0.  0.
   561  5.60  0.  0.
   562  5.61  0.  0.
   563  5.62  0.  0.
   564  5.63  0.  0.
   565  5.64  0.  0.
   566  5.65  0.  0.
   567  5.66  0.  0.
   568  5.67  0.  0.
   569  5.68  0.  0.
   570  5.69  0.  0.
   571  5.70  0.  0.
   572  5.71  0.  0.
   573  5.72  0.  0.
   574  5.73  0.  0.
   575  5.74  0.  0.
   576  5.75  0.  0.
   577  5.76  0.  0.
   578  5.77  0.  0.
   579  5.78  0.  0.
   580  5.79  0.  0.
   581  5.80  0.  0.
   582  5.81  0.  0.
   583  5.82  0.  0.
   584  5.83  0.  0.
   585  5.84  0.  0.
   586  5.85  0.  0.
   587  5.86  0.  0.
   588  5.87  0.  0.
   589  5.88  0.  0.
   590  5.89  0.  0.
   591  5.90  0.  0.
   592  5.91  0.  0.
   593  5.92  0.  0.
   594  5.93  0.  0.
   595  5.94  0.  0.
   596  5.95  0.  0.
   597  5.96  0.  0.
   598  5.97  0.  0.
   599  5.98  0.  0.
   600  5.99  0.  0.
   1                         5.4975649644044E+00  8.7689830213951E-01  9.6265811000053E-03
     1  0.0000000000000E+00  2.7789947107393E-08 -5.8237761627056E-08  4.9013897308881E-08
     2  1.0000000000000E-02  1.7015423636326E-03 -2.1611823311886E-03  7.1118580953912E-04
     3  2.0000000000000E-02  6.7754820914830E-03 -8.5834928205179E-03  2.7972317964547E-03
     4  3.0000000000000E-02  1.5130482932875E-02 -1.9084732213615E-02  6.1168674637155E-03
     5  4.0000000000000E-02  2.6616720413231E-02 -3.3366233931475E-02  1.0438825016802E-02
     6  5.0000000000000E-02  4.1029427148078E-02 -5.1020239415526E-02  1.5448010543188E-02
     7  6.0000000000000E-02  5.8113740440523E-02 -7.1539980631056E-02  2.0753939320364E-02
     8  7.0000000000000E-02  7.7570739461683E-02 -9.4332233369964E-02  2.5901236456033E-02
     9  8.0000000000000E-02  9.9064531523640E-02 -1.1873204675604E-01  3.0381955050205E-02
    10  9.0000000000000E-02  1.2223022233771E-01 -1.4401930280389E-01  3.3649420659149E-02
    11  1.0000000000000E-01  1.4668258426664E-01 -1.6943671619377E-01  3.5133274019458E-02
    12  1.1000000000000E-01  1.7202521990462E-01 -1.9420884960198E-01  3.4255354604336E-02
    13  1.2000000000000E-01  1.9786000623766E-01 -2.1756169477651E-01  3.0446046306130E-02
    14  1.3000000000000E-01  2.2379659743081E-01 -2.3874235466158E-01  2.3160693873996E-02
    15  1.4000000000000E-01  2.4946176213200E-01 -2.5703835761534E-01  1.1895694985524E-02
    16  1.5000000000000E-01  2.7450833413691E-01 -2.7179614125867E-01 -3.7961218874502E-03
    17  1.6000000000000E-01  2.9862356327342E-01 -2.8243826062522E-01 -2.4291209441823E-02
    18  1.7000000000000E-01  3.2153666627297E-01 -2.8847890270184E-01 -4.9882456090566E-02
    19  1.8000000000000E-01  3.4302539492559E-01 -2.8953732656983E-01 -8.0768104817444E-02
    20  1.9000000000000E-01  3.6292146058806E-01 -2.8534889438092E-01 -1.1704271952965E-01
    21  2.0000000000000E-01  3.8111467965635E-01 -2.7577341232155E-01 -1.5869043690063E-01
    22  2.1000000000000E-01  3.9755573336580E-01 -2.6080056135317E-01 -2.0558069081902E-01
    23  2.2000000000000E-01  4.1225746661314E-01 -2.4055226352541E-01 -2.5746654111872E-01
    24  2.3000000000000E-01  4.2529468371041E-01 -2.1528189957977E-01 -3.1398567948536E-01
    25  2.4000000000000E-01  4.3680243334620E-01 -1.8537036583705E-01 -3.7466412461191E-01
    26  2.5000000000000E-01  4.4697280977794E-01 -1.5131903137458E-01 -4.3892255716984E-01
    27  2.6000000000000E-01  4.5605033163328E-01 -1.1373972860918E-01 -5.0608518433887E-01
    28  2.7000000000000E-01  4.6432599288590E-01 -7.3341979979570E-02 -5.7539096486998E-01
    29  2.8000000000000E-01  4.7213011184175E-01 -3.0917728886699E-02 -6.4600697026519E-01
    30  2.9000000000000E-01  4.7982413261350E-01  1.2676097094979E-02 -7.1704360690523E-01
    31  3.0000000000000E-01  4.8779155891747E-01  5.6536809859237E-02 -7.8757137900487E-01
    32  3.1000000000000E-01  4.9642822151029E-01  9.9736545748942E-02 -8.5663883416701E-01
    33  3.2000000000000E-01  5.0613209768713E-01  1.4134375100688E-01 -9.2329130293746E-01
    34  3.3000000000000E-01  5.1729291357800E-01  1.8044508161314E-01 -9.8659002186181E-01
    35  3.4000000000000E-01  5.3028176719591E-01  2.1616721699077E-01 -1.0456312166638E+00
    36  3.5000000000000E-01  5.4544101211367E-01  2.4769808380875E-01 -1.0995647186521E+00
    37  3.6000000000000E-01  5.6307463819329E-01  2.7430699419953E-01 -1.1476116934691E+00
    38  3.7000000000000E-01  5.8343937700131E-01  2.9536322204436E-01 -1.1890810767582E+00
    39  3.8000000000000E-01  6.0673674556909E-01  3.1035257122192E-01 -1.2233843359778E+00
    40  3.9000000000000E-01  6.3310622327033E-01  3.1889153027824E-01 -1.2500482109604E+00
    41  4.0000000000000E-01  6.6261973316928E-01  3.2073865804060E-01 -1.2687251272225E+00
    42  4.1000000000000E-01  6.9527757172569E-01  3.1580290322979E-01 -1.2792010246463E+00
    43  4.2000000000000E-01  7.3100589980141E-01  3.0414862689606E-01 -1.2814003989426E+00
    44  4.3000000000000E-01  7.6965587415673E-01  2.8599716811420E-01 -1.2753884131201E+00
    45  4.4000000000000E-01  8.1100446277306E-01  2.6172486928600E-01 -1.2613699997488E+00
    46  4.5000000000000E-01  8.5475695016858E-01  2.3185755596736E-01 -1.2396859407489E+00
    47  4.6000000000000E-01  9.0055110119397E-01  1.9706154564671E-01 -1.2108059783221E+00
    48  4.7000000000000E-01  9.4796291443229E-01  1.5813133859867E-01 -1.1753190770191E+00
    49  4.8000000000000E-01  9.9651386010872E-01  1.1597422007422E-01 -1.1339210213248E+00
    50  4.9000000000000E-01  1.0456794631481E+00  7.1592074958761E-02 -1.0873995941281E+00
    51  5.0000000000000E-01  1.0948990604742E+00  2.6060782004370E-02 -1.0366176376341E+00
    52  5.1000000000000E-01  1.1435865335429E+00 -1.9492386689307E-02 -9.8249434841609E-01
    53  5.2000000000000E-01  1.1911417930898E+00 -6.3912885474946E-02 -9.2598520122670E-01
    54  5.3000000000000E-01  1.2369627737164E+00 -1.0604401892529E-01 -8.6806093087995E-01
    55  5.4000000000000E-01  1.2804576817127E+00 -1.4475252534448E-01 -8.0968602715537E-01
    56  5.5000000000000E-01  1.3210572307626E+00 -1.7895405856414E-01 -7.5179721359554E-01
    57  5.6000000000000E-01  1.3582265971689E+00 -2.0763800150533E-01 -6.9528238684232E-01
    58  5.7000000000000E-01  1.3914768290644E+00 -2.2989105233837E-01 -6.4096048854700E-01
    59  5.8000000000000E-01  1.4203754527611E+00 -2.4491904380278E-01 -5.8956276690041E-01
    60  5.9000000000000E-01  1.4445560337814E+00 -2.5206648805660E-01 -5.4171585967837E-01
    61  6.0000000000000E-01  1.4637264699702E+00 -2.5083338274062E-01 -4.9792709583253E-01
    62  6.1000000000000E-01  1.4776758190164E+00 -2.4088886794484E-01 -4.5857236873505E-01
    63  6.2000000000000E-01  1.4862794922323E+00 -2.2208138738746E-01 -4.2388688206696E-01
    64  6.3000000000000E-01  1.4895026799488E+00 -1.9444507907842E-01 -3.9395901007500E-01
    65  6.4000000000000E-01  1.4874019107005E+00 -1.5820219956315E-01 -3.6872744871363E-01
    66  6.5000000000000E-01  1.4801246857294E+00 -1.1376146988672E-01 -3.4798176439622E-01
    67  6.6000000000000E-01  1.4679071713999E+00 -6.1712318918455E-02 -3.3136637415397E-01
    68  6.7000000000000E-01  1.4510699740285E+00 -2.8150887680837E-03 -3.1838791649528E-01
    69  6.8000000000000E-01  1.4300120634770E+00  6.2012644208244E-02 -3.0842589775638E-01
    70  6.9000000000000E-01  1.4052029527479E+00  1.3171339278777E-01 -3.0074642584487E-01
    71  7.0000000000000E-01  1.3771732798470E+00  2.0511040424960E-01 -2.9451877359271E-01
    72  7.1000000000000E-01  1.3465039744983E+00  2.8093122892062E-01 -2.8883444897701E-01
    73  7.2000000000000E-01  1.3138142250769E+00  3.5783374436978E-01 -2.8272839069938E-01
    74  7.3000000000000E-01  1.2797484896458E+00  4.3443410824688E-01 -2.7520185634608E-01
    75  7.4000000000000E-01  1.2449628185731E+00  5.0933606392902E-01 -2.6524652777907E-01
    76  7.5000000000000E-01  1.2101107743045E+00  5.8116098610844E-01 -2.5186932552868E-01
    77  7.6000000000000E-01  1.1758292460459E+00  6.4857802915628E-01 -2.3411740157993E-01
    78  7.7000000000000E-01  1.1427244630239E+00  7.1033373019576E-01 -2.1110276866339E-01
    79  7.8000000000000E-01  1.1113585094709E+00  7.6528042169351E-01 -1.8202602433320E-01
    80  7.9000000000000E-01  1.0822366374525E+00  8.1240282512160E-01 -1.4619863985904E-01
    81  8.0000000000000E-01  1.0557956602135E+00  8.5084222765331E-01 -1.0306330715380E-01
    82  8.1000000000000E-01  1.0323936890782E+00  8.7991768742926E-01 -5.2211871227076E-02
    83  8.2000000000000E-01  1.0123014514635E+00  8.9914376888561E-01  6.5995796085326E-03
    84  8.3000000000000E-01  9.9569539672425E-01  9.0824437691340E-01  7.3438839186832E-02
    85  8.4000000000000E-01  9.8265276096319E-01  9.0716233590817E-01  1.4818923506251E-01
    86  8.5000000000000E-01  9.7314872230123E-01  8.9606444553657E-01  2.3054504640290E-01
    87  8.6000000000000E-01  9.6705573522686E-01  8.7534183755870E-01  3.2001085219350E-01