Br    ONCVPSP-4.0.1  r_core=   1.80857   1.50245   1.90861
     35.0000      7.0000      250925    zatom,zion,pspd
     8   -1012   2     4   600     0    pspcod,pspxc,lmax,lloc,mmax,r2well
  5.99000000  8.00000000  0.00000000    rchrg fchrg qchrg
     2     3     2     0    nproj
     3     1           extension_switch
     3     3     0    nprojso
   0                         8.0373693066913E+00  7.8016353637772E-01
     1  0.0000000000000E+00 -8.7700885442743E-10  2.7566522675659E-09
     2  1.0000000000000E-02  3.7232869815415E-02 -1.8573144589745E-02
     3  2.0000000000000E-02  7.4413616736822E-02 -3.7032501988409E-02
     4  3.0000000000000E-02  1.1149075564595E-01 -5.5266240499926E-02
     5  4.0000000000000E-02  1.4841406451120E-01 -7.3166400842487E-02
     6  5.0000000000000E-02  1.8513518499838E-01 -9.0630736637423E-02
     7  6.0000000000000E-02  2.2160818660003E-01 -1.0756444204270E-01
     8  7.0000000000000E-02  2.5779008317425E-01 -1.2388173221788E-01
     9  8.0000000000000E-02  2.9364129166047E-01 -1.3950724506407E-01
    10  9.0000000000000E-02  3.2912602380667E-01 -1.5437723603383E-01
    11  1.0000000000000E-01  3.6421260298020E-01 -1.6844054169193E-01
    12  1.1000000000000E-01  3.9887369952103E-01 -1.8165929205834E-01
    13  1.2000000000000E-01  4.3308647960730E-01 -1.9400935650118E-01
    14  1.3000000000000E-01  4.6683266421182E-01 -2.0548051298380E-01
    15  1.4000000000000E-01  5.0009849640563E-01 -2.1607633571577E-01
    16  1.5000000000000E-01  5.3287461698155E-01 -2.2581380161684E-01
    17  1.6000000000000E-01  5.6515585009566E-01 -2.3472262137841E-01
    18  1.7000000000000E-01  5.9694090232726E-01 -2.4284430620085E-01
    19  1.8000000000000E-01  6.2823198020754E-01 -2.5023098639963E-01
    20  1.9000000000000E-01  6.5903433283388E-01 -2.5694400291537E-01
    21  2.0000000000000E-01  6.8935572764247E-01 -2.6305229724234E-01
    22  2.1000000000000E-01  7.1920586872993E-01 -2.6863062932346E-01
    23  2.2000000000000E-01  7.4859576827086E-01 -2.7375765647228E-01
    24  2.3000000000000E-01  7.7753708255105E-01 -2.7851390930604E-01
    25  2.4000000000000E-01  8.0604142490777E-01 -2.8297970295312E-01
    26  2.5000000000000E-01  8.3411966842337E-01 -2.8723302338755E-01
    27  2.6000000000000E-01  8.6178125154618E-01 -2.9134742960924E-01
    28  2.7000000000000E-01  8.8903349990580E-01 -2.9539001251169E-01
    29  2.8000000000000E-01  9.1588097744536E-01 -2.9941945065149E-01
    30  2.9000000000000E-01  9.4232487961225E-01 -3.0348420176211E-01
    31  3.0000000000000E-01  9.6836248073668E-01 -3.0762086675867E-01
    32  3.1000000000000E-01  9.9398664689338E-01 -3.1185276019218E-01
    33  3.2000000000000E-01  1.0191854244990E+00 -3.1618871767717E-01
    34  3.3000000000000E-01  1.0439417136638E+00 -3.2062216679253E-01
    35  3.4000000000000E-01  1.0682330339102E+00 -3.2513048340980E-01
    36  3.5000000000000E-01  1.0920313883192E+00 -3.2967465041311E-01
    37  3.6000000000000E-01  1.1153032304904E+00 -3.3419923042822E-01
    38  3.7000000000000E-01  1.1380095369356E+00 -3.3863265856579E-01
    39  3.8000000000000E-01  1.1601059856958E+00 -3.4288785540642E-01
    40  3.9000000000000E-01  1.1815432401140E+00 -3.4686315461355E-01
    41  4.0000000000000E-01  1.2022673348350E+00 -3.5044353375864E-01
    42  4.1000000000000E-01  1.2222201592841E+00 -3.5350213128732E-01
    43  4.2000000000000E-01  1.2413400321149E+00 -3.5590202714510E-01
    44  4.3000000000000E-01  1.2595623584602E+00 -3.5749825951847E-01
    45  4.4000000000000E-01  1.2768203602875E+00 -3.5814004552371E-01
    46  4.5000000000000E-01  1.2930458687805E+00 -3.5767316957837E-01
    47  4.6000000000000E-01  1.3081701664773E+00 -3.5594249969796E-01
    48  4.7000000000000E-01  1.3221248658942E+00 -3.5279458913988E-01
    49  4.8000000000000E-01  1.3348428105984E+00 -3.4808031872543E-01
    50  4.9000000000000E-01  1.3462589841514E+00 -3.4165753385291E-01
    51  5.0000000000000E-01  1.3563114120597E+00 -3.3339362970171E-01
    52  5.1000000000000E-01  1.3649420418322E+00 -3.2316803843504E-01
    53  5.2000000000000E-01  1.3720975864707E+00 -3.1087457334222E-01
    54  5.3000000000000E-01  1.3777303171950E+00 -2.9642358680633E-01
    55  5.4000000000000E-01  1.3817987919334E+00 -2.7974390171507E-01
    56  5.5000000000000E-01  1.3842685070748E+00 -2.6078447941089E-01
    57  5.6000000000000E-01  1.3851124611670E+00 -2.3951579144685E-01
    58  5.7000000000000E-01  1.3843116206403E+00 -2.1593086721186E-01
    59  5.8000000000000E-01  1.3818552792104E+00 -1.9004599483309E-01
    60  5.9000000000000E-01  1.3777413043461E+00 -1.6190105856768E-01
    61  6.0000000000000E-01  1.3719762660463E+00 -1.3155950206239E-01
    62  6.1000000000000E-01  1.3645754451254E+00 -9.9107913282255E-02
    63  6.2000000000000E-01  1.3555627202236E+00 -6.4655233480602E-02
    64  6.3000000000000E-01  1.3449703348059E+00 -2.8331599185133E-02
    65  6.4000000000000E-01  1.3328385474510E+00  9.7131673042472E-03
    66  6.5000000000000E-01  1.3192151707314E+00  4.9311397088429E-02
    67  6.6000000000000E-01  1.3041550059031E+00  9.0279715684859E-02
    68  6.7000000000000E-01  1.2877191824363E+00  1.3242145246734E-01
    69  6.8000000000000E-01  1.2699744130820E+00  1.7552928004433E-01
    70  6.9000000000000E-01  1.2509921766651E+00  2.1938804063981E-01
    71  7.0000000000000E-01  1.2308478420860E+00  2.6377771279414E-01
    72  7.1000000000000E-01  1.2096197480844E+00  3.0847646872991E-01
    73  7.2000000000000E-01  1.1873882541402E+00  3.5326377059325E-01
    74  7.3000000000000E-01  1.1642347784540E+00  3.9792345252845E-01
    75  7.4000000000000E-01  1.1402408392396E+00  4.4224673520691E-01
    76  7.5000000000000E-01  1.1154871155725E+00  4.8603512002527E-01
    77  7.6000000000000E-01  1.0900525437685E+00  5.2910311171223E-01
    78  7.7000000000000E-01  1.0640134647184E+00  5.7128072052517E-01
    79  7.8000000000000E-01  1.0374428367803E+00  6.1241569853937E-01
    80  7.9000000000000E-01  1.0104095277486E+00  6.5237546869245E-01
    81  8.0000000000000E-01  9.8297769809553E-01  6.9104871017700E-01
    82  8.1000000000000E-01  9.5520628612838E-01  7.2834656939983E-01
    83  8.2000000000000E-01  9.2714860396194E-01  7.6420347195841E-01
    84  8.3000000000000E-01  8.9885205128922E-01  7.9857751781939E-01
    85  8.4000000000000E-01  8.7035795188125E-01  8.3145044901198E-01
    86  8.5000000000000E-01  8.4170151559179E-01  8.6282718655023E-01
    87  8.6000000000000E-01  8.1291192642148E-01  8.9273494084620E-01
    88  8.7000000000000E-01  7.8401255494644E-01  9.2122190744410E-01
    89  8.8000000000000E-01  7.5502129117805E-01  9.4835556735949E-01
    90  8.9000000000000E-01  7.2595099173103E-01  9.7422061851938E-01
    91  9.0000000000000E-01  6.9681003307622E-01  9.9891657163934E-01
    92  9.1000000000000E-01  6.6760296067855E-01  1.0225550502202E+00
    93  9.2000000000000E-01  6.3833122200536E-01  1.0452568400830E+00
    94  9.3000000000000E-01  6.0899396976895E-01  1.0671487388822E+00
    95  9.4000000000000E-01  5.7958892036900E-01  1.0883602602448E+00
    96  9.5000000000000E-01  5.5011325135229E-01  1.1090202504965E+00
    97  9.6000000000000E-01  5.2056452083095E-01  1.1292534782927E+00
    98  9.7000000000000E-01  4.9094159121381E-01  1.1491772588022E+00
    99  9.8000000000000E-01  4.6124553932207E-01  1.1688981743876E+00
   100  9.9000000000000E-01  4.3148053498673E-01  1.1885089529394E+00
   101  1.0000000000000E+00  4.0165467056539E-01  1.2080855631792E+00
   102  1.0100000000000E+00  3.7178072446576E-01  1.2276845833464E+00
   103  1.0200000000000E+00  3.4187684271608E-01  1.2473408957776E+00
   104  1.0300000000000E+00  3.1196712386210E-01  1.2670657550231E+00
   105  1.0400000000000E+00  2.8208209398307E-01  1.2868452713888E+00
   106  1.0500000000000E+00  2.5225906037610E-01  1.3066393452453E+00
   107  1.0600000000000E+00  2.2254233443508E-01  1.3263810801991E+00
   108  1.0700000000000E+00  1.9298331641711E-01  1.3459766953858E+00
   109  1.0800000000000E+00  1.6364043710346E-01  1.3653059488686E+00
   110  1.0900000000000E+00  1.3457895379623E-01  1.3842230755145E+00
   111  1.1000000000000E+00  1.0587060059549E-01  1.4025582339359E+00
   112  1.1100000000000E+00  7.7593095437974E-02  1.4201194482777E+00
   113  1.1200000000000E+00  4.9829508907143E-02  1.4366950219184E+00
   114  1.1300000000000E+00  2.2667502291432E-02  1.4520563917386E+00
   115  1.1400000000000E+00 -3.8015552516963E-03  1.4659613835667E+00
   116  1.1500000000000E+00 -2.9483578337583E-02  1.4781578219643E+00
   117  1.1600000000000E+00 -5.4282851647892E-02  1.4883874407030E+00
   118  1.1700000000000E+00 -7.8103194880877E-02  1.4963900343211E+00
   119  1.1800000000000E+00 -1.0084918876080E-01  1.5019077860661E+00
   120  1.1900000000000E+00 -1.2242744318842E-01  1.5046897034800E+00
   121  1.2000000000000E+00 -1.4274788759288E-01  1.5044960899113E+00
   122  1.2100000000000E+00 -1.6172506284487E-01  1.5011029784225E+00
   123  1.2200000000000E+00 -1.7927939372798E-01  1.4943064539367E+00
   124  1.2300000000000E+00 -1.9533842094615E-01  1.4839267900658E+00
   125  1.2400000000000E+00 -2.0983797197546E-01  1.4698123288736E+00
   126  1.2500000000000E+00 -2.2272325074369E-01  1.4518430348465E+00
   127  1.2600000000000E+00 -2.3394982713901E-01  1.4299336585426E+00
   128  1.2700000000000E+00 -2.4348450868166E-01  1.4040364506636E+00
   129  1.2800000000000E+00 -2.5130607833963E-01  1.3741433736393E+00
   130  1.2900000000000E+00 -2.5740588439282E-01  1.3402877650859E+00
   131  1.3000000000000E+00 -2.6178827041526E-01  1.3025454155704E+00
   132  1.3100000000000E+00 -2.6447083583988E-01  1.2610350319340E+00
   133  1.3200000000000E+00 -2.6548452013471E-01  1.2159180667900E+00
   134  1.3300000000000E+00 -2.6487350632079E-01  1.1673979045832E+00
   135  1.3400000000000E+00 -2.6269494235455E-01  1.1157184046280E+00
   136  1.3500000000000E+00 -2.5901848174925E-01  1.0611618117093E+00
   137  1.3600000000000E+00 -2.5392564764862E-01  1.0040460548808E+00
   138  1.3700000000000E+00 -2.4750902736383E-01  9.4472146492974E-01
   139  1.3800000000000E+00 -2.3987130709260E-01  8.8356695042723E-01
   140  1.3900000000000E+00 -2.3112415911170E-01  8.2098568118428E-01
   141  1.4000000000000E+00 -2.2138699611765E-01  7.5740033610765E-01
   142  1.4100000000000E+00 -2.1078560956423E-01  6.9324797981830E-01
   143  1.4200000000000E+00 -1.9945071074835E-01  6.2897463875610E-01
   144  1.4300000000000E+00 -1.8751639502807E-01  5.6502965284191E-01
   145  1.4400000000000E+00 -1.7511855085149E-01  5.0185988288442E-01
   146  1.4500000000000E+00 -1.6239323624134E-01  4.3990385682968E-01
   147  1.4600000000000E+00 -1.4947504598399E-01  3.7958593955240E-01
   148  1.4700000000000E+00 -1.3649549300703E-01  3.2131061115732E-01
   149  1.4800000000000E+00 -1.2358142724070E-01  2.6545693733935E-01
   150  1.4900000000000E+00 -1.1085351482465E-01  2.1237331358358E-01
   151  1.5000000000000E+00 -9.8424801981668E-02  1.6237257687720E-01
   152  1.5100000000000E+00 -8.6399381528253E-02  1.1572754049972E-01
   153  1.5200000000000E+00 -7.4871475046573E-02  7.2669028266709E-02
   154  1.5300000000000E+00 -6.3924865548467E-02  3.3385699254539E-02
   155  1.5400000000000E+00 -5.3632189979972E-02 -1.9777685205401E-03
   156  1.5500000000000E+00 -4.4054302719636E-02 -3.3322539706316E-02
   157  1.5600000000000E+00 -3.5239819373440E-02 -6.0596779522951E-02
   158  1.5700000000000E+00 -2.7224840908415E-02 -8.3796135520551E-02
   159  1.5800000000000E+00 -2.0032863111703E-02 -1.0296352524073E-01
   160  1.5900000000000E+00 -1.3674872315640E-02 -1.1818823066772E-01
   161  1.6000000000000E+00 -8.1496254272539E-03 -1.2960431073310E-01
   162  1.6100000000000E+00 -3.4441093651768E-03 -1.3738835381600E-01
   163  1.6200000000000E+00  4.6582785567970E-04 -1.4175660255446E-01
   164  1.6300000000000E+00  3.6146848943050E-03 -1.4296149318625E-01
   165  1.6400000000000E+00  6.0463667900434E-03 -1.4128766090997E-01
   166  1.6500000000000E+00  7.8131120588552E-03 -1.3704747125014E-01
   167  1.6600000000000E+00  8.9743047595849E-03 -1.3057614498482E-01
   168  1.6700000000000E+00  9.5951909563816E-03 -1.2222655072797E-01
   169  1.6800000000000E+00  9.7455205386193E-03 -1.1236374464540E-01
   170  1.6900000000000E+00  9.4981414631831E-03 -1.0135935638813E-01
   171  1.7000000000000E+00  8.9275182279321E-03 -8.9585746557415E-02
   172  1.7100000000000E+00  8.1084240868060E-03 -7.7410733976118E-02
   173  1.7200000000000E+00  7.1137717548542E-03 -6.5189656460958E-02
   174  1.7300000000000E+00  6.0071799559478E-03 -5.3240838162632E-02
   175  1.7400000000000E+00  4.8531943816585E-03 -4.1876769335814E-02
   176  1.7500000000000E+00  3.7178062616155E-03 -3.1404910817973E-02
   177  1.7600000000000E+00  2.6596821400188E-03 -2.2099277049864E-02
   178  1.7700000000000E+00  1.7299640136190E-03 -1.4199051788185E-02
   179  1.7800000000000E+00  9.7148047221579E-04 -7.9068169701342E-03
   180  1.7900000000000E+00  4.1526198677054E-04 -3.3636261026143E-03
   181  1.8000000000000E+00  9.2416515093972E-05 -7.4773907890014E-04
   182  1.8100000000000E+00 -4.3171603195176E-06  3.4546855244555E-05
   183  1.8200000000000E+00  4.6115323395530E-07 -3.7141313353461E-06
   184  1.83  0.  0.
   185  1.84  0.  0.
   186  1.85  0.  0.
   187  1.86  0.  0.
   188  1.87  0.  0.
   189  1.88  0.  0.
   190  1.89  0.  0.
   191  1.90  0.  0.
   192  1.91  0.  0.
   193  1.92  0.  0.
   194  1.93  0.  0.
   195  1.94  0.  0.
   196  1.95  0.  0.
   197  1.96  0.  0.
   198  1.97  0.  0.
   199  1.98  0.  0.
   200  1.99  0.  0.
   201  2.00  0.  0.
   202  2.01  0.  0.
   203  2.02  0.  0.
   204  2.03  0.  0.
   205  2.04  0.  0.
   206  2.05  0.  0.
   207  2.06  0.  0.
   208  2.07  0.  0.
   209  2.08  0.  0.
   210  2.09  0.  0.
   211  2.10  0.  0.
   212  2.11  0.  0.
   213  2.12  0.  0.
   214  2.13  0.  0.
   215  2.14  0.  0.
   216  2.15  0.  0.
   217  2.16  0.  0.
   218  2.17  0.  0.
   219  2.18  0.  0.
   220  2.19  0.  0.
   221  2.20  0.  0.
   222  2.21  0.  0.
   223  2.22  0.  0.
   224  2.23  0.  0.
   225  2.24  0.  0.
   226  2.25  0.  0.
   227  2.26  0.  0.
   228  2.27  0.  0.
   229  2.28  0.  0.
   230  2.29  0.  0.
   231  2.30  0.  0.
   232  2.31  0.  0.
   233  2.32  0.  0.
   234  2.33  0.  0.
   235  2.34  0.  0.
   236  2.35  0.  0.
   237  2.36  0.  0.
   238  2.37  0.  0.
   239  2.38  0.  0.
   240  2.39  0.  0.
   241  2.40  0.  0.
   242  2.41  0.  0.
   243  2.42  0.  0.
   244  2.43  0.  0.
   245  2.44  0.  0.
   246  2.45  0.  0.
   247  2.46  0.  0.
   248  2.47  0.  0.
   249  2.48  0.  0.
   250  2.49  0.  0.
   251  2.50  0.  0.
   252  2.51  0.  0.
   253  2.52  0.  0.
   254  2.53  0.  0.
   255  2.54  0.  0.
   256  2.55  0.  0.
   257  2.56  0.  0.
   258  2.57  0.  0.
   259  2.58  0.  0.
   260  2.59  0.  0.
   261  2.60  0.  0.
   262  2.61  0.  0.
   263  2.62  0.  0.
   264  2.63  0.  0.
   265  2.64  0.  0.
   266  2.65  0.  0.
   267  2.66  0.  0.
   268  2.67  0.  0.
   269  2.68  0.  0.
   270  2.69  0.  0.
   271  2.70  0.  0.
   272  2.71  0.  0.
   273  2.72  0.  0.
   274  2.73  0.  0.
   275  2.74  0.  0.
   276  2.75  0.  0.
   277  2.76  0.  0.
   278  2.77  0.  0.
   279  2.78  0.  0.
   280  2.79  0.  0.
   281  2.80  0.  0.
   282  2.81  0.  0.
   283  2.82  0.  0.
   284  2.83  0.  0.
   285  2.84  0.  0.
   286  2.85  0.  0.
   287  2.86  0.  0.
   288  2.87  0.  0.
   289  2.88  0.  0.
   290  2.89  0.  0.
   291  2.90  0.  0.
   292  2.91  0.  0.
   293  2.92  0.  0.
   294  2.93  0.  0.
   295  2.94  0.  0.
   296  2.95  0.  0.
   297  2.96  0.  0.
   298  2.97  0.  0.
   299  2.98  0.  0.
   300  2.99  0.  0.
   301  3.00  0.  0.
   302  3.01  0.  0.
   303  3.02  0.  0.
   304  3.03  0.  0.
   305  3.04  0.  0.
   306  3.05  0.  0.
   307  3.06  0.  0.
   308  3.07  0.  0.
   309  3.08  0.  0.
   310  3.09  0.  0.
   311  3.10  0.  0.
   312  3.11  0.  0.
   313  3.12  0.  0.
   314  3.13  0.  0.
   315  3.14  0.  0.
   316  3.15  0.  0.
   317  3.16  0.  0.
   318  3.17  0.  0.
   319  3.18  0.  0.
   320  3.19  0.  0.
   321  3.20  0.  0.
   322  3.21  0.  0.
   323  3.22  0.  0.
   324  3.23  0.  0.
   325  3.24  0.  0.
   326  3.25  0.  0.
   327  3.26  0.  0.
   328  3.27  0.  0.
   329  3.28  0.  0.
   330  3.29  0.  0.
   331  3.30  0.  0.
   332  3.31  0.  0.
   333  3.32  0.  0.
   334  3.33  0.  0.
   335  3.34  0.  0.
   336  3.35  0.  0.
   337  3.36  0.  0.
   338  3.37  0.  0.
   339  3.38  0.  0.
   340  3.39  0.  0.
   341  3.40  0.  0.
   342  3.41  0.  0.
   343  3.42  0.  0.
   344  3.43  0.  0.
   345  3.44  0.  0.
   346  3.45  0.  0.
   347  3.46  0.  0.
   348  3.47  0.  0.
   349  3.48  0.  0.
   350  3.49  0.  0.
   351  3.50  0.  0.
   352  3.51  0.  0.
   353  3.52  0.  0.
   354  3.53  0.  0.
   355  3.54  0.  0.
   356  3.55  0.  0.
   357  3.56  0.  0.
   358  3.57  0.  0.
   359  3.58  0.  0.
   360  3.59  0.  0.
   361  3.60  0.  0.
   362  3.61  0.  0.
   363  3.62  0.  0.
   364  3.63  0.  0.
   365  3.64  0.  0.
   366  3.65  0.  0.
   367  3.66  0.  0.
   368  3.67  0.  0.
   369  3.68  0.  0.
   370  3.69  0.  0.
   371  3.70  0.  0.
   372  3.71  0.  0.
   373  3.72  0.  0.
   374  3.73  0.  0.
   375  3.74  0.  0.
   376  3.75  0.  0.
   377  3.76  0.  0.
   378  3.77  0.  0.
   379  3.78  0.  0.
   380  3.79  0.  0.
   381  3.80  0.  0.
   382  3.81  0.  0.
   383  3.82  0.  0.
   384  3.83  0.  0.
   385  3.84  0.  0.
   386  3.85  0.  0.
   387  3.86  0.  0.
   388  3.87  0.  0.
   389  3.88  0.  0.
   390  3.89  0.  0.
   391  3.90  0.  0.
   392  3.91  0.  0.
   393  3.92  0.  0.
   394  3.93  0.  0.
   395  3.94  0.  0.
   396  3.95  0.  0.
   397  3.96  0.  0.
   398  3.97  0.  0.
   399  3.98  0.  0.
   400  3.99  0.  0.
   401  4.00  0.  0.
   402  4.01  0.  0.
   403  4.02  0.  0.
   404  4.03  0.  0.
   405  4.04  0.  0.
   406  4.05  0.  0.
   407  4.06  0.  0.
   408  4.07  0.  0.
   409  4.08  0.  0.
   410  4.09  0.  0.
   411  4.10  0.  0.
   412  4.11  0.  0.
   413  4.12  0.  0.
   414  4.13  0.  0.
   415  4.14  0.  0.
   416  4.15  0.  0.
   417  4.16  0.  0.
   418  4.17  0.  0.
   419  4.18  0.  0.
   420  4.19  0.  0.
   421  4.20  0.  0.
   422  4.21  0.  0.
   423  4.22  0.  0.
   424  4.23  0.  0.
   425  4.24  0.  0.
   426  4.25  0.  0.
   427  4.26  0.  0.
   428  4.27  0.  0.
   429  4.28  0.  0.
   430  4.29  0.  0.
   431  4.30  0.  0.
   432  4.31  0.  0.
   433  4.32  0.  0.
   434  4.33  0.  0.
   435  4.34  0.  0.
   436  4.35  0.  0.
   437  4.36  0.  0.
   438  4.37  0.  0.
   439  4.38  0.  0.
   440  4.39  0.  0.
   441  4.40  0.  0.
   442  4.41  0.  0.
   443  4.42  0.  0.
   444  4.43  0.  0.
   445  4.44  0.  0.
   446  4.45  0.  0.
   447  4.46  0.  0.
   448  4.47  0.  0.
   449  4.48  0.  0.
   450  4.49  0.  0.
   451  4.50  0.  0.
   452  4.51  0.  0.
   453  4.52  0.  0.
   454  4.53  0.  0.
   455  4.54  0.  0.
   456  4.55  0.  0.
   457  4.56  0.  0.
   458  4.57  0.  0.
   459  4.58  0.  0.
   460  4.59  0.  0.
   461  4.60  0.  0.
   462  4.61  0.  0.
   463  4.62  0.  0.
   464  4.63  0.  0.
   465  4.64  0.  0.
   466  4.65  0.  0.
   467  4.66  0.  0.
   468  4.67  0.  0.
   469  4.68  0.  0.
   470  4.69  0.  0.
   471  4.70  0.  0.
   472  4.71  0.  0.
   473  4.72  0.  0.
   474  4.73  0.  0.
   475  4.74  0.  0.
   476  4.75  0.  0.
   477  4.76  0.  0.
   478  4.77  0.  0.
   479  4.78  0.  0.
   480  4.79  0.  0.
   481  4.80  0.  0.
   482  4.81  0.  0.
   483  4.82  0.  0.
   484  4.83  0.  0.
   485  4.84  0.  0.
   486  4.85  0.  0.
   487  4.86  0.  0.
   488  4.87  0.  0.
   489  4.88  0.  0.
   490  4.89  0.  0.
   491  4.90  0.  0.
   492  4.91  0.  0.
   493  4.92  0.  0.
   494  4.93  0.  0.
   495  4.94  0.  0.
   496  4.95  0.  0.
   497  4.96  0.  0.
   498  4.97  0.  0.
   499  4.98  0.  0.
   500  4.99  0.  0.
   501  5.00  0.  0.
   502  5.01  0.  0.
   503  5.02  0.  0.
   504  5.03  0.  0.
   505  5.04  0.  0.
   506  5.05  0.  0.
   507  5.06  0.  0.
   508  5.07  0.  0.
   509  5.08  0.  0.
   510  5.09  0.  0.
   511  5.10  0.  0.
   512  5.11  0.  0.
   513  5.12  0.  0.
   514  5.13  0.  0.
   515  5.14  0.  0.
   516  5.15  0.  0.
   517  5.16  0.  0.
   518  5.17  0.  0.
   519  5.18  0.  0.
   520  5.19  0.  0.
   521  5.20  0.  0.
   522  5.21  0.  0.
   523  5.22  0.  0.
   524  5.23  0.  0.
   525  5.24  0.  0.
   526  5.25  0.  0.
   527  5.26  0.  0.
   528  5.27  0.  0.
   529  5.28  0.  0.
   530  5.29  0.  0.
   531  5.30  0.  0.
   532  5.31  0.  0.
   533  5.32  0.  0.
   534  5.33  0.  0.
   535  5.34  0.  0.
   536  5.35  0.  0.
   537  5.36  0.  0.
   538  5.37  0.  0.
   539  5.38  0.  0.
   540  5.39  0.  0.
   541  5.40  0.  0.
   542  5.41  0.  0.
   543  5.42  0.  0.
   544  5.43  0.  0.
   545  5.44  0.  0.
   546  5.45  0.  0.
   547  5.46  0.  0.
   548  5.47  0.  0.
   549  5.48  0.  0.
   550  5.49  0.  0.
   551  5.50  0.  0.
   552  5.51  0.  0.
   553  5.52  0.  0.
   554  5.53  0.  0.
   555  5.54  0.  0.
   556  5.55  0.  0.
   557  5.56  0.  0.
   558  5.57  0.  0.
   559  5.58  0.  0.
   560  5.59  0.  0.
   561  5.60  0.  0.
   562  5.61  0.  0.
   563  5.62  0.  0.
   564  5.63  0.  0.
   565  5.64  0.  0.
   566  5.65  0.  0.
   567  5.66  0.  0.
   568  5.67  0.  0.
   569  5.68  0.  0.
   570  5.69  0.  0.
   571  5.70  0.  0.
   572  5.71  0.  0.
   573  5.72  0.  0.
   574  5.73  0.  0.
   575  5.74  0.  0.
   576  5.75  0.  0.
   577  5.76  0.  0.
   578  5.77  0.  0.
   579  5.78  0.  0.
   580  5.79  0.  0.
   581  5.80  0.  0.
   582  5.81  0.  0.
   583  5.82  0.  0.
   584  5.83  0.  0.
   585  5.84  0.  0.
   586  5.85  0.  0.
   587  5.86  0.  0.
   588  5.87  0.  0.
   589  5.88  0.  0.
   590  5.89  0.  0.
   591  5.90  0.  0.
   592  5.91  0.  0.
   593  5.92  0.  0.
   594  5.93  0.  0.
   595  5.94  0.  0.
   596  5.95  0.  0.
   597  5.96  0.  0.
   598  5.97  0.  0.
   599  5.98  0.  0.
   600  5.99  0.  0.
   1                         5.4987839655075E+00  8.7707439856764E-01  9.6258006994747E-03
     1  0.0000000000000E+00  2.7782860692604E-08 -5.8233416075359E-08  4.9022889418021E-08
     2  1.0000000000000E-02  1.7013532370773E-03 -2.1612483719572E-03  7.1167943619335E-04
     3  2.0000000000000E-02  6.7747328151629E-03 -8.5837605557364E-03  2.7991954863662E-03
     4  3.0000000000000E-02  1.5128823989269E-02 -1.9085347904595E-02  6.1212454557911E-03
     5  4.0000000000000E-02  2.6613837518601E-02 -3.3367361158982E-02  1.0446508723352E-02
     6  5.0000000000000E-02  4.1025054082027E-02 -5.1022065260957E-02  1.5459819154963E-02
     7  6.0000000000000E-02  5.8107670647258E-02 -7.1542721133049E-02  2.0770602099169E-02
     8  7.0000000000000E-02  7.7562836122142E-02 -9.4336138080351E-02  2.5923377129513E-02
     9  8.0000000000000E-02  9.9054735833559E-02 -1.1873740224123E-01  3.0410078675341E-02
    10  9.0000000000000E-02  1.2221855976899E-01 -1.4402643496375E-01  3.3683903262960E-02
    11  1.0000000000000E-01  1.4666916863697E-01 -1.6944599129939E-01  3.5174355262394E-02
    12  1.1000000000000E-01  1.7201025513213E-01 -1.9422067398547E-01  3.4303133640598E-02
    13  1.2000000000000E-01  1.9784378571230E-01 -2.1757651313960E-01  3.0500480941772E-02
    14  1.3000000000000E-01  2.2377950099073E-01 -2.3876064700435E-01  2.3221603046286E-02
    15  1.4000000000000E-01  2.4944425069056E-01 -2.5706063482124E-01  1.1962764509789E-02
    16  1.5000000000000E-01  2.7449094206225E-01 -2.7182293940608E-01 -3.7233304342180E-03
    17  1.6000000000000E-01  2.9860688867674E-01 -2.8247013412864E-01 -2.4213246905014E-02
    18  1.7000000000000E-01  3.2152135941274E-01 -2.8851641641601E-01 -4.9799971263601E-02
    19  1.8000000000000E-01  3.4301214498114E-01 -2.8958104701795E-01 -8.0681827646673E-02
    20  1.9000000000000E-01  3.6291098109691E-01 -2.8539938029175E-01 -1.1695344239192E-01
    21  2.0000000000000E-01  3.8110769294367E-01 -2.7583120468017E-01 -1.5859899439445E-01
    22  2.1000000000000E-01  3.9755295432136E-01 -2.6086617318505E-01 -2.0548793854708E-01
    23  2.2000000000000E-01  4.1225958618969E-01 -2.4062616964352E-01 -2.5737333396685E-01
    24  2.3000000000000E-01  4.2530235252788E-01 -2.1536452652921E-01 -3.1389284991686E-01
    25  2.4000000000000E-01  4.3681624578736E-01 -1.8546208227093E-01 -3.7457246150068E-01
    26  2.5000000000000E-01  4.4699328895410E-01 -1.5142013908871E-01 -4.3883278568524E-01
    27  2.6000000000000E-01  4.5607791558204E-01 -1.1385045445162E-01 -5.0599794737561E-01
    28  2.7000000000000E-01  4.6436102233887E-01 -7.3462468834420E-02 -5.7530680648319E-01
    29  2.8000000000000E-01  4.7217281986737E-01 -3.1048037910209E-02 -6.4592632152774E-01
    30  2.9000000000000E-01  4.7987463640044E-01  1.2536002833463E-02 -7.1696677455077E-01
    31  3.0000000000000E-01  4.8784985391818E-01  5.6387060208530E-02 -7.8749853715803E-01
    32  3.1000000000000E-01  4.9649417811258E-01  9.9577366688744E-02 -8.5657001939238E-01
    33  3.2000000000000E-01  5.0620546052608E-01  1.4117546418607E-01 -9.2322641276309E-01
    34  3.3000000000000E-01  5.1737330354179E-01  1.8026810219403E-01 -9.8652881685272E-01
    35  3.4000000000000E-01  5.3036868611870E-01  2.1598204981669E-01 -1.0455733260385E+00
    36  3.5000000000000E-01  5.4553385008778E-01  2.4750531794946E-01 -1.0995096493514E+00
    37  3.6000000000000E-01  5.6317268337326E-01  2.7410729596468E-01 -1.1475588425040E+00
    38  3.7000000000000E-01  5.8354182771480E-01  2.9515732658973E-01 -1.1890297465847E+00
    39  3.8000000000000E-01  6.0684272449589E-01  3.1014127290470E-01 -1.2233337525726E+00
    40  3.9000000000000E-01  6.3321479340177E-01  3.1867567194614E-01 -1.2499975442010E+00
    41  4.0000000000000E-01  6.6272991521746E-01  3.2051911946404E-01 -1.2686735131192E+00
    42  4.1000000000000E-01  6.9538836261584E-01  3.1558058890648E-01 -1.2791475889212E+00
    43  4.2000000000000E-01  7.3111629185310E-01  3.0392445347232E-01 -1.2813442814118E+00
    44  4.3000000000000E-01  7.6976487453968E-01  2.8577205167704E-01 -1.2753287923087E+00
    45  4.4000000000000E-01  8.1111111281325E-01  2.6149971278427E-01 -1.2613061171540E+00
    46  4.5000000000000E-01  8.5486034407924E-01  2.3163323701857E-01 -1.2396171241638E+00
    47  4.6000000000000E-01  9.0065040381420E-01  1.9683890497916E-01 -1.2107316636462E+00
    48  4.7000000000000E-01  9.4805737757425E-01  1.5791116936552E-01 -1.1752388280061E+00
    49  4.8000000000000E-01  9.9660283714069E-01  1.1575725825832E-01 -1.1338345467566E+00
    50  4.9000000000000E-01  1.0457624214762E+00  7.1378991063955E-02 -1.0873067619536E+00
    51  5.0000000000000E-01  1.0949755916290E+00  2.5852174201841E-02 -1.0365184856743E+00
    52  5.1000000000000E-01  1.1436563606263E+00 -1.9695997822522E-02 -9.8238909130772E-01
    53  5.2000000000000E-01  1.1912047753936E+00 -6.4111060522269E-02 -9.2587423335615E-01
    54  5.3000000000000E-01  1.2370189083871E+00 -1.0623640143563E-01 -8.6794482514818E-01
    55  5.4000000000000E-01  1.2805071023954E+00 -1.4493884184813E-01 -8.0956552950478E-01
    56  5.5000000000000E-01  1.3211002032295E+00 -1.7913411681106E-01 -7.5167323332611E-01
    57  5.6000000000000E-01  1.3582635119992E+00 -2.0781168697603E-01 -6.9515598284006E-01
    58  5.7000000000000E-01  1.3915081915113E+00 -2.3005832311623E-01 -6.4083285164302E-01
    59  5.8000000000000E-01  1.4204018700033E+00 -2.4507992393256E-01 -5.8943519867076E-01
    60  5.9000000000000E-01  1.4445781998175E+00 -2.5222105954799E-01 -5.4158974808120E-01
    61  6.0000000000000E-01  1.4637451484675E+00 -2.5098177640597E-01 -4.9780388815888E-01
    62  6.1000000000000E-01  1.4776918244757E+00 -2.4103125328675E-01 -4.5845354241816E-01
    63  6.2000000000000E-01  1.4862936698695E+00 -2.2221796177378E-01 -4.2377391395621E-01
    64  6.3000000000000E-01  1.4895158847280E+00 -1.9457605645895E-01 -3.9385334482530E-01
    65  6.4000000000000E-01  1.4874149859774E+00 -1.5832779899359E-01 -3.6863046697562E-01
    66  6.5000000000000E-01  1.4801384419737E+00 -1.1388190413118E-01 -3.4789475151023E-01
    67  6.6000000000000E-01  1.4679223654754E+00 -6.1827783401316E-02 -3.3129049005523E-01
    68  6.7000000000000E-01  1.4510872894965E+00 -2.9257511397996E-03 -3.1832416752439E-01
    69  6.8000000000000E-01  1.4300320923759E+00  6.1906653638717E-02 -3.0837511104312E-01
    70  6.9000000000000E-01  1.4052261792736E+00  1.3161198951886E-01 -3.0070922688896E-01
    71  7.0000000000000E-01  1.3772000663227E+00  2.0501355673915E-01 -2.9449556760957E-01
    72  7.1000000000000E-01  1.3465345499759E+00  2.8083896423930E-01 -2.8882540650474E-01
    73  7.2000000000000E-01  1.3138486768611E+00  3.5774615220286E-01 -2.8273343788136E-01
    74  7.3000000000000E-01  1.2797867579716E+00  4.3435134312661E-01 -2.7522067020946E-01
    75  7.4000000000000E-01  1.2450046946004E+00  5.0925834561802E-01 -2.6527853672873E-01
    76  7.5000000000000E-01  1.2101559015260E+00  5.8108859809415E-01 -2.5191371516605E-01
    77  7.6000000000000E-01  1.1758771251299E+00  6.4851131525817E-01 -2.3417312584501E-01
    78  7.7000000000000E-01  1.1427744600419E+00  7.1027308932821E-01 -2.1116856618234E-01
    79  7.8000000000000E-01  1.1114098673838E+00  7.6522630086816E-01 -1.8210043973955E-01
    80  7.9000000000000E-01  1.0822884906593E+00  8.1235571081274E-01 -1.4628004974575E-01
    81  8.0000000000000E-01  1.0558470518981E+00  8.5080263568659E-01 -1.0314995020689E-01
    82  8.1000000000000E-01  1.0324435910243E+00  8.7988615158868E-01 -5.2301881993147E-02
    83  8.2000000000000E-01  1.0123487859532E+00  8.9912082846380E-01  6.5081339559442E-03
    84  8.3000000000000E-01  9.9573906008345E-01  9.0823056345608E-01  7.3347919794695E-02
    85  8.4000000000000E-01  9.8269164827822E-01  9.0715815942487E-01  1.4810079083328E-01
    86  8.5000000000000E-01  9.7318175279769E-01  8.9607038046493E-01  2.3046097273885E-01
    87  8.6000000000000E-01  9.6708187778167E-01  8.7535830877947E-01  3.1993294990118E-01