Cu    ONCVPSP-4.0.1  r_core=   1.25139   1.45326   1.75986
     29.0000     19.0000      250925    zatom,zion,pspd
     8   -1012   2     4   600     0    pspcod,pspxc,lmax,lloc,mmax,r2well
  5.99000000  3.50000000  0.00000000    rchrg fchrg qchrg
     2     2     2     0    nproj
     3     1           extension_switch
     4     4     0    nprojso
   0                         4.9810912651070E+00 -3.9182274694615E-01
     1  0.0000000000000E+00  1.2864091680775E-08  3.0500470052375E-08
     2  1.0000000000000E-02  9.3962634748663E-02  1.0689934616353E-02
     3  2.0000000000000E-02  1.8773103543885E-01  2.1666076387557E-02
     4  3.0000000000000E-02  2.8110801380839E-01  3.3205424646805E-02
     5  4.0000000000000E-02  3.7389059109547E-01  4.5566842982406E-02
     6  5.0000000000000E-02  4.6586739410604E-01  5.8982682913435E-02
     7  6.0000000000000E-02  5.5681639129266E-01  7.3651214701656E-02
     8  7.0000000000000E-02  6.4650306651782E-01  8.9730097168637E-02
     9  8.0000000000000E-02  7.3467911531082E-01  1.0733108788650E-01
    10  9.0000000000000E-02  8.2108173303170E-01  1.2651615864653E-01
    11  1.0000000000000E-01  9.0543354685741E-01  1.4729513972169E-01
    12  1.1000000000000E-01  9.8744322439254E-01  1.6962497130863E-01
    13  1.2000000000000E-01  1.0668067715134E+00  1.9341059295244E-01
    14  1.3000000000000E-01  1.1432095113450E+00  2.1850745308838E-01
    15  1.4000000000000E-01  1.2163287156274E+00  2.4472557247722E-01
    16  1.5000000000000E-01  1.2858368397303E+00  2.7183504866128E-01
    17  1.6000000000000E-01  1.3514052937889E+00  2.9957284497829E-01
    18  1.7000000000000E-01  1.4127086653961E+00  3.2765066841073E-01
    19  1.8000000000000E-01  1.4694292944737E+00  3.5576370677372E-01
    20  1.9000000000000E-01  1.5212620888002E+00  3.8359996845723E-01
    21  2.0000000000000E-01  1.5679194595365E+00  4.1084994796456E-01
    22  2.1000000000000E-01  1.6091362502482E+00  4.3721632844794E-01
    23  2.2000000000000E-01  1.6446745305476E+00  4.6242342873607E-01
    24  2.3000000000000E-01  1.6743281266738E+00  4.8622610714175E-01
    25  2.4000000000000E-01  1.6979267660704E+00  5.0841784755636E-01
    26  2.5000000000000E-01  1.7153397212103E+00  5.2883777467007E-01
    27  2.6000000000000E-01  1.7264788493572E+00  5.4737637405346E-01
    28  2.7000000000000E-01  1.7313009393352E+00  5.6397972853667E-01
    29  2.8000000000000E-01  1.7298092933441E+00  5.7865212386033E-01
    30  2.9000000000000E-01  1.7220544909467E+00  5.9145692281444E-01
    31  3.0000000000000E-01  1.7081343030582E+00  6.0251565674624E-01
    32  3.1000000000000E-01  1.6881927455365E+00  6.1200533502072E-01
    33  3.2000000000000E-01  1.6624182841984E+00  6.2015402529877E-01
    34  3.3000000000000E-01  1.6310412251857E+00  6.2723480887221E-01
    35  3.4000000000000E-01  1.5943303459501E+00  6.3355826428535E-01
    36  3.5000000000000E-01  1.5525888421342E+00  6.3946367765619E-01
    37  3.6000000000000E-01  1.5061496837463E+00  6.4530921815563E-01
    38  3.7000000000000E-01  1.4553704897341E+00  6.5146135081188E-01
    39  3.8000000000000E-01  1.4006280429248E+00  6.5828378514255E-01
    40  3.9000000000000E-01  1.3423125769359E+00  6.6612627624373E-01
    41  4.0000000000000E-01  1.2808219727889E+00  6.7531360426396E-01
    42  4.1000000000000E-01  1.2165560053845E+00  6.8613505828654E-01
    43  4.2000000000000E-01  1.1499107786351E+00  6.9883474141457E-01
    44  4.3000000000000E-01  1.0812734829012E+00  7.1360299543446E-01
    45  4.4000000000000E-01  1.0110175995725E+00  7.3056921622648E-01
    46  4.5000000000000E-01  9.3949866537396E-01  7.4979629573809E-01
    47  4.6000000000000E-01  8.6705069358873E-01  7.7127688372487E-01
    48  4.7000000000000E-01  7.9398333126644E-01  7.9493161368979E-01
    49  4.8000000000000E-01  7.2057981111259E-01  8.2060938379906E-01
    50  4.9000000000000E-01  6.4709573467611E-01  8.4808972645830E-01
    51  5.0000000000000E-01  5.7375870026487E-01  8.7708724124701E-01
    52  5.1000000000000E-01  5.0076876535587E-01  9.0725800665747E-01
    53  5.2000000000000E-01  4.2829970977793E-01  9.3820782822031E-01
    54  5.3000000000000E-01  3.5650104328178E-01  9.6950212576113E-01
    55  5.4000000000000E-01  2.8550067990841E-01  1.0006772122976E+00
    56  5.5000000000000E-01  2.1540818242132E-01  1.0312526729264E+00
    57  5.6000000000000E-01  1.4631846352943E-01  1.0607445152864E+00
    58  5.7000000000000E-01  7.8315817175091E-02  1.0886787349612E+00
    59  5.8000000000000E-01  1.1478143196640E-02  1.1146049204124E+00
    60  5.9000000000000E-01 -5.4118777495158E-02  1.1381095133939E+00
    61  6.0000000000000E-01 -1.1839710225702E-01  1.1588283426850E+00
    62  6.1000000000000E-01 -1.8127298366993E-01  1.1764580615121E+00
    63  6.2000000000000E-01 -2.4265300119899E-01  1.1907661420397E+00
    64  6.3000000000000E-01 -3.0243109466965E-01  1.2015991133361E+00
    65  6.4000000000000E-01 -3.6048611297934E-01  1.2088887715045E+00
    66  6.5000000000000E-01 -4.1668007438841E-01  1.2126561412300E+00
    67  6.6000000000000E-01 -4.7085721471763E-01  1.2130130255524E+00
    68  6.7000000000000E-01 -5.2284387734297E-01  1.2101610437941E+00
    69  6.8000000000000E-01 -5.7244927461829E-01  1.2043881246121E+00
    70  6.9000000000000E-01 -6.1946712492491E-01  1.1960624903391E+00
    71  7.0000000000000E-01 -6.6367814363211E-01  1.1856242382881E+00
    72  7.1000000000000E-01 -7.0485334057080E-01  1.1735746926293E+00
    73  7.2000000000000E-01 -7.4275805188022E-01  1.1604637649453E+00
    74  7.3000000000000E-01 -7.7715661098693E-01  1.1468756208163E+00
    75  7.4000000000000E-01 -8.0781754266870E-01  1.1334130021089E+00
    76  7.5000000000000E-01 -8.3451914624911E-01  1.1206805985009E+00
    77  7.6000000000000E-01 -8.5705531949171E-01  1.1092678958572E+00
    78  7.7000000000000E-01 -8.7524146415745E-01  1.0997319523051E+00
    79  7.8000000000000E-01 -8.8892030779900E-01  1.0925805644337E+00
    80  7.9000000000000E-01 -8.9796747442263E-01  1.0882562854717E+00
    81  8.0000000000000E-01 -9.0229663926517E-01  1.0871217443998E+00
    82  8.1000000000000E-01 -9.0186411010183E-01  1.0894466898690E+00
    83  8.2000000000000E-01 -8.9667268908844E-01  1.0953971460138E+00
    84  8.3000000000000E-01 -8.8677468489438E-01  1.1050270195500E+00
    85  8.4000000000000E-01 -8.7227396443202E-01  1.1182724400398E+00
    86  8.5000000000000E-01 -8.5332695635851E-01  1.1349490492548E+00
    87  8.6000000000000E-01 -8.3014254414608E-01  1.1547523827974E+00
    88  8.7000000000000E-01 -8.0298081423583E-01  1.1772614093601E+00
    89  8.8000000000000E-01 -7.7215065389311E-01  1.2019452121917E+00
    90  8.9000000000000E-01 -7.3800622310943E-01  1.2281727155868E+00
    91  9.0000000000000E-01 -7.0094235446184E-01  1.2552252786351E+00
    92  9.1000000000000E-01 -6.6138896345703E-01  1.2823119012117E+00
    93  9.2000000000000E-01 -6.1980457877888E-01  1.3085867153076E+00
    94  9.3000000000000E-01 -5.7666912629628E-01  1.3331683702538E+00
    95  9.4000000000000E-01 -5.3247612198972E-01  1.3551608649579E+00
    96  9.5000000000000E-01 -4.8772444652397E-01  1.3736753355206E+00
    97  9.6000000000000E-01 -4.4290988752325E-01  1.3878522738252E+00
    98  9.7000000000000E-01 -3.9851664429302E-01  1.3968836329072E+00
    99  9.8000000000000E-01 -3.5500899350290E-01  1.4000342687743E+00
   100  9.9000000000000E-01 -3.1282331304193E-01  1.3966621762067E+00
   101  1.0000000000000E+00 -2.7236065486009E-01  1.3862369978705E+00
   102  1.0100000000000E+00 -2.3398004624077E-01  1.3683563214232E+00
   103  1.0200000000000E+00 -1.9799268284739E-01  1.3427593274288E+00
   104  1.0300000000000E+00 -1.6465715641987E-01  1.3093374107645E+00
   105  1.0400000000000E+00 -1.3417583568145E-01  1.2681414683009E+00
   106  1.0500000000000E+00 -1.0669249142420E-01  1.2193856243622E+00
   107  1.0600000000000E+00 -8.2291226543668E-02  1.1634472509340E+00
   108  1.0700000000000E+00 -6.0996739838561E-02  1.1008632294237E+00
   109  1.0800000000000E+00 -4.2775919339315E-02  1.0323224931679E+00
   110  1.0900000000000E+00 -2.7540727790061E-02  9.5865498203932E-01
   111  1.1000000000000E+00 -1.5152310427630E-02  8.8081723037790E-01
   112  1.1100000000000E+00 -5.4262242252621E-03  7.9987489476134E-01
   113  1.1200000000000E+00  1.8613407871076E-03  7.1698260632351E-01
   114  1.1300000000000E+00  6.9665031022226E-03  6.3336160196080E-01
   115  1.1400000000000E+00  1.0169970877437E-02  5.5027564730010E-01
   116  1.1500000000000E+00  1.1768856786750E-02  4.6900581093615E-01
   117  1.1600000000000E+00  1.2068233289682E-02  3.9082468225285E-01
   118  1.1700000000000E+00  1.1372646739186E-02  3.1697065236232E-01
   119  1.1800000000000E+00  9.9777708721964E-03  2.4862279402229E-01
   120  1.1900000000000E+00  8.1620405362960E-03  1.8687626451234E-01
   121  1.2000000000000E+00  6.1659299453919E-03  1.3269182011918E-01
   122  1.2100000000000E+00  4.2135103914195E-03  8.6931787094965E-02
   123  1.2200000000000E+00  2.5015551033521E-03  5.0333047243221E-02
   124  1.2300000000000E+00  1.1767368771879E-03  2.3453808476428E-02
   125  1.2400000000000E+00  3.3001476424684E-04  6.6134531988432E-03
   126  1.2500000000000E+00  1.0034231679955E-05  2.0551130789251E-04
   127  1.2600000000000E+00  1.1275345123847E-06  2.2898558293565E-05
   128  1.2700000000000E+00 -3.7266415856908E-07 -7.5182993619070E-06
   129  1.28  0.  0.
   130  1.29  0.  0.
   131  1.30  0.  0.
   132  1.31  0.  0.
   133  1.32  0.  0.
   134  1.33  0.  0.
   135  1.34  0.  0.
   136  1.35  0.  0.
   137  1.36  0.  0.
   138  1.37  0.  0.
   139  1.38  0.  0.
   140  1.39  0.  0.
   141  1.40  0.  0.
   142  1.41  0.  0.
   143  1.42  0.  0.
   144  1.43  0.  0.
   145  1.44  0.  0.
   146  1.45  0.  0.
   147  1.46  0.  0.
   148  1.47  0.  0.
   149  1.48  0.  0.
   150  1.49  0.  0.
   151  1.50  0.  0.
   152  1.51  0.  0.
   153  1.52  0.  0.
   154  1.53  0.  0.
   155  1.54  0.  0.
   156  1.55  0.  0.
   157  1.56  0.  0.
   158  1.57  0.  0.
   159  1.58  0.  0.
   160  1.59  0.  0.
   161  1.60  0.  0.
   162  1.61  0.  0.
   163  1.62  0.  0.
   164  1.63  0.  0.
   165  1.64  0.  0.
   166  1.65  0.  0.
   167  1.66  0.  0.
   168  1.67  0.  0.
   169  1.68  0.  0.
   170  1.69  0.  0.
   171  1.70  0.  0.
   172  1.71  0.  0.
   173  1.72  0.  0.
   174  1.73  0.  0.
   175  1.74  0.  0.
   176  1.75  0.  0.
   177  1.76  0.  0.
   178  1.77  0.  0.
   179  1.78  0.  0.
   180  1.79  0.  0.
   181  1.80  0.  0.
   182  1.81  0.  0.
   183  1.82  0.  0.
   184  1.83  0.  0.
   185  1.84  0.  0.
   186  1.85  0.  0.
   187  1.86  0.  0.
   188  1.87  0.  0.
   189  1.88  0.  0.
   190  1.89  0.  0.
   191  1.90  0.  0.
   192  1.91  0.  0.
   193  1.92  0.  0.
   194  1.93  0.  0.
   195  1.94  0.  0.
   196  1.95  0.  0.
   197  1.96  0.  0.
   198  1.97  0.  0.
   199  1.98  0.  0.
   200  1.99  0.  0.
   201  2.00  0.  0.
   202  2.01  0.  0.
   203  2.02  0.  0.
   204  2.03  0.  0.
   205  2.04  0.  0.
   206  2.05  0.  0.
   207  2.06  0.  0.
   208  2.07  0.  0.
   209  2.08  0.  0.
   210  2.09  0.  0.
   211  2.10  0.  0.
   212  2.11  0.  0.
   213  2.12  0.  0.
   214  2.13  0.  0.
   215  2.14  0.  0.
   216  2.15  0.  0.
   217  2.16  0.  0.
   218  2.17  0.  0.
   219  2.18  0.  0.
   220  2.19  0.  0.
   221  2.20  0.  0.
   222  2.21  0.  0.
   223  2.22  0.  0.
   224  2.23  0.  0.
   225  2.24  0.  0.
   226  2.25  0.  0.
   227  2.26  0.  0.
   228  2.27  0.  0.
   229  2.28  0.  0.
   230  2.29  0.  0.
   231  2.30  0.  0.
   232  2.31  0.  0.
   233  2.32  0.  0.
   234  2.33  0.  0.
   235  2.34  0.  0.
   236  2.35  0.  0.
   237  2.36  0.  0.
   238  2.37  0.  0.
   239  2.38  0.  0.
   240  2.39  0.  0.
   241  2.40  0.  0.
   242  2.41  0.  0.
   243  2.42  0.  0.
   244  2.43  0.  0.
   245  2.44  0.  0.
   246  2.45  0.  0.
   247  2.46  0.  0.
   248  2.47  0.  0.
   249  2.48  0.  0.
   250  2.49  0.  0.
   251  2.50  0.  0.
   252  2.51  0.  0.
   253  2.52  0.  0.
   254  2.53  0.  0.
   255  2.54  0.  0.
   256  2.55  0.  0.
   257  2.56  0.  0.
   258  2.57  0.  0.
   259  2.58  0.  0.
   260  2.59  0.  0.
   261  2.60  0.  0.
   262  2.61  0.  0.
   263  2.62  0.  0.
   264  2.63  0.  0.
   265  2.64  0.  0.
   266  2.65  0.  0.
   267  2.66  0.  0.
   268  2.67  0.  0.
   269  2.68  0.  0.
   270  2.69  0.  0.
   271  2.70  0.  0.
   272  2.71  0.  0.
   273  2.72  0.  0.
   274  2.73  0.  0.
   275  2.74  0.  0.
   276  2.75  0.  0.
   277  2.76  0.  0.
   278  2.77  0.  0.
   279  2.78  0.  0.
   280  2.79  0.  0.
   281  2.80  0.  0.
   282  2.81  0.  0.
   283  2.82  0.  0.
   284  2.83  0.  0.
   285  2.84  0.  0.
   286  2.85  0.  0.
   287  2.86  0.  0.
   288  2.87  0.  0.
   289  2.88  0.  0.
   290  2.89  0.  0.
   291  2.90  0.  0.
   292  2.91  0.  0.
   293  2.92  0.  0.
   294  2.93  0.  0.
   295  2.94  0.  0.
   296  2.95  0.  0.
   297  2.96  0.  0.
   298  2.97  0.  0.
   299  2.98  0.  0.
   300  2.99  0.  0.
   301  3.00  0.  0.
   302  3.01  0.  0.
   303  3.02  0.  0.
   304  3.03  0.  0.
   305  3.04  0.  0.
   306  3.05  0.  0.
   307  3.06  0.  0.
   308  3.07  0.  0.
   309  3.08  0.  0.
   310  3.09  0.  0.
   311  3.10  0.  0.
   312  3.11  0.  0.
   313  3.12  0.  0.
   314  3.13  0.  0.
   315  3.14  0.  0.
   316  3.15  0.  0.
   317  3.16  0.  0.
   318  3.17  0.  0.
   319  3.18  0.  0.
   320  3.19  0.  0.
   321  3.20  0.  0.
   322  3.21  0.  0.
   323  3.22  0.  0.
   324  3.23  0.  0.
   325  3.24  0.  0.
   326  3.25  0.  0.
   327  3.26  0.  0.
   328  3.27  0.  0.
   329  3.28  0.  0.
   330  3.29  0.  0.
   331  3.30  0.  0.
   332  3.31  0.  0.
   333  3.32  0.  0.
   334  3.33  0.  0.
   335  3.34  0.  0.
   336  3.35  0.  0.
   337  3.36  0.  0.
   338  3.37  0.  0.
   339  3.38  0.  0.
   340  3.39  0.  0.
   341  3.40  0.  0.
   342  3.41  0.  0.
   343  3.42  0.  0.
   344  3.43  0.  0.
   345  3.44  0.  0.
   346  3.45  0.  0.
   347  3.46  0.  0.
   348  3.47  0.  0.
   349  3.48  0.  0.
   350  3.49  0.  0.
   351  3.50  0.  0.
   352  3.51  0.  0.
   353  3.52  0.  0.
   354  3.53  0.  0.
   355  3.54  0.  0.
   356  3.55  0.  0.
   357  3.56  0.  0.
   358  3.57  0.  0.
   359  3.58  0.  0.
   360  3.59  0.  0.
   361  3.60  0.  0.
   362  3.61  0.  0.
   363  3.62  0.  0.
   364  3.63  0.  0.
   365  3.64  0.  0.
   366  3.65  0.  0.
   367  3.66  0.  0.
   368  3.67  0.  0.
   369  3.68  0.  0.
   370  3.69  0.  0.
   371  3.70  0.  0.
   372  3.71  0.  0.
   373  3.72  0.  0.
   374  3.73  0.  0.
   375  3.74  0.  0.
   376  3.75  0.  0.
   377  3.76  0.  0.
   378  3.77  0.  0.
   379  3.78  0.  0.
   380  3.79  0.  0.
   381  3.80  0.  0.
   382  3.81  0.  0.
   383  3.82  0.  0.
   384  3.83  0.  0.
   385  3.84  0.  0.
   386  3.85  0.  0.
   387  3.86  0.  0.
   388  3.87  0.  0.
   389  3.88  0.  0.
   390  3.89  0.  0.
   391  3.90  0.  0.
   392  3.91  0.  0.
   393  3.92  0.  0.
   394  3.93  0.  0.
   395  3.94  0.  0.
   396  3.95  0.  0.
   397  3.96  0.  0.
   398  3.97  0.  0.
   399  3.98  0.  0.
   400  3.99  0.  0.
   401  4.00  0.  0.
   402  4.01  0.  0.
   403  4.02  0.  0.
   404  4.03  0.  0.
   405  4.04  0.  0.
   406  4.05  0.  0.
   407  4.06  0.  0.
   408  4.07  0.  0.
   409  4.08  0.  0.
   410  4.09  0.  0.
   411  4.10  0.  0.
   412  4.11  0.  0.
   413  4.12  0.  0.
   414  4.13  0.  0.
   415  4.14  0.  0.
   416  4.15  0.  0.
   417  4.16  0.  0.
   418  4.17  0.  0.
   419  4.18  0.  0.
   420  4.19  0.  0.
   421  4.20  0.  0.
   422  4.21  0.  0.
   423  4.22  0.  0.
   424  4.23  0.  0.
   425  4.24  0.  0.
   426  4.25  0.  0.
   427  4.26  0.  0.
   428  4.27  0.  0.
   429  4.28  0.  0.
   430  4.29  0.  0.
   431  4.30  0.  0.
   432  4.31  0.  0.
   433  4.32  0.  0.
   434  4.33  0.  0.
   435  4.34  0.  0.
   436  4.35  0.  0.
   437  4.36  0.  0.
   438  4.37  0.  0.
   439  4.38  0.  0.
   440  4.39  0.  0.
   441  4.40  0.  0.
   442  4.41  0.  0.
   443  4.42  0.  0.
   444  4.43  0.  0.
   445  4.44  0.  0.
   446  4.45  0.  0.
   447  4.46  0.  0.
   448  4.47  0.  0.
   449  4.48  0.  0.
   450  4.49  0.  0.
   451  4.50  0.  0.
   452  4.51  0.  0.
   453  4.52  0.  0.
   454  4.53  0.  0.
   455  4.54  0.  0.
   456  4.55  0.  0.
   457  4.56  0.  0.
   458  4.57  0.  0.
   459  4.58  0.  0.
   460  4.59  0.  0.
   461  4.60  0.  0.
   462  4.61  0.  0.
   463  4.62  0.  0.
   464  4.63  0.  0.
   465  4.64  0.  0.
   466  4.65  0.  0.
   467  4.66  0.  0.
   468  4.67  0.  0.
   469  4.68  0.  0.
   470  4.69  0.  0.
   471  4.70  0.  0.
   472  4.71  0.  0.
   473  4.72  0.  0.
   474  4.73  0.  0.
   475  4.74  0.  0.
   476  4.75  0.  0.
   477  4.76  0.  0.
   478  4.77  0.  0.
   479  4.78  0.  0.
   480  4.79  0.  0.
   481  4.80  0.  0.
   482  4.81  0.  0.
   483  4.82  0.  0.
   484  4.83  0.  0.
   485  4.84  0.  0.
   486  4.85  0.  0.
   487  4.86  0.  0.
   488  4.87  0.  0.
   489  4.88  0.  0.
   490  4.89  0.  0.
   491  4.90  0.  0.
   492  4.91  0.  0.
   493  4.92  0.  0.
   494  4.93  0.  0.
   495  4.94  0.  0.
   496  4.95  0.  0.
   497  4.96  0.  0.
   498  4.97  0.  0.
   499  4.98  0.  0.
   500  4.99  0.  0.
   501  5.00  0.  0.
   502  5.01  0.  0.
   503  5.02  0.  0.
   504  5.03  0.  0.
   505  5.04  0.  0.
   506  5.05  0.  0.
   507  5.06  0.  0.
   508  5.07  0.  0.
   509  5.08  0.  0.
   510  5.09  0.  0.
   511  5.10  0.  0.
   512  5.11  0.  0.
   513  5.12  0.  0.
   514  5.13  0.  0.
   515  5.14  0.  0.
   516  5.15  0.  0.
   517  5.16  0.  0.
   518  5.17  0.  0.
   519  5.18  0.  0.
   520  5.19  0.  0.
   521  5.20  0.  0.
   522  5.21  0.  0.
   523  5.22  0.  0.
   524  5.23  0.  0.
   525  5.24  0.  0.
   526  5.25  0.  0.
   527  5.26  0.  0.
   528  5.27  0.  0.
   529  5.28  0.  0.
   530  5.29  0.  0.
   531  5.30  0.  0.
   532  5.31  0.  0.
   533  5.32  0.  0.
   534  5.33  0.  0.
   535  5.34  0.  0.
   536  5.35  0.  0.
   537  5.36  0.  0.
   538  5.37  0.  0.
   539  5.38  0.  0.
   540  5.39  0.  0.
   541  5.40  0.  0.
   542  5.41  0.  0.
   543  5.42  0.  0.
   544  5.43  0.  0.
   545  5.44  0.  0.
   546  5.45  0.  0.
   547  5.46  0.  0.
   548  5.47  0.  0.
   549  5.48  0.  0.
   550  5.49  0.  0.
   551  5.50  0.  0.
   552  5.51  0.  0.
   553  5.52  0.  0.
   554  5.53  0.  0.
   555  5.54  0.  0.
   556  5.55  0.  0.
   557  5.56  0.  0.
   558  5.57  0.  0.
   559  5.58  0.  0.
   560  5.59  0.  0.
   561  5.60  0.  0.
   562  5.61  0.  0.
   563  5.62  0.  0.
   564  5.63  0.  0.
   565  5.64  0.  0.
   566  5.65  0.  0.
   567  5.66  0.  0.
   568  5.67  0.  0.
   569  5.68  0.  0.
   570  5.69  0.  0.
   571  5.70  0.  0.
   572  5.71  0.  0.
   573  5.72  0.  0.
   574  5.73  0.  0.
   575  5.74  0.  0.
   576  5.75  0.  0.
   577  5.76  0.  0.
   578  5.77  0.  0.
   579  5.78  0.  0.
   580  5.79  0.  0.
   581  5.80  0.  0.
   582  5.81  0.  0.
   583  5.82  0.  0.
   584  5.83  0.  0.
   585  5.84  0.  0.
   586  5.85  0.  0.
   587  5.86  0.  0.
   588  5.87  0.  0.
   589  5.88  0.  0.
   590  5.89  0.  0.
   591  5.90  0.  0.
   592  5.91  0.  0.
   593  5.92  0.  0.
   594  5.93  0.  0.
   595  5.94  0.  0.
   596  5.95  0.  0.
   597  5.96  0.  0.
   598  5.97  0.  0.
   599  5.98  0.  0.
   600  5.99  0.  0.
   1                        -3.4909626050483E+00 -7.2092966111185E-01
     1  0.0000000000000E+00 -1.9337357687332E-09  1.1469514026030E-08
     2  1.0000000000000E-02  1.4248373088210E-03 -7.5637181712043E-04
     3  2.0000000000000E-02  5.6961412916242E-03 -3.0294651393548E-03
     4  3.0000000000000E-02  1.2804252930753E-02 -6.8309574982706E-03
     5  4.0000000000000E-02  2.2732957763252E-02 -1.2179464942488E-02
     6  5.0000000000000E-02  3.5459315862563E-02 -1.9099296953259E-02
     7  6.0000000000000E-02  5.0953431974767E-02 -2.7618762040964E-02
     8  7.0000000000000E-02  6.9178173735396E-02 -3.7768071286023E-02
     9  8.0000000000000E-02  9.0088847826544E-02 -4.9576898557184E-02
    10  9.0000000000000E-02  1.1363284563020E-01 -6.3071666151320E-02
    11  1.0000000000000E-01  1.3974927135089E-01 -7.8272632899686E-02
    12  1.1000000000000E-01  1.6836856668405E-01 -9.5190868166945E-02
    13  1.2000000000000E-01  1.9941214686814E-01 -1.1382519946453E-01
    14  1.3000000000000E-01  2.3279206335904E-01 -1.3415922349729E-01
    15  1.4000000000000E-01  2.6841070839253E-01 -1.5615847029885E-01
    16  1.5000000000000E-01  3.0616057635281E-01 -1.7976780767997E-01
    17  1.6000000000000E-01  3.4592409614722E-01 -2.0490916856471E-01
    18  1.7000000000000E-01  3.8757354771437E-01 -2.3147967702186E-01
    19  1.8000000000000E-01  4.3097107438812E-01 -2.5935024006831E-01
    20  1.9000000000000E-01  4.7596880113250E-01 -2.8836466182886E-01
    21  2.0000000000000E-01  5.2240906669203E-01 -3.1833932462808E-01
    22  2.1000000000000E-01  5.7012477551052E-01 -3.4906346834809E-01
    23  2.2000000000000E-01  6.1893987290912E-01 -3.8030008522612E-01
    24  2.3000000000000E-01  6.6866994453413E-01 -4.1178743252542E-01
    25  2.4000000000000E-01  7.1912293854264E-01 -4.4324115054766E-01
    26  2.5000000000000E-01  7.7010000644777E-01 -4.7435695862608E-01
    27  2.6000000000000E-01  8.2139645605241E-01 -5.0481388740722E-01
    28  2.7000000000000E-01  8.7280280751795E-01 -5.3427799224666E-01
    29  2.8000000000000E-01  9.2410594139716E-01 -5.6240648024380E-01
    30  2.9000000000000E-01  9.7509032545871E-01 -5.8885217262921E-01
    31  3.0000000000000E-01  1.0255393053907E+00 -6.1326821516880E-01
    32  3.1000000000000E-01  1.0752364430322E+00 -6.3531294219429E-01
    33  3.2000000000000E-01  1.1239668846785E+00 -6.5465479499610E-01
    34  3.3000000000000E-01  1.1715187412617E+00 -6.7097719275717E-01
    35  3.4000000000000E-01  1.2176844618429E+00 -6.8398325404529E-01
    36  3.5000000000000E-01  1.2622621818726E+00 -6.9340026914008E-01
    37  3.6000000000000E-01  1.3050570280809E+00 -6.9898382811466E-01
    38  3.7000000000000E-01  1.3458823626400E+00 -7.0052151652731E-01
    39  3.8000000000000E-01  1.3845609503851E+00 -6.9783609965779E-01
    40  3.9000000000000E-01  1.4209260343462E+00 -6.9078812724460E-01
    41  4.0000000000000E-01  1.4548223066175E+00 -6.7927790339246E-01
    42  4.1000000000000E-01  1.4861067636131E+00 -6.6324678043202E-01
    43  4.2000000000000E-01  1.5146494369961E+00 -6.4267775069629E-01
    44  4.3000000000000E-01  1.5403339939579E+00 -6.1759532607254E-01
    45  4.4000000000000E-01  1.5630582030213E+00 -5.8806471141722E-01
    46  4.5000000000000E-01  1.5827342640762E+00 -5.5419029409346E-01
    47  4.6000000000000E-01  1.5992890038817E+00 -5.1611348761589E-01
    48  4.7000000000000E-01  1.6126639407149E+00 -4.7400998227991E-01
    49  4.8000000000000E-01  1.6228152241628E+00 -4.2808646934463E-01
    50  4.9000000000000E-01  1.6297134581894E+00 -3.7857691748854E-01
    51  5.0000000000000E-01  1.6333434175028E+00 -3.2573849055506E-01
    52  5.1000000000000E-01  1.6337036688728E+00 -2.6984720378656E-01
    53  5.2000000000000E-01  1.6308061103510E+00 -2.1119342159162E-01
    54  5.3000000000000E-01  1.6246754423101E+00 -1.5007730323890E-01
    55  5.4000000000000E-01  1.6153485848149E+00 -8.6804303618019E-02
    56  5.5000000000000E-01  1.6028740560610E+00 -2.1680834312100E-02
    57  5.6000000000000E-01  1.5873113264572E+00  4.4989814290103E-02
    58  5.7000000000000E-01  1.5687301623999E+00  1.1291119616372E-01
    59  5.8000000000000E-01  1.5472099729047E+00  1.8179699385381E-01
    60  5.9000000000000E-01  1.5228391710406E+00  2.5137379108051E-01
    61  6.0000000000000E-01  1.4957145606057E+00  3.2138327462108E-01
    62  6.1000000000000E-01  1.4659407567113E+00  3.9158382145548E-01
    63  6.2000000000000E-01  1.4336296469684E+00  4.6175144350561E-01
    64  6.3000000000000E-01  1.3988998978391E+00  5.3168007948202E-01
    65  6.4000000000000E-01  1.3618765084904E+00  6.0118124095952E-01
    66  6.5000000000000E-01  1.3226904122232E+00  6.7008303739659E-01
    67  6.6000000000000E-01  1.2814781233130E+00  7.3822862195531E-01
    68  6.7000000000000E-01  1.2383814249491E+00  8.0547411623126E-01
    69  6.8000000000000E-01  1.1935470919559E+00  8.7168608694801E-01
    70  6.9000000000000E-01  1.1471266401811E+00  9.3673866091402E-01
    71  7.0000000000000E-01  1.0992760928956E+00  1.0005103757245E+00
    72  7.1000000000000E-01  1.0501557533085E+00  1.0628808725034E+00
    73  7.2000000000000E-01  9.9992997140366E-01  1.1237275431629E+00
    74  7.3000000000000E-01  9.4876689277891E-01  1.1829222480125E+00
    75  7.4000000000000E-01  8.9683817703493E-01  1.2403282199427E+00
    76  7.5000000000000E-01  8.4431867353507E-01  1.2957972687774E+00
    77  7.6000000000000E-01  7.9138604303467E-01  1.3491673937533E+00
    78  7.7000000000000E-01  7.3822031475430E-01  1.4002609035148E+00
    79  7.8000000000000E-01  6.8500336992360E-01  1.4488831316851E+00
    80  7.9000000000000E-01  6.3191834462241E-01  1.4948218222017E+00
    81  8.0000000000000E-01  5.7914894685384E-01  1.5378472424949E+00
    82  8.1000000000000E-01  5.2687868515147E-01  1.5777130645857E+00
    83  8.2000000000000E-01  4.7529000859599E-01  1.6141580347011E+00
    84  8.3000000000000E-01  4.2456336083073E-01  1.6469084314953E+00
    85  8.4000000000000E-01  3.7487615345579E-01  1.6756812919089E+00
    86  8.5000000000000E-01  3.2640166697529E-01  1.7001883626092E+00
    87  8.6000000000000E-01  2.7930789019947E-01  1.7201407143397E+00
    88  8.7000000000000E-01  2.3375631159049E-01  1.7352539368880E+00
    89  8.8000000000000E-01  1.8990067841799E-01  1.7452538142641E+00
    90  8.9000000000000E-01  1.4788574168952E-01  1.7498823635265E+00
    91  9.0000000000000E-01  1.0784600658063E-01  1.7489041069629E+00
    92  9.1000000000000E-01  6.9904509454504E-02  1.7421124363857E+00
    93  9.2000000000000E-01  3.4171643484140E-02  1.7293359205005E+00
    94  9.3000000000000E-01  7.4405533436419E-04  1.7104444018805E+00
    95  9.4000000000000E-01 -3.0296364700809E-02  1.6853547292440E+00
    96  9.5000000000000E-01 -5.8883377293063E-02  1.6540359735722E+00
    97  9.6000000000000E-01 -8.4967152702197E-02  1.6165139831552E+00
    98  9.7000000000000E-01 -1.0851487434487E-01  1.5728751428418E+00
    99  9.8000000000000E-01 -1.2951117034563E-01  1.5232692164426E+00
   100  9.9000000000000E-01 -1.4795835868534E-01  1.4679111681652E+00
   101  1.0000000000000E+00 -1.6387649455648E-01  1.4070818788253E+00
   102  1.0100000000000E+00 -1.7730321188901E-01  1.3411276949755E+00
   103  1.0200000000000E+00 -1.8829335466017E-01  1.2704587735911E+00
   104  1.0300000000000E+00 -1.9691839747424E-01  1.1955462110192E+00
   105  1.0400000000000E+00 -2.0326565890916E-01  1.1169179719677E+00
   106  1.0500000000000E+00 -2.0743731519661E-01  1.0351536618034E+00
   107  1.0600000000000E+00 -2.0954922584198E-01  9.5087821275014E-01
   108  1.0700000000000E+00 -2.0972958670246E-01  8.6475458102478E-01
   109  1.0800000000000E+00 -2.0811742975475E-01  7.7747557704440E-01
   110  1.0900000000000E+00 -2.0486099219331E-01  6.8975497384762E-01
   111  1.1000000000000E+00 -2.0011598054001E-01  6.0231805933970E-01
   112  1.1100000000000E+00 -1.9404375803897E-01  5.1589181535944E-01
   113  1.1200000000000E+00 -1.8680948568560E-01  4.3119492039469E-01
   114  1.1300000000000E+00 -1.7858024875406E-01  3.4892778274076E-01
   115  1.1400000000000E+00 -1.6952320158675E-01  2.6976281663241E-01
   116  1.1500000000000E+00 -1.5980376367185E-01  1.9433517523112E-01
   117  1.1600000000000E+00 -1.4958389964270E-01  1.2323415120966E-01
   118  1.1700000000000E+00 -1.3902051477484E-01  5.6995447963173E-02
   119  1.1800000000000E+00 -1.2826399590249E-01 -3.9054871997261E-03
   120  1.1900000000000E+00 -1.1745692553501E-01 -5.9058891255671E-02
   121  1.2000000000000E+00 -1.0673299106163E-01 -1.0812474671938E-01
   122  1.2100000000000E+00 -9.6215992608816E-02 -1.5083648605315E-01
   123  1.2200000000000E+00 -8.6017718772335E-02 -1.8701600680076E-01
   124  1.2300000000000E+00 -7.6235800964721E-02 -2.1658841128953E-01
   125  1.2400000000000E+00 -6.6953014180299E-02 -2.3958290133343E-01
   126  1.2500000000000E+00 -5.8236971039408E-02 -2.5613069906750E-01
   127  1.2600000000000E+00 -5.0140087594941E-02 -2.6646121087975E-01
   128  1.2700000000000E+00 -4.2699812426988E-02 -2.7089651235827E-01
   129  1.2800000000000E+00 -3.5939107881690E-02 -2.6984424269792E-01
   130  1.2900000000000E+00 -2.9867167720423E-02 -2.6378902848722E-01
   131  1.3000000000000E+00 -2.4480351098141E-02 -2.5328258655647E-01
   132  1.3100000000000E+00 -1.9763308891347E-02 -2.3893268203008E-01
   133  1.3200000000000E+00 -1.5690274947038E-02 -2.2139114104999E-01
   134  1.3300000000000E+00 -1.2226491897640E-02 -2.0134113731227E-01
   135  1.3400000000000E+00 -9.3297388703913E-03 -1.7948398698132E-01
   136  1.3500000000000E+00 -6.9519267374411E-03 -1.5652569754492E-01
   137  1.3600000000000E+00 -5.0407265153864E-03 -1.3316351653540E-01
   138  1.3700000000000E+00 -3.5411853850141E-03 -1.1007279517762E-01
   139  1.3800000000000E+00 -2.3972948382475E-03 -8.7894396841632E-02
   140  1.3900000000000E+00 -1.5489733941132E-03 -6.7250618028735E-02
   141  1.4000000000000E+00 -9.3954818115944E-04 -4.8697671171222E-02
   142  1.4100000000000E+00 -5.2323591018962E-04 -3.2677028005924E-02
   143  1.4200000000000E+00 -2.5716102619586E-04 -1.9562087851170E-02
   144  1.4300000000000E+00 -1.0280576423528E-04 -9.6508765135252E-03
   145  1.4400000000000E+00 -2.6578142400071E-05 -3.1310501817618E-03
   146  1.4500000000000E+00 -1.3817810833493E-06 -2.5604523652316E-04
   147  1.4600000000000E+00  2.3919113547504E-07  3.2185844334202E-05
   148  1.4700000000000E+00 -3.5841782148782E-08 -4.6253149336389E-06
   149  1.48  0.  0.
   150  1.49  0.  0.
   151  1.50  0.  0.
   152  1.51  0.  0.
   153  1.52  0.  0.
   154  1.53  0.  0.
   155  1.54  0.  0.
   156  1.55  0.  0.
   157  1.56  0.  0.
   158  1.57  0.  0.
   159  1.58  0.  0.
   160  1.59  0.  0.
   161  1.60  0.  0.