Cu    ONCVPSP-4.0.1  r_core=   1.25139   1.45326   1.75986
     29.0000     19.0000      250217    zatom,zion,pspd
     8       2   2     4   600     0    pspcod,pspxc,lmax,lloc,mmax,r2well
  5.99000000  3.50000000  0.00000000    rchrg fchrg qchrg
     2     2     2     0    nproj
     3     1           extension_switch
     4     4     0    nprojso
   0                         4.9812184333078E+00 -3.9176092071445E-01
     1  0.0000000000000E+00  1.2865585263810E-08  3.0516731877595E-08
     2  1.0000000000000E-02  9.3963018369271E-02  1.0685719840503E-02
     3  2.0000000000000E-02  1.8773181649234E-01  2.1657814375011E-02
     4  3.0000000000000E-02  2.8110921940783E-01  3.3193445020398E-02
     5  4.0000000000000E-02  3.7389226064634E-01  4.5551626695395E-02
     6  5.0000000000000E-02  4.6586957783012E-01  5.8964846509398E-02
     7  6.0000000000000E-02  5.5681914832653E-01  7.3631490043272E-02
     8  7.0000000000000E-02  6.4650646264102E-01  8.9709307223141E-02
     9  8.0000000000000E-02  7.3468322036957E-01  1.0731011927145E-01
    10  9.0000000000000E-02  8.2108661813322E-01  1.2649593173586E-01
    11  1.0000000000000E-01  9.0543928141722E-01  1.4727657718627E-01
    12  1.1000000000000E-01  9.8744987312208E-01  1.6960896601522E-01
    13  1.2000000000000E-01  1.0668143914380E+00  1.9339797616925E-01
    14  1.3000000000000E-01  1.1432181489428E+00  2.1849896394294E-01
    15  1.4000000000000E-01  1.2163384041769E+00  2.4472182958355E-01
    16  1.5000000000000E-01  1.2858475969502E+00  2.7183652477862E-01
    17  1.6000000000000E-01  1.3514171198482E+00  2.9957984548465E-01
    18  1.7000000000000E-01  1.4127215413604E+00  3.2766331427321E-01
    19  1.8000000000000E-01  1.4694431812463E+00  3.5578192257647E-01
    20  1.9000000000000E-01  1.5212769266016E+00  3.8362347591095E-01
    21  2.0000000000000E-01  1.5679351679539E+00  4.1087826517063E-01
    22  2.1000000000000E-01  1.6091527288691E+00  4.3724877503262E-01
    23  2.2000000000000E-01  1.6446916601804E+00  4.6245913680625E-01
    24  2.3000000000000E-01  1.6743457711388E+00  4.8626403785120E-01
    25  2.4000000000000E-01  1.6979447745302E+00  5.0845681291332E-01
    26  2.5000000000000E-01  1.7153579309965E+00  5.2887646406699E-01
    27  2.6000000000000E-01  1.7264970892320E+00  5.4741338486381E-01
    28  2.7000000000000E-01  1.7313190331171E+00  5.6401360000395E-01
    29  2.8000000000000E-01  1.7298270638157E+00  5.7868137340521E-01
    30  2.9000000000000E-01  1.7220717639523E+00  5.9148008380966E-01
    31  3.0000000000000E-01  1.7081509116945E+00  6.0253131675801E-01
    32  3.1000000000000E-01  1.6882085343323E+00  6.1201217349127E-01
    33  3.2000000000000E-01  1.6624331131808E+00  6.2015084964814E-01
    34  3.3000000000000E-01  1.6310549737294E+00  6.2722058802899E-01
    35  3.4000000000000E-01  1.5943429163089E+00  6.3353215871436E-01
    36  3.5000000000000E-01  1.5526001625622E+00  6.3942506503541E-01
    37  3.6000000000000E-01  1.5061597111230E+00  6.4525771396271E-01
    38  3.7000000000000E-01  1.4553792116179E+00  6.5139682320896E-01
    39  3.8000000000000E-01  1.4006354789737E+00  6.5820636369491E-01
    40  3.9000000000000E-01  1.3423187796463E+00  6.6603635416763E-01
    41  4.0000000000000E-01  1.2808270275206E+00  6.7521183406856E-01
    42  4.1000000000000E-01  1.2165600296561E+00  6.8602234084975E-01
    43  4.2000000000000E-01  1.1499139206898E+00  6.9871220870733E-01
    44  4.3000000000000E-01  1.0812759195631E+00  7.1347198727894E-01
    45  4.4000000000000E-01  1.0110195334271E+00  7.3043125163516E-01
    46  4.5000000000000E-01  9.3950032132535E-01  7.4965303952905E-01
    47  4.6000000000000E-01  8.6705231485987E-01  7.7113010923964E-01
    48  4.7000000000000E-01  7.9398517492272E-01  7.9478316254964E-01
    49  4.8000000000000E-01  7.2058214320128E-01  8.2046112372149E-01
    50  4.9000000000000E-01  6.4709882508349E-01  8.4794350821430E-01
    51  5.0000000000000E-01  5.7376281740038E-01  8.7694485587017E-01
    52  5.1000000000000E-01  5.0077417077742E-01  9.0712114401722E-01
    53  5.2000000000000E-01  4.2830665287481E-01  9.3807803804308E-01
    54  5.3000000000000E-01  3.5650975613072E-01  9.6938078212549E-01
    55  5.4000000000000E-01  2.8551137241529E-01  1.0005654825442E+00
    56  5.5000000000000E-01  2.1542103785495E-01  1.0311514918125E+00
    57  5.6000000000000E-01  1.4633363454522E-01  1.0606545650809E+00
    58  5.7000000000000E-01  7.8333422415815E-02  1.0886004320233E+00
    59  5.8000000000000E-01  1.1498264544575E-02  1.1145384086272E+00
    60  5.9000000000000E-01 -5.4096096955041E-02  1.1380546646611E+00
    61  6.0000000000000E-01 -1.1837185951906E-01  1.1587847644676E+00
    62  6.1000000000000E-01 -1.8124521630813E-01  1.1764251112678E+00
    63  6.2000000000000E-01 -2.4262278707645E-01  1.1907429481737E+00
    64  6.3000000000000E-01 -3.0239855086544E-01  1.2015846021363E+00
    65  6.4000000000000E-01 -3.6045139395855E-01  1.2088816993636E+00
    66  6.5000000000000E-01 -4.1664336945786E-01  1.2126551313110E+00
    67  6.6000000000000E-01 -4.7081874482513E-01  1.2130166079336E+00
    68  6.7000000000000E-01 -5.2280389129240E-01  1.2101676980334E+00
    69  6.8000000000000E-01 -5.7240804478481E-01  1.2043963236007E+00
    70  6.9000000000000E-01 -6.1942494256495E-01  1.1960707442745E+00
    71  7.0000000000000E-01 -6.6363531389067E-01  1.1856311375909E+00
    72  7.1000000000000E-01 -7.0481017729386E-01  1.1735789486491E+00
    73  7.2000000000000E-01 -7.4271487234295E-01  1.1604642473553E+00
    74  7.3000000000000E-01 -7.7711373064856E-01  1.1468713906829E+00
    75  7.4000000000000E-01 -8.0777527006226E-01  1.1334033397309E+00
    76  7.5000000000000E-01 -8.3447777810934E-01  1.1206650252516E+00
    77  7.6000000000000E-01 -8.5701513621715E-01  1.1092461894190E+00
    78  7.7000000000000E-01 -8.7520272569302E-01  1.0997041548609E+00
    79  7.8000000000000E-01 -8.8888325001410E-01  1.0925469835677E+00
    80  7.9000000000000E-01 -8.9793230604676E-01  1.0882174877250E+00
    81  8.0000000000000E-01 -9.0226353942895E-01  1.0870785416243E+00
    82  8.1000000000000E-01 -9.0183322651613E-01  1.0894001187167E+00
    83  8.2000000000000E-01 -8.9664413687902E-01  1.0953484410844E+00
    84  8.3000000000000E-01 -8.8674854609376E-01  1.1049775808916E+00
    85  8.4000000000000E-01 -8.7225028811525E-01  1.1182237958527E+00
    86  8.5000000000000E-01 -8.5330575939512E-01  1.1349028147809E+00
    87  8.6000000000000E-01 -8.3012381252688E-01  1.1547102164833E+00
    88  8.7000000000000E-01 -8.0296450492173E-01  1.1772249674596E+00
    89  8.8000000000000E-01 -7.7213669712238E-01  1.2019161030228E+00
    90  8.9000000000000E-01 -7.3799452509199E-01  1.2281524546674E+00
    91  9.0000000000000E-01 -7.0093280038263E-01  1.2552152459087E+00
    92  9.1000000000000E-01 -6.6138142070641E-01  1.2823133015185E+00
    93  9.2000000000000E-01 -6.1979890032658E-01  1.3086005431767E+00
    94  9.3000000000000E-01 -5.7666515412561E-01  1.3331953799793E+00
    95  9.4000000000000E-01 -5.3247369051129E-01  1.3552015467844E+00
    96  9.5000000000000E-01 -4.8772338589316E-01  1.3737298986017E+00
    97  9.6000000000000E-01 -4.4291002679186E-01  1.3879206364424E+00
    98  9.7000000000000E-01 -3.9851781433381E-01  1.3969654202393E+00
    99  9.8000000000000E-01 -3.5501102965510E-01  1.4001288183124E+00
   100  9.9000000000000E-01 -3.1282605743633E-01  1.3967685506995E+00
   101  1.0000000000000E+00 -2.7236395839342E-01  1.3863540054887E+00
   102  1.0100000000000E+00 -2.3398377018067E-01  1.3684825426338E+00
   103  1.0200000000000E+00 -1.9799670006070E-01  1.3428931478917E+00
   104  1.0300000000000E+00 -1.6466135222819E-01  1.3094770594016E+00
   105  1.0400000000000E+00 -1.3418010835845E-01  1.2682850595470E+00
   106  1.0500000000000E+00 -1.0669675235866E-01  1.2195312034950E+00
   107  1.0600000000000E+00 -8.2295400100470E-02  1.1635928412961E+00
   108  1.0700000000000E+00 -6.1000762956981E-02  1.1010068802975E+00
   109  1.0800000000000E+00 -4.2779740912904E-02  1.0324623270483E+00
   110  1.0900000000000E+00 -2.7544307876106E-02  9.5878924006133E-01
   111  1.1000000000000E+00 -1.5155619335840E-02  8.8094431471044E-01
   112  1.1100000000000E+00 -5.4292415352199E-03  7.9999340685713E-01
   113  1.1200000000000E+00  1.8586272320819E-03  7.1709138003005E-01
   114  1.1300000000000E+00  6.9640981806267E-03  6.3345973063673E-01
   115  1.1400000000000E+00  1.0167873115486E-02  5.5036250424562E-01
   116  1.1500000000000E+00  1.1767059191834E-02  4.6908106262975E-01
   117  1.1600000000000E+00  1.2066724066065E-02  3.9088829408501E-01
   118  1.1700000000000E+00  1.1371409867686E-02  3.1702288676572E-01
   119  1.1800000000000E+00  9.9767865545752E-03  2.4866420109368E-01
   120  1.1900000000000E+00  8.1612855979964E-03  1.8690766527419E-01
   121  1.2000000000000E+00  6.1653817755212E-03  1.3271427712160E-01
   122  1.2100000000000E+00  4.2131436680384E-03  8.6946581246778E-02
   123  1.2200000000000E+00  2.5013385259422E-03  5.0341646810112E-02
   124  1.2300000000000E+00  1.1766340464430E-03  2.3457825239023E-02
   125  1.2400000000000E+00  3.2998526756951E-04  6.6145868599406E-03
   126  1.2500000000000E+00  1.0033333454161E-05  2.0554658462978E-04
   127  1.2600000000000E+00  1.1274285464317E-06  2.2902478974955E-05
   128  1.2700000000000E+00 -3.7262956136444E-07 -7.5195864219014E-06
   129  1.28  0.  0.
   130  1.29  0.  0.
   131  1.30  0.  0.
   132  1.31  0.  0.
   133  1.32  0.  0.
   134  1.33  0.  0.
   135  1.34  0.  0.
   136  1.35  0.  0.
   137  1.36  0.  0.
   138  1.37  0.  0.
   139  1.38  0.  0.
   140  1.39  0.  0.
   141  1.40  0.  0.
   142  1.41  0.  0.
   143  1.42  0.  0.
   144  1.43  0.  0.
   145  1.44  0.  0.
   146  1.45  0.  0.
   147  1.46  0.  0.
   148  1.47  0.  0.
   149  1.48  0.  0.
   150  1.49  0.  0.
   151  1.50  0.  0.
   152  1.51  0.  0.
   153  1.52  0.  0.
   154  1.53  0.  0.
   155  1.54  0.  0.
   156  1.55  0.  0.
   157  1.56  0.  0.
   158  1.57  0.  0.
   159  1.58  0.  0.
   160  1.59  0.  0.
   161  1.60  0.  0.
   162  1.61  0.  0.
   163  1.62  0.  0.
   164  1.63  0.  0.
   165  1.64  0.  0.
   166  1.65  0.  0.
   167  1.66  0.  0.
   168  1.67  0.  0.
   169  1.68  0.  0.
   170  1.69  0.  0.
   171  1.70  0.  0.
   172  1.71  0.  0.
   173  1.72  0.  0.
   174  1.73  0.  0.
   175  1.74  0.  0.
   176  1.75  0.  0.
   177  1.76  0.  0.
   178  1.77  0.  0.
   179  1.78  0.  0.
   180  1.79  0.  0.
   181  1.80  0.  0.
   182  1.81  0.  0.
   183  1.82  0.  0.
   184  1.83  0.  0.
   185  1.84  0.  0.
   186  1.85  0.  0.
   187  1.86  0.  0.
   188  1.87  0.  0.
   189  1.88  0.  0.
   190  1.89  0.  0.
   191  1.90  0.  0.
   192  1.91  0.  0.
   193  1.92  0.  0.
   194  1.93  0.  0.
   195  1.94  0.  0.
   196  1.95  0.  0.
   197  1.96  0.  0.
   198  1.97  0.  0.
   199  1.98  0.  0.
   200  1.99  0.  0.
   201  2.00  0.  0.
   202  2.01  0.  0.
   203  2.02  0.  0.
   204  2.03  0.  0.
   205  2.04  0.  0.
   206  2.05  0.  0.
   207  2.06  0.  0.
   208  2.07  0.  0.
   209  2.08  0.  0.
   210  2.09  0.  0.
   211  2.10  0.  0.
   212  2.11  0.  0.
   213  2.12  0.  0.
   214  2.13  0.  0.
   215  2.14  0.  0.
   216  2.15  0.  0.
   217  2.16  0.  0.
   218  2.17  0.  0.
   219  2.18  0.  0.
   220  2.19  0.  0.
   221  2.20  0.  0.
   222  2.21  0.  0.
   223  2.22  0.  0.
   224  2.23  0.  0.
   225  2.24  0.  0.
   226  2.25  0.  0.
   227  2.26  0.  0.
   228  2.27  0.  0.
   229  2.28  0.  0.
   230  2.29  0.  0.
   231  2.30  0.  0.
   232  2.31  0.  0.
   233  2.32  0.  0.
   234  2.33  0.  0.
   235  2.34  0.  0.
   236  2.35  0.  0.
   237  2.36  0.  0.
   238  2.37  0.  0.
   239  2.38  0.  0.
   240  2.39  0.  0.
   241  2.40  0.  0.
   242  2.41  0.  0.
   243  2.42  0.  0.
   244  2.43  0.  0.
   245  2.44  0.  0.
   246  2.45  0.  0.
   247  2.46  0.  0.
   248  2.47  0.  0.
   249  2.48  0.  0.
   250  2.49  0.  0.
   251  2.50  0.  0.
   252  2.51  0.  0.
   253  2.52  0.  0.
   254  2.53  0.  0.
   255  2.54  0.  0.
   256  2.55  0.  0.
   257  2.56  0.  0.
   258  2.57  0.  0.
   259  2.58  0.  0.
   260  2.59  0.  0.
   261  2.60  0.  0.
   262  2.61  0.  0.
   263  2.62  0.  0.
   264  2.63  0.  0.
   265  2.64  0.  0.
   266  2.65  0.  0.
   267  2.66  0.  0.
   268  2.67  0.  0.
   269  2.68  0.  0.
   270  2.69  0.  0.
   271  2.70  0.  0.
   272  2.71  0.  0.
   273  2.72  0.  0.
   274  2.73  0.  0.
   275  2.74  0.  0.
   276  2.75  0.  0.
   277  2.76  0.  0.
   278  2.77  0.  0.
   279  2.78  0.  0.
   280  2.79  0.  0.
   281  2.80  0.  0.
   282  2.81  0.  0.
   283  2.82  0.  0.
   284  2.83  0.  0.
   285  2.84  0.  0.
   286  2.85  0.  0.
   287  2.86  0.  0.
   288  2.87  0.  0.
   289  2.88  0.  0.
   290  2.89  0.  0.
   291  2.90  0.  0.
   292  2.91  0.  0.
   293  2.92  0.  0.
   294  2.93  0.  0.
   295  2.94  0.  0.
   296  2.95  0.  0.
   297  2.96  0.  0.
   298  2.97  0.  0.
   299  2.98  0.  0.
   300  2.99  0.  0.
   301  3.00  0.  0.
   302  3.01  0.  0.
   303  3.02  0.  0.
   304  3.03  0.  0.
   305  3.04  0.  0.
   306  3.05  0.  0.
   307  3.06  0.  0.
   308  3.07  0.  0.
   309  3.08  0.  0.
   310  3.09  0.  0.
   311  3.10  0.  0.
   312  3.11  0.  0.
   313  3.12  0.  0.
   314  3.13  0.  0.
   315  3.14  0.  0.
   316  3.15  0.  0.
   317  3.16  0.  0.
   318  3.17  0.  0.
   319  3.18  0.  0.
   320  3.19  0.  0.
   321  3.20  0.  0.
   322  3.21  0.  0.
   323  3.22  0.  0.
   324  3.23  0.  0.
   325  3.24  0.  0.
   326  3.25  0.  0.
   327  3.26  0.  0.
   328  3.27  0.  0.
   329  3.28  0.  0.
   330  3.29  0.  0.
   331  3.30  0.  0.
   332  3.31  0.  0.
   333  3.32  0.  0.
   334  3.33  0.  0.
   335  3.34  0.  0.
   336  3.35  0.  0.
   337  3.36  0.  0.
   338  3.37  0.  0.
   339  3.38  0.  0.
   340  3.39  0.  0.
   341  3.40  0.  0.
   342  3.41  0.  0.
   343  3.42  0.  0.
   344  3.43  0.  0.
   345  3.44  0.  0.
   346  3.45  0.  0.
   347  3.46  0.  0.
   348  3.47  0.  0.
   349  3.48  0.  0.
   350  3.49  0.  0.
   351  3.50  0.  0.
   352  3.51  0.  0.
   353  3.52  0.  0.
   354  3.53  0.  0.
   355  3.54  0.  0.
   356  3.55  0.  0.
   357  3.56  0.  0.
   358  3.57  0.  0.
   359  3.58  0.  0.
   360  3.59  0.  0.
   361  3.60  0.  0.
   362  3.61  0.  0.
   363  3.62  0.  0.
   364  3.63  0.  0.
   365  3.64  0.  0.
   366  3.65  0.  0.
   367  3.66  0.  0.
   368  3.67  0.  0.
   369  3.68  0.  0.
   370  3.69  0.  0.
   371  3.70  0.  0.
   372  3.71  0.  0.
   373  3.72  0.  0.
   374  3.73  0.  0.
   375  3.74  0.  0.
   376  3.75  0.  0.
   377  3.76  0.  0.
   378  3.77  0.  0.
   379  3.78  0.  0.
   380  3.79  0.  0.
   381  3.80  0.  0.
   382  3.81  0.  0.
   383  3.82  0.  0.
   384  3.83  0.  0.
   385  3.84  0.  0.
   386  3.85  0.  0.
   387  3.86  0.  0.
   388  3.87  0.  0.
   389  3.88  0.  0.
   390  3.89  0.  0.
   391  3.90  0.  0.
   392  3.91  0.  0.
   393  3.92  0.  0.
   394  3.93  0.  0.
   395  3.94  0.  0.
   396  3.95  0.  0.
   397  3.96  0.  0.
   398  3.97  0.  0.
   399  3.98  0.  0.
   400  3.99  0.  0.
   401  4.00  0.  0.
   402  4.01  0.  0.
   403  4.02  0.  0.
   404  4.03  0.  0.
   405  4.04  0.  0.
   406  4.05  0.  0.
   407  4.06  0.  0.
   408  4.07  0.  0.
   409  4.08  0.  0.
   410  4.09  0.  0.
   411  4.10  0.  0.
   412  4.11  0.  0.
   413  4.12  0.  0.
   414  4.13  0.  0.
   415  4.14  0.  0.
   416  4.15  0.  0.
   417  4.16  0.  0.
   418  4.17  0.  0.
   419  4.18  0.  0.
   420  4.19  0.  0.
   421  4.20  0.  0.
   422  4.21  0.  0.
   423  4.22  0.  0.
   424  4.23  0.  0.
   425  4.24  0.  0.
   426  4.25  0.  0.
   427  4.26  0.  0.
   428  4.27  0.  0.
   429  4.28  0.  0.
   430  4.29  0.  0.
   431  4.30  0.  0.
   432  4.31  0.  0.
   433  4.32  0.  0.
   434  4.33  0.  0.
   435  4.34  0.  0.
   436  4.35  0.  0.
   437  4.36  0.  0.
   438  4.37  0.  0.
   439  4.38  0.  0.
   440  4.39  0.  0.
   441  4.40  0.  0.
   442  4.41  0.  0.
   443  4.42  0.  0.
   444  4.43  0.  0.
   445  4.44  0.  0.
   446  4.45  0.  0.
   447  4.46  0.  0.
   448  4.47  0.  0.
   449  4.48  0.  0.
   450  4.49  0.  0.
   451  4.50  0.  0.
   452  4.51  0.  0.
   453  4.52  0.  0.
   454  4.53  0.  0.
   455  4.54  0.  0.
   456  4.55  0.  0.
   457  4.56  0.  0.
   458  4.57  0.  0.
   459  4.58  0.  0.
   460  4.59  0.  0.
   461  4.60  0.  0.
   462  4.61  0.  0.
   463  4.62  0.  0.
   464  4.63  0.  0.
   465  4.64  0.  0.
   466  4.65  0.  0.
   467  4.66  0.  0.
   468  4.67  0.  0.
   469  4.68  0.  0.
   470  4.69  0.  0.
   471  4.70  0.  0.
   472  4.71  0.  0.
   473  4.72  0.  0.
   474  4.73  0.  0.
   475  4.74  0.  0.
   476  4.75  0.  0.
   477  4.76  0.  0.
   478  4.77  0.  0.
   479  4.78  0.  0.
   480  4.79  0.  0.
   481  4.80  0.  0.
   482  4.81  0.  0.
   483  4.82  0.  0.
   484  4.83  0.  0.
   485  4.84  0.  0.
   486  4.85  0.  0.
   487  4.86  0.  0.
   488  4.87  0.  0.
   489  4.88  0.  0.
   490  4.89  0.  0.
   491  4.90  0.  0.
   492  4.91  0.  0.
   493  4.92  0.  0.
   494  4.93  0.  0.
   495  4.94  0.  0.
   496  4.95  0.  0.
   497  4.96  0.  0.
   498  4.97  0.  0.
   499  4.98  0.  0.
   500  4.99  0.  0.
   501  5.00  0.  0.
   502  5.01  0.  0.
   503  5.02  0.  0.
   504  5.03  0.  0.
   505  5.04  0.  0.
   506  5.05  0.  0.
   507  5.06  0.  0.
   508  5.07  0.  0.
   509  5.08  0.  0.
   510  5.09  0.  0.
   511  5.10  0.  0.
   512  5.11  0.  0.
   513  5.12  0.  0.
   514  5.13  0.  0.
   515  5.14  0.  0.
   516  5.15  0.  0.
   517  5.16  0.  0.
   518  5.17  0.  0.
   519  5.18  0.  0.
   520  5.19  0.  0.
   521  5.20  0.  0.
   522  5.21  0.  0.
   523  5.22  0.  0.
   524  5.23  0.  0.
   525  5.24  0.  0.
   526  5.25  0.  0.
   527  5.26  0.  0.
   528  5.27  0.  0.
   529  5.28  0.  0.
   530  5.29  0.  0.
   531  5.30  0.  0.
   532  5.31  0.  0.
   533  5.32  0.  0.
   534  5.33  0.  0.
   535  5.34  0.  0.
   536  5.35  0.  0.
   537  5.36  0.  0.
   538  5.37  0.  0.
   539  5.38  0.  0.
   540  5.39  0.  0.
   541  5.40  0.  0.
   542  5.41  0.  0.
   543  5.42  0.  0.
   544  5.43  0.  0.
   545  5.44  0.  0.
   546  5.45  0.  0.
   547  5.46  0.  0.
   548  5.47  0.  0.
   549  5.48  0.  0.
   550  5.49  0.  0.
   551  5.50  0.  0.
   552  5.51  0.  0.
   553  5.52  0.  0.
   554  5.53  0.  0.
   555  5.54  0.  0.
   556  5.55  0.  0.
   557  5.56  0.  0.
   558  5.57  0.  0.
   559  5.58  0.  0.
   560  5.59  0.  0.
   561  5.60  0.  0.
   562  5.61  0.  0.
   563  5.62  0.  0.
   564  5.63  0.  0.
   565  5.64  0.  0.
   566  5.65  0.  0.
   567  5.66  0.  0.
   568  5.67  0.  0.
   569  5.68  0.  0.
   570  5.69  0.  0.
   571  5.70  0.  0.
   572  5.71  0.  0.
   573  5.72  0.  0.
   574  5.73  0.  0.
   575  5.74  0.  0.
   576  5.75  0.  0.
   577  5.76  0.  0.
   578  5.77  0.  0.
   579  5.78  0.  0.
   580  5.79  0.  0.
   581  5.80  0.  0.
   582  5.81  0.  0.
   583  5.82  0.  0.
   584  5.83  0.  0.
   585  5.84  0.  0.
   586  5.85  0.  0.
   587  5.86  0.  0.
   588  5.87  0.  0.
   589  5.88  0.  0.
   590  5.89  0.  0.
   591  5.90  0.  0.
   592  5.91  0.  0.
   593  5.92  0.  0.
   594  5.93  0.  0.
   595  5.94  0.  0.
   596  5.95  0.  0.
   597  5.96  0.  0.
   598  5.97  0.  0.
   599  5.98  0.  0.
   600  5.99  0.  0.
   1                        -3.4909101938833E+00 -7.2119118916029E-01
     1  0.0000000000000E+00 -1.9338662060608E-09  1.1466845098451E-08
     2  1.0000000000000E-02  1.4248960993842E-03 -7.5701037165303E-04
     3  2.0000000000000E-02  5.6963761793454E-03 -3.0320121606312E-03
     4  3.0000000000000E-02  1.2804780399448E-02 -6.8366614163351E-03
     5  4.0000000000000E-02  2.2733892928088E-02 -1.2189538742396E-02
     6  5.0000000000000E-02  3.5460771928086E-02 -1.9114904742176E-02
     7  6.0000000000000E-02  5.0955519698216E-02 -2.7641006341404E-02
     8  7.0000000000000E-02  6.9181000896459E-02 -3.7797981235501E-02
     9  8.0000000000000E-02  9.0092518704608E-02 -4.9615419176005E-02
    10  9.0000000000000E-02  1.1363746048982E-01 -6.3119648817103E-02
    11  1.0000000000000E-01  1.3975492593604E-01 -7.8330827142590E-02
    12  1.1000000000000E-01  1.6837535172136E-01 -9.5259914871469E-02
    13  1.2000000000000E-01  1.9942014757927E-01 -1.1390562553560E-01
    14  1.3000000000000E-01  2.3280135898197E-01 -1.3425143801826E-01
    15  1.4000000000000E-01  2.6842137171142E-01 -1.5626276217955E-01
    16  1.5000000000000E-01  3.0617267323610E-01 -1.7988434476404E-01
    17  1.6000000000000E-01  3.4593768509342E-01 -2.0503799813767E-01
    18  1.7000000000000E-01  3.8758867940521E-01 -2.3162072763588E-01
    19  1.8000000000000E-01  4.3098779124861E-01 -2.5950332457672E-01
    20  1.9000000000000E-01  4.7598713689796E-01 -2.8852948150369E-01
    21  2.0000000000000E-01  5.2242904598216E-01 -3.1851547421784E-01
    22  2.1000000000000E-01  5.7014641341123E-01 -3.4925044192103E-01
    23  2.2000000000000E-01  6.1896317456317E-01 -3.8049728263635E-01
    24  2.3000000000000E-01  6.6869490474218E-01 -4.1199416633599E-01
    25  2.4000000000000E-01  7.1914954137707E-01 -4.4345665324614E-01
    26  2.5000000000000E-01  7.7012822488234E-01 -4.7458038997343E-01
    27  2.6000000000000E-01  8.2142625161140E-01 -5.0504434177102E-01
    28  2.7000000000000E-01  8.7283412994939E-01 -5.3451450578326E-01
    29  2.8000000000000E-01  9.2413872837546E-01 -5.6264803781159E-01
    30  2.9000000000000E-01  9.7512450232277E-01 -5.8909771433541E-01
    31  3.0000000000000E-01  1.0255747849244E+00 -6.1351664247519E-01
    32  3.1000000000000E-01  1.0752731252945E+00 -6.3556312353191E-01
    33  3.2000000000000E-01  1.1240046568916E+00 -6.5490557086484E-01
    34  3.3000000000000E-01  1.1715574777654E+00 -6.7122738031238E-01
    35  3.4000000000000E-01  1.2177240241244E+00 -6.8423165119919E-01
    36  3.5000000000000E-01  1.2623024186801E+00 -6.9364565823090E-01
    37  3.6000000000000E-01  1.3050977756305E+00 -6.9922497921887E-01
    38  3.7000000000000E-01  1.3459234449251E+00 -7.0075719051088E-01
    39  3.8000000000000E-01  1.3846021795952E+00 -6.9806505107966E-01
    40  3.9000000000000E-01  1.4209672114047E+00 -6.9100910723887E-01
    41  4.0000000000000E-01  1.4548632218436E+00 -6.7948966266518E-01
    42  4.1000000000000E-01  1.4861471975149E+00 -6.6344807251317E-01
    43  4.2000000000000E-01  1.5146891611989E+00 -6.4286733558750E-01
    44  4.3000000000000E-01  1.5403727722707E+00 -6.1777197442610E-01
    45  4.4000000000000E-01  1.5630957926424E+00 -5.8822720937211E-01
    46  4.5000000000000E-01  1.5827704169386E+00 -5.5433744887913E-01
    47  4.6000000000000E-01  1.5993234681342E+00 -5.1624413401577E-01
    48  4.7000000000000E-01  1.6126964623353E+00 -4.7412299002259E-01
    49  4.8000000000000E-01  1.6228455486960E+00 -4.2818075146425E-01
    50  4.9000000000000E-01  1.6297413326004E+00 -3.7865143966533E-01
    51  5.0000000000000E-01  1.6333685921348E+00 -3.2579228141454E-01
    52  5.1000000000000E-01  1.6337258994949E+00 -2.6987936610207E-01
    53  5.2000000000000E-01  1.6308251602807E+00 -2.1120314430000E-01
    54  5.3000000000000E-01  1.6246910845922E+00 -1.5006387414413E-01
    55  5.4000000000000E-01  1.6153606044368E+00 -8.6767122624642E-02
    56  5.5000000000000E-01  1.6028822521827E+00 -2.1619426997798E-02
    57  5.6000000000000E-01  1.5873155146328E+00  4.5075782981500E-02
    58  5.7000000000000E-01  1.5687301767669E+00  1.1302190835322E-01
    59  5.8000000000000E-01  1.5472056683137E+00  1.8193246554736E-01
    60  5.9000000000000E-01  1.5228304251024E+00  2.5153385965884E-01
    61  6.0000000000000E-01  1.4957012756265E+00  3.2156758729011E-01
    62  6.1000000000000E-01  1.4659228614918E+00  3.9179182495178E-01
    63  6.2000000000000E-01  1.4336070984404E+00  4.6198237534879E-01
    64  6.3000000000000E-01  1.3988726825150E+00  5.3193296105681E-01
    65  6.4000000000000E-01  1.3618446437016E+00  6.0145487269380E-01
    66  6.5000000000000E-01  1.3226539471254E+00  6.7037599627975E-01
    67  6.6000000000000E-01  1.2814371396392E+00  7.3853926161160E-01
    68  6.7000000000000E-01  1.2383360374919E+00  8.0580056972862E-01
    69  6.8000000000000E-01  1.1934974487632E+00  8.7202627248241E-01
    70  6.9000000000000E-01  1.1470729224549E+00  9.3709029046463E-01
    71  7.0000000000000E-01  1.0992185145832E+00  1.0008709667268E+00
    72  7.1000000000000E-01  1.0500945603811E+00  1.0632477625352E+00
    73  7.2000000000000E-01  9.9986544081988E-01  1.1240979075864E+00
    74  7.3000000000000E-01  9.4869933113454E-01  1.1832931204598E+00
    75  7.4000000000000E-01  8.9676791890391E-01  1.2406965154796E+00
    76  7.5000000000000E-01  8.4424607951037E-01  1.2961598095288E+00
    77  7.6000000000000E-01  7.9131149748108E-01  1.3495209367224E+00
    78  7.7000000000000E-01  7.3814422328894E-01  1.4006021702838E+00
    79  7.8000000000000E-01  6.8492615664302E-01  1.4492088396431E+00
    80  7.9000000000000E-01  6.3184044909843E-01  1.4951287169121E+00
    81  8.0000000000000E-01  5.7907082092293E-01  1.5381321307828E+00
    82  8.1000000000000E-01  5.2680078952543E-01  1.5779728479068E+00
    83  8.2000000000000E-01  4.7521280932338E-01  1.6143897423394E+00
    84  8.3000000000000E-01  4.2448732564081E-01  1.6471092531297E+00
    85  8.4000000000000E-01  3.7480174801810E-01  1.6758486090944E+00
    86  8.5000000000000E-01  3.2632935110894E-01  1.7003197787283E+00
    87  8.6000000000000E-01  2.7923811406698E-01  1.7202340825996E+00
    88  8.7000000000000E-01  2.3368951191123E-01  1.7353073859681E+00
    89  8.8000000000000E-01  1.8983727473616E-01  1.7452657712530E+00
    90  8.9000000000000E-01  1.4782613273068E-01  1.7498515738314E+00
    91  9.0000000000000E-01  1.0779056673014E-01  1.7488296509225E+00
    92  9.1000000000000E-01  6.9853585389527E-02  1.7419937423719E+00
    93  9.2000000000000E-01  3.4125550989175E-02  1.7291727743525E+00
    94  9.3000000000000E-01  7.0307632814796E-04  1.7102369525771E+00
    95  9.4000000000000E-01 -3.0331984901688E-02  1.6851034907808E+00
    96  9.5000000000000E-01 -5.8913432451148E-02  1.6537418230767E+00
    97  9.6000000000000E-01 -8.4991477857012E-02  1.6161781553337E+00
    98  9.7000000000000E-01 -1.0853334771499E-01  1.5724992209130E+00
    99  9.8000000000000E-01 -1.2952371492163E-01  1.5228551197702E+00
   100  9.9000000000000E-01 -1.4796494350357E-01  1.4674611368559E+00
   101  1.0000000000000E+00 -1.6387713564705E-01  1.4065984556021E+00
   102  1.0100000000000E+00 -1.7729797289469E-01  1.3406137046816E+00
   103  1.0200000000000E+00 -1.8828234712641E-01  1.2699173007082E+00
   104  1.0300000000000E+00 -1.9690178081356E-01  1.1949805756118E+00
   105  1.0400000000000E+00 -2.0324364004658E-01  1.1163317044795E+00
   106  1.0500000000000E+00 -2.0741014790545E-01  1.0345504771405E+00
   107  1.0600000000000E+00 -2.0951720978252E-01  9.5026198408256E-01
   108  1.0700000000000E+00 -2.0969306617823E-01  8.6412931372771E-01
   109  1.0800000000000E+00 -2.0807679220375E-01  7.7684538318069E-01
   110  1.0900000000000E+00 -2.0481666643341E-01  6.8912404756498E-01
   111  1.1000000000000E+00 -2.0006843478972E-01  6.0169065352051E-01
   112  1.1100000000000E+00 -1.9399349773618E-01  5.1527221981842E-01
   113  1.1200000000000E+00 -1.8675705112818E-01  4.3058744187178E-01
   114  1.1300000000000E+00 -1.7852621258711E-01  3.4833672688274E-01
   115  1.1400000000000E+00 -1.6946816616203E-01  2.6919247210056E-01
   116  1.1500000000000E+00 -1.5974835830515E-01  1.9378980001307E-01
   117  1.1600000000000E+00 -1.4952877779521E-01  1.2271796115320E-01
   118  1.1700000000000E+00 -1.3896635118422E-01  5.6512607490710E-02
   119  1.1800000000000E+00 -1.2821148368905E-01 -4.3508722960567E-03
   120  1.1900000000000E+00 -1.1740677330790E-01 -5.9462779093220E-02
   121  1.2000000000000E+00 -1.0668592004862E-01 -1.0848316287890E-01
   122  1.2100000000000E+00 -9.6172733818979E-02 -1.5114552541040E-01
   123  1.2200000000000E+00 -8.5979010058905E-02 -1.8727183120376E-01
   124  1.2300000000000E+00 -7.6202383986905E-02 -2.1678724319604E-01
   125  1.2400000000000E+00 -6.6925631419659E-02 -2.3972101640999E-01
   126  1.2500000000000E+00 -5.8216362897404E-02 -2.5620441841623E-01
   127  1.2600000000000E+00 -5.0126989582319E-02 -2.6646689331051E-01
   128  1.2700000000000E+00 -4.2694952453876E-02 -2.7083054711661E-01
   129  1.2800000000000E+00 -3.5943203655566E-02 -2.6970304304738E-01
   130  1.2900000000000E+00 -2.9880924257656E-02 -2.6356902652311E-01
   131  1.3000000000000E+00 -2.4504458352163E-02 -2.5298022960829E-01
   132  1.3100000000000E+00 -1.9798439513119E-02 -2.3854443085197E-01
   133  1.3200000000000E+00 -1.5737105333756E-02 -2.2091327581649E-01
   134  1.3300000000000E+00 -1.2286982455750E-02 -2.0075898127057E-01
   135  1.3400000000000E+00 -9.3879932477437E-03 -1.7893272981977E-01
   136  1.3500000000000E+00 -6.9888448185061E-03 -1.5616517782714E-01
   137  1.3600000000000E+00 -5.0723577183535E-03 -1.3285718311722E-01
   138  1.3700000000000E+00 -3.5663260301537E-03 -1.0982970047344E-01
   139  1.3800000000000E+00 -2.4167588028381E-03 -8.7706588923880E-02
   140  1.3900000000000E+00 -1.5634766424926E-03 -6.7110992861325E-02
   141  1.4000000000000E+00 -9.4981647423801E-04 -4.8599063102920E-02
   142  1.4100000000000E+00 -5.2999879370107E-04 -3.2612261420611E-02
   143  1.4200000000000E+00 -2.6114980975179E-04 -1.9524004099730E-02
   144  1.4300000000000E+00 -1.0475173864506E-04 -9.6323596718737E-03
   145  1.4400000000000E+00 -2.7204822139104E-05 -3.1251102697793E-03
   146  1.4500000000000E+00 -1.4329290652178E-06 -2.5556561946553E-04
   147  1.4600000000000E+00  2.4555850445865E-07  3.2125208189956E-05
   148  1.4700000000000E+00 -3.6758910186166E-08 -4.6165883470830E-06
   149  1.48  0.  0.
   150  1.49  0.  0.
   151  1.50  0.  0.
   152  1.51  0.  0.
   153  1.52  0.  0.
   154  1.53  0.  0.
   155  1.54  0.  0.
   156  1.55  0.  0.
   157  1.56  0.  0.
   158  1.57  0.  0.
   159  1.58  0.  0.
   160  1.59  0.  0.
   161  1.60  0.  0.