Cu    ONCVPSP-4.0.1  r_core=   1.25139   1.45326   1.75986
     29.0000     19.0000      231019    zatom,zion,pspd
     8       2   2     4   600     0    pspcod,pspxc,lmax,lloc,mmax,r2well
  5.99000000  3.50000000  0.00000000    rchrg fchrg qchrg
     2     2     2     0     0    nproj
     1     1           extension_switch
   0                         4.9785870555735E+00 -3.9279716259955E-01
     1  0.0000000000000E+00  1.2881725464098E-08  3.0414393517586E-08
     2  1.0000000000000E-02  9.3965606569457E-02  1.0699111422602E-02
     3  2.0000000000000E-02  1.8773704440767E-01  2.1683919882527E-02
     4  3.0000000000000E-02  2.8111718560688E-01  3.3230938299227E-02
     5  4.0000000000000E-02  3.7390310197707E-01  4.5598590479971E-02
     6  5.0000000000000E-02  4.6588345662524E-01  5.9018856197817E-02
     7  6.0000000000000E-02  5.5683623601654E-01  7.3689721173216E-02
     8  7.0000000000000E-02  6.4652692032590E-01  8.9768663188981E-02
     9  8.0000000000000E-02  7.3470717700702E-01  1.0736737515395E-01
    10  9.0000000000000E-02  8.2111414708882E-01  1.2654788956944E-01
    11  1.0000000000000E-01  9.0547037618740E-01  1.4732022758107E-01
    12  1.1000000000000E-01  9.8748442308228E-01  1.6964165079533E-01
    13  1.2000000000000E-01  1.0668521584849E+00  1.9341754659193E-01
    14  1.3000000000000E-01  1.1432587458895E+00  2.1850392913079E-01
    15  1.4000000000000E-01  1.2163812757249E+00  2.4471149003077E-01
    16  1.5000000000000E-01  1.2858920040016E+00  2.7181108617853E-01
    17  1.6000000000000E-01  1.3514621278373E+00  2.9954050865780E-01
    18  1.7000000000000E-01  1.4127660131798E+00  3.2761233763913E-01
    19  1.8000000000000E-01  1.4694857752190E+00  3.5572265438950E-01
    20  1.9000000000000E-01  1.5213160998130E+00  3.8356035434894E-01
    21  2.0000000000000E-01  1.5679691851074E+00  4.1081678530133E-01
    22  2.1000000000000E-01  1.6091796766754E+00  4.3719542265737E-01
    23  2.2000000000000E-01  1.6447094671295E+00  4.6242129016940E-01
    24  2.3000000000000E-01  1.6743522323484E+00  4.8624983917428E-01
    25  2.4000000000000E-01  1.6979375812156E+00  5.0847501263995E-01
    26  2.5000000000000E-01  1.7153347039640E+00  5.2893624155857E-01
    27  2.6000000000000E-01  1.7264554156781E+00  5.4752415004320E-01
    28  2.7000000000000E-01  1.7312565059060E+00  5.6418478108002E-01
    29  2.8000000000000E-01  1.7297413223252E+00  5.7892219630732E-01
    30  2.9000000000000E-01  1.7219605355169E+00  5.9179934930083E-01
    31  3.0000000000000E-01  1.7080120526418E+00  6.0293718136735E-01
    32  3.1000000000000E-01  1.6880400696006E+00  6.1251194040347E-01
    33  3.2000000000000E-01  1.6622332735279E+00  6.2075077550846E-01
    34  3.3000000000000E-01  1.6308222295915E+00  6.2792571126884E-01
    35  3.4000000000000E-01  1.5940760074419E+00  6.3434615448332E-01
    36  3.5000000000000E-01  1.5522981227002E+00  6.4035013115354E-01
    37  3.6000000000000E-01  1.5058218870072E+00  6.4629449149874E-01
    38  3.7000000000000E-01  1.4550052758931E+00  6.5254435436739E-01
    39  3.8000000000000E-01  1.4002254366024E+00  6.5946208868227E-01
    40  3.9000000000000E-01  1.3418729676597E+00  6.6739614763367E-01
    41  4.0000000000000E-01  1.2803461080974E+00  6.7667008061054E-01
    42  4.1000000000000E-01  1.2160449766966E+00  6.8757204795943E-01
    43  4.2000000000000E-01  1.1493660002236E+00  7.0034515446097E-01
    44  4.3000000000000E-01  1.0806966644937E+00  7.1517889905299E-01
    45  4.4000000000000E-01  1.0104107132679E+00  7.3220201120261E-01
    46  4.5000000000000E-01  9.3886390771744E-01  7.5147690908228E-01
    47  4.6000000000000E-01  8.6639044377486E-01  7.7299597221895E-01
    48  4.7000000000000E-01  7.9330010654596E-01  7.9667977265390E-01
    49  4.8000000000000E-01  7.1987622055267E-01  8.2237735515479E-01
    50  4.9000000000000E-01  6.4637443246899E-01  8.4986860009175E-01
    51  5.0000000000000E-01  5.7302233979185E-01  8.7886864377463E-01
    52  5.1000000000000E-01  5.0001995519294E-01  9.0903427196659E-01
    53  5.2000000000000E-01  4.2754097277625E-01  9.3997214459138E-01
    54  5.3000000000000E-01  3.5573477977117E-01  9.7124865497004E-01
    55  5.4000000000000E-01  2.8472913595817E-01  1.0024011768303E+00
    56  5.5000000000000E-01  2.1463342395223E-01  1.0329504082966E+00
    57  5.6000000000000E-01  1.4554235690737E-01  1.0624134854072E+00
    58  5.7000000000000E-01  7.7540016734881E-02  1.0903175095610E+00
    59  5.8000000000000E-01  1.0704085949659E-02  1.1162131145712E+00
    60  5.9000000000000E-01 -5.4889869920224E-02  1.1396876903866E+00
    61  6.0000000000000E-01 -1.1916421459706E-01  1.1603778824121E+00
    62  6.1000000000000E-01 -1.8203529129450E-01  1.1779809978577E+00
    63  6.2000000000000E-01 -2.4340984821713E-01  1.1922649734793E+00
    64  6.3000000000000E-01 -3.0318196661303E-01  1.2030765919982E+00
    65  6.4000000000000E-01 -3.6123060495994E-01  1.2103476766513E+00
    66  6.5000000000000E-01 -4.1741785576717E-01  1.2140990437240E+00
    67  6.6000000000000E-01 -4.7158799143004E-01  1.2144420503125E+00
    68  6.7000000000000E-01 -5.2356735310689E-01  1.2115776374957E+00
    69  6.8000000000000E-01 -5.7316511229358E-01  1.2057928359357E+00
    70  6.9000000000000E-01 -6.2017490930461E-01  1.1974547699239E+00
    71  7.0000000000000E-01 -6.6437734691803E-01  1.1870022651960E+00
    72  7.1000000000000E-01 -7.0554329172431E-01  1.1749352335735E+00
    73  7.2000000000000E-01 -7.4343791094246E-01  1.1618020718046E+00
    74  7.3000000000000E-01 -7.7782534933392E-01  1.1481853710510E+00
    75  7.4000000000000E-01 -8.0847393000900E-01  1.1346862856400E+00
    76  7.5000000000000E-01 -8.3516174498912E-01  1.1219079534362E+00
    77  7.6000000000000E-01 -8.5768248689070E-01  1.1104383941776E+00
    78  7.7000000000000E-01 -8.7585136247659E-01  1.1008333352883E+00
    79  7.8000000000000E-01 -8.8951092242166E-01  1.0935994262315E+00
    80  7.9000000000000E-01 -8.9853663969325E-01  1.0891783019037E+00
    81  8.0000000000000E-01 -9.0284207156741E-01  1.0879319427156E+00
    82  8.1000000000000E-01 -9.0238344747922E-01  1.0901297540038E+00
    83  8.2000000000000E-01 -8.9716353650947E-01  1.0959377507458E+00
    84  8.3000000000000E-01 -8.8723466408327E-01  1.1054101860001E+00
    85  8.4000000000000E-01 -8.7270076703275E-01  1.1184839041599E+00
    86  8.5000000000000E-01 -8.5371839907667E-01  1.1349756343572E+00
    87  8.6000000000000E-01 -8.3049662442494E-01  1.1545823668001E+00
    88  8.7000000000000E-01 -8.0329576497256E-01  1.1768848772793E+00
    89  8.8000000000000E-01 -7.7242499569008E-01  1.2013543845118E+00
    90  8.9000000000000E-01 -7.3823881258467E-01  1.2273622434754E+00
    91  9.0000000000000E-01 -7.0113242721221E-01  1.2541924975528E+00
    92  9.1000000000000E-01 -6.6153617037572E-01  1.2810570352708E+00
    93  9.2000000000000E-01 -6.1990901457343E-01  1.3071130257540E+00
    94  9.3000000000000E-01 -5.7673134923078E-01  1.3314822426543E+00
    95  9.4000000000000E-01 -5.3249716408107E-01  1.3532718310429E+00
    96  9.5000000000000E-01 -4.8770581365202E-01  1.3715960271332E+00
    97  9.6000000000000E-01 -4.4285354916233E-01  1.3855983080177E+00
    98  9.7000000000000E-01 -3.9842501283141E-01  1.3944734288729E+00
    99  9.8000000000000E-01 -3.5488489338106E-01  1.3974887989637E+00
   100  9.9000000000000E-01 -3.1266994020200E-01  1.3940046556061E+00
   101  1.0000000000000E+00 -2.7218152725231E-01  1.3834925169863E+00
   102  1.0100000000000E+00 -2.3377894636949E-01  1.3655514299636E+00
   103  1.0200000000000E+00 -1.9777359355482E-01  1.3399215769803E+00
   104  1.0300000000000E+00 -1.6442419129248E-01  1.3064948658796E+00
   105  1.0400000000000E+00 -1.3393316561846E-01  1.2653221963212E+00
   106  1.0500000000000E+00 -1.0644426902371E-01  1.2166171749688E+00
   107  1.0600000000000E+00 -8.2041510037998E-02  1.1607561368264E+00
   108  1.0700000000000E+00 -6.0749418342640E-02  1.0982744196654E+00
   109  1.0800000000000E+00 -4.2534641163853E-02  1.0298589305979E+00
   110  1.0900000000000E+00 -2.7308833514518E-02  9.5633713572581E-01
   111  1.1000000000000E+00 -1.4932772327804E-02  8.7866269340400E-01
   112  1.1100000000000E+00 -5.2215935085601E-03  7.9789803668237E-01
   113  1.1200000000000E+00  2.0489776652393E-03  7.1519428845460E-01
   114  1.1300000000000E+00  7.1355579807885E-03  6.3176896226017E-01
   115  1.1400000000000E+00  1.0319376473287E-02  5.4888196004456E-01
   116  1.1500000000000E+00  1.1898077765615E-02  4.6781042467640E-01
   117  1.1600000000000E+00  1.2177265552074E-02  3.8982303772737E-01
   118  1.1700000000000E+00  1.1462004940435E-02  3.1615438015869E-01
   119  1.1800000000000E+00  1.0048464467798E-02  2.4797989013138E-01
   120  1.1900000000000E+00  8.2155387126671E-03  1.8639134214161E-01
   121  1.2000000000000E+00  6.2041092065764E-03  1.3234651446477E-01
   122  1.2100000000000E+00  4.2386089710955E-03  8.6705054512769E-02
   123  1.2200000000000E+00  2.5161140794484E-03  5.0201549739253E-02
   124  1.2300000000000E+00  1.1835233472849E-03  2.3392460701742E-02
   125  1.2400000000000E+00  3.3192649914375E-04  6.5961331660182E-03
   126  1.2500000000000E+00  1.0094025251264E-05  2.0495324369690E-04
   127  1.2600000000000E+00  1.1341061966423E-06  2.2839817587256E-05
   128  1.2700000000000E+00 -3.7482253797571E-07 -7.4990656943196E-06
   129  1.28 -0.  0.
   130  1.29  0.  0.
   131  1.30  0.  0.
   132  1.31  0.  0.
   133  1.32  0.  0.
   134  1.33  0.  0.
   135  1.34  0.  0.
   136  1.35  0.  0.
   137  1.36  0.  0.
   138  1.37  0.  0.
   139  1.38  0.  0.
   140  1.39  0.  0.
   141  1.40  0.  0.
   142  1.41  0.  0.
   143  1.42  0.  0.
   144  1.43  0.  0.
   145  1.44  0.  0.
   146  1.45  0.  0.
   147  1.46  0.  0.
   148  1.47  0.  0.
   149  1.48  0.  0.
   150  1.49  0.  0.
   151  1.50  0.  0.
   152  1.51  0.  0.
   153  1.52  0.  0.
   154  1.53  0.  0.
   155  1.54  0.  0.
   156  1.55  0.  0.
   157  1.56  0.  0.
   158  1.57  0.  0.
   159  1.58  0.  0.
   160  1.59  0.  0.
   161  1.60  0.  0.
   162  1.61  0.  0.
   163  1.62  0.  0.
   164  1.63  0.  0.
   165  1.64  0.  0.
   166  1.65  0.  0.
   167  1.66  0.  0.
   168  1.67  0.  0.
   169  1.68  0.  0.
   170  1.69  0.  0.
   171  1.70  0.  0.
   172  1.71  0.  0.
   173  1.72  0.  0.
   174  1.73  0.  0.
   175  1.74  0.  0.
   176  1.75  0.  0.
   177  1.76  0.  0.
   178  1.77  0.  0.
   179  1.78  0.  0.
   180  1.79  0.  0.
   181  1.80  0.  0.
   182  1.81  0.  0.
   183  1.82  0.  0.
   184  1.83  0.  0.
   185  1.84  0.  0.
   186  1.85  0.  0.
   187  1.86  0.  0.
   188  1.87  0.  0.
   189  1.88  0.  0.
   190  1.89  0.  0.
   191  1.90  0.  0.
   192  1.91  0.  0.
   193  1.92  0.  0.
   194  1.93  0.  0.
   195  1.94  0.  0.
   196  1.95  0.  0.
   197  1.96  0.  0.
   198  1.97  0.  0.
   199  1.98  0.  0.
   200  1.99  0.  0.
   201  2.00  0.  0.
   202  2.01  0.  0.
   203  2.02  0.  0.
   204  2.03  0.  0.
   205  2.04  0.  0.
   206  2.05  0.  0.
   207  2.06  0.  0.
   208  2.07  0.  0.
   209  2.08  0.  0.
   210  2.09  0.  0.
   211  2.10  0.  0.
   212  2.11  0.  0.
   213  2.12  0.  0.
   214  2.13  0.  0.
   215  2.14  0.  0.
   216  2.15  0.  0.
   217  2.16  0.  0.
   218  2.17  0.  0.
   219  2.18  0.  0.
   220  2.19  0.  0.
   221  2.20  0.  0.
   222  2.21  0.  0.
   223  2.22  0.  0.
   224  2.23  0.  0.
   225  2.24  0.  0.
   226  2.25  0.  0.
   227  2.26  0.  0.
   228  2.27  0.  0.
   229  2.28  0.  0.
   230  2.29  0.  0.
   231  2.30  0.  0.
   232  2.31  0.  0.
   233  2.32  0.  0.
   234  2.33  0.  0.
   235  2.34  0.  0.
   236  2.35  0.  0.
   237  2.36  0.  0.
   238  2.37  0.  0.
   239  2.38  0.  0.
   240  2.39  0.  0.
   241  2.40  0.  0.
   242  2.41  0.  0.
   243  2.42  0.  0.
   244  2.43  0.  0.
   245  2.44  0.  0.
   246  2.45  0.  0.
   247  2.46  0.  0.
   248  2.47  0.  0.
   249  2.48  0.  0.
   250  2.49  0.  0.
   251  2.50  0.  0.
   252  2.51  0.  0.
   253  2.52  0.  0.
   254  2.53  0.  0.
   255  2.54  0.  0.
   256  2.55  0.  0.
   257  2.56  0.  0.
   258  2.57  0.  0.
   259  2.58  0.  0.
   260  2.59  0.  0.
   261  2.60  0.  0.
   262  2.61  0.  0.
   263  2.62  0.  0.
   264  2.63  0.  0.
   265  2.64  0.  0.
   266  2.65  0.  0.
   267  2.66  0.  0.
   268  2.67  0.  0.
   269  2.68  0.  0.
   270  2.69  0.  0.
   271  2.70  0.  0.
   272  2.71  0.  0.
   273  2.72  0.  0.
   274  2.73  0.  0.
   275  2.74  0.  0.
   276  2.75  0.  0.
   277  2.76  0.  0.
   278  2.77  0.  0.
   279  2.78  0.  0.
   280  2.79  0.  0.
   281  2.80  0.  0.
   282  2.81  0.  0.
   283  2.82  0.  0.
   284  2.83  0.  0.
   285  2.84  0.  0.
   286  2.85  0.  0.
   287  2.86  0.  0.
   288  2.87  0.  0.
   289  2.88  0.  0.
   290  2.89  0.  0.
   291  2.90  0.  0.
   292  2.91  0.  0.
   293  2.92  0.  0.
   294  2.93  0.  0.
   295  2.94  0.  0.
   296  2.95  0.  0.
   297  2.96  0.  0.
   298  2.97  0.  0.
   299  2.98  0.  0.
   300  2.99  0.  0.
   301  3.00  0.  0.
   302  3.01  0.  0.
   303  3.02  0.  0.
   304  3.03  0.  0.
   305  3.04  0.  0.
   306  3.05  0.  0.
   307  3.06  0.  0.
   308  3.07  0.  0.
   309  3.08  0.  0.
   310  3.09  0.  0.
   311  3.10  0.  0.
   312  3.11  0.  0.
   313  3.12  0.  0.
   314  3.13  0.  0.
   315  3.14  0.  0.
   316  3.15  0.  0.
   317  3.16  0.  0.
   318  3.17  0.  0.
   319  3.18  0.  0.
   320  3.19  0.  0.
   321  3.20  0.  0.
   322  3.21  0.  0.
   323  3.22  0.  0.
   324  3.23  0.  0.
   325  3.24  0.  0.
   326  3.25  0.  0.
   327  3.26  0.  0.
   328  3.27  0.  0.
   329  3.28  0.  0.
   330  3.29  0.  0.
   331  3.30  0.  0.
   332  3.31  0.  0.
   333  3.32  0.  0.
   334  3.33  0.  0.
   335  3.34  0.  0.
   336  3.35  0.  0.
   337  3.36  0.  0.
   338  3.37  0.  0.
   339  3.38  0.  0.
   340  3.39  0.  0.
   341  3.40  0.  0.
   342  3.41  0.  0.
   343  3.42  0.  0.
   344  3.43  0.  0.
   345  3.44  0.  0.
   346  3.45  0.  0.
   347  3.46  0.  0.
   348  3.47  0.  0.
   349  3.48  0.  0.
   350  3.49  0.  0.
   351  3.50  0.  0.
   352  3.51  0.  0.
   353  3.52  0.  0.
   354  3.53  0.  0.
   355  3.54  0.  0.
   356  3.55  0.  0.
   357  3.56  0.  0.
   358  3.57  0.  0.
   359  3.58  0.  0.
   360  3.59  0.  0.
   361  3.60  0.  0.
   362  3.61  0.  0.
   363  3.62  0.  0.
   364  3.63  0.  0.
   365  3.64  0.  0.
   366  3.65  0.  0.
   367  3.66  0.  0.
   368  3.67  0.  0.
   369  3.68  0.  0.
   370  3.69  0.  0.
   371  3.70  0.  0.
   372  3.71  0.  0.
   373  3.72  0.  0.
   374  3.73  0.  0.
   375  3.74  0.  0.
   376  3.75  0.  0.
   377  3.76  0.  0.
   378  3.77  0.  0.
   379  3.78  0.  0.
   380  3.79  0.  0.
   381  3.80  0.  0.
   382  3.81  0.  0.
   383  3.82  0.  0.
   384  3.83  0.  0.
   385  3.84  0.  0.
   386  3.85  0.  0.
   387  3.86  0.  0.
   388  3.87  0.  0.
   389  3.88  0.  0.
   390  3.89  0.  0.
   391  3.90  0.  0.
   392  3.91  0.  0.
   393  3.92  0.  0.
   394  3.93  0.  0.
   395  3.94  0.  0.
   396  3.95  0.  0.
   397  3.96  0.  0.
   398  3.97  0.  0.
   399  3.98  0.  0.
   400  3.99  0.  0.
   401  4.00  0.  0.
   402  4.01  0.  0.
   403  4.02  0.  0.
   404  4.03  0.  0.
   405  4.04  0.  0.
   406  4.05  0.  0.
   407  4.06  0.  0.
   408  4.07  0.  0.
   409  4.08  0.  0.
   410  4.09  0.  0.
   411  4.10  0.  0.
   412  4.11  0.  0.
   413  4.12  0.  0.
   414  4.13  0.  0.
   415  4.14  0.  0.
   416  4.15  0.  0.
   417  4.16  0.  0.
   418  4.17  0.  0.
   419  4.18  0.  0.
   420  4.19  0.  0.
   421  4.20  0.  0.
   422  4.21  0.  0.
   423  4.22  0.  0.
   424  4.23  0.  0.
   425  4.24  0.  0.
   426  4.25  0.  0.
   427  4.26  0.  0.
   428  4.27  0.  0.
   429  4.28  0.  0.
   430  4.29  0.  0.
   431  4.30  0.  0.
   432  4.31  0.  0.
   433  4.32  0.  0.
   434  4.33  0.  0.
   435  4.34  0.  0.
   436  4.35  0.  0.
   437  4.36  0.  0.
   438  4.37  0.  0.
   439  4.38  0.  0.
   440  4.39  0.  0.
   441  4.40  0.  0.
   442  4.41  0.  0.
   443  4.42  0.  0.
   444  4.43  0.  0.
   445  4.44  0.  0.
   446  4.45  0.  0.
   447  4.46  0.  0.
   448  4.47  0.  0.
   449  4.48  0.  0.
   450  4.49  0.  0.
   451  4.50  0.  0.
   452  4.51  0.  0.
   453  4.52  0.  0.
   454  4.53  0.  0.
   455  4.54  0.  0.
   456  4.55  0.  0.
   457  4.56  0.  0.
   458  4.57  0.  0.
   459  4.58  0.  0.
   460  4.59  0.  0.
   461  4.60  0.  0.
   462  4.61  0.  0.
   463  4.62  0.  0.
   464  4.63  0.  0.
   465  4.64  0.  0.
   466  4.65  0.  0.
   467  4.66  0.  0.
   468  4.67  0.  0.
   469  4.68  0.  0.
   470  4.69  0.  0.
   471  4.70  0.  0.
   472  4.71  0.  0.
   473  4.72  0.  0.
   474  4.73  0.  0.
   475  4.74  0.  0.
   476  4.75  0.  0.
   477  4.76  0.  0.
   478  4.77  0.  0.
   479  4.78  0.  0.
   480  4.79  0.  0.
   481  4.80  0.  0.
   482  4.81  0.  0.
   483  4.82  0.  0.
   484  4.83  0.  0.
   485  4.84  0.  0.
   486  4.85  0.  0.
   487  4.86  0.  0.
   488  4.87  0.  0.
   489  4.88  0.  0.
   490  4.89  0.  0.
   491  4.90  0.  0.
   492  4.91  0.  0.
   493  4.92  0.  0.
   494  4.93  0.  0.
   495  4.94  0.  0.
   496  4.95  0.  0.
   497  4.96  0.  0.
   498  4.97  0.  0.
   499  4.98  0.  0.
   500  4.99  0.  0.
   501  5.00  0.  0.
   502  5.01  0.  0.
   503  5.02  0.  0.
   504  5.03  0.  0.
   505  5.04  0.  0.
   506  5.05  0.  0.
   507  5.06  0.  0.
   508  5.07  0.  0.
   509  5.08  0.  0.
   510  5.09  0.  0.
   511  5.10  0.  0.
   512  5.11  0.  0.
   513  5.12  0.  0.
   514  5.13  0.  0.
   515  5.14  0.  0.
   516  5.15  0.  0.
   517  5.16  0.  0.
   518  5.17  0.  0.
   519  5.18  0.  0.
   520  5.19  0.  0.
   521  5.20  0.  0.
   522  5.21  0.  0.
   523  5.22  0.  0.
   524  5.23  0.  0.
   525  5.24  0.  0.
   526  5.25  0.  0.
   527  5.26  0.  0.
   528  5.27  0.  0.
   529  5.28  0.  0.
   530  5.29  0.  0.
   531  5.30  0.  0.
   532  5.31  0.  0.
   533  5.32  0.  0.
   534  5.33  0.  0.
   535  5.34  0.  0.
   536  5.35  0.  0.
   537  5.36  0.  0.
   538  5.37  0.  0.
   539  5.38  0.  0.
   540  5.39  0.  0.
   541  5.40  0.  0.
   542  5.41  0.  0.
   543  5.42  0.  0.
   544  5.43  0.  0.
   545  5.44  0.  0.
   546  5.45  0.  0.
   547  5.46  0.  0.
   548  5.47  0.  0.
   549  5.48  0.  0.
   550  5.49  0.  0.
   551  5.50  0.  0.
   552  5.51  0.  0.
   553  5.52  0.  0.
   554  5.53  0.  0.
   555  5.54  0.  0.
   556  5.55  0.  0.
   557  5.56  0.  0.
   558  5.57  0.  0.
   559  5.58  0.  0.
   560  5.59  0.  0.
   561  5.60  0.  0.
   562  5.61  0.  0.
   563  5.62  0.  0.
   564  5.63  0.  0.
   565  5.64  0.  0.
   566  5.65  0.  0.
   567  5.66  0.  0.
   568  5.67  0.  0.
   569  5.68  0.  0.
   570  5.69  0.  0.
   571  5.70  0.  0.
   572  5.71  0.  0.
   573  5.72  0.  0.
   574  5.73  0.  0.
   575  5.74  0.  0.
   576  5.75  0.  0.
   577  5.76  0.  0.
   578  5.77  0.  0.
   579  5.78  0.  0.
   580  5.79  0.  0.
   581  5.80  0.  0.
   582  5.81  0.  0.
   583  5.82  0.  0.
   584  5.83  0.  0.
   585  5.84  0.  0.
   586  5.85  0.  0.
   587  5.86  0.  0.
   588  5.87  0.  0.
   589  5.88  0.  0.
   590  5.89  0.  0.
   591  5.90  0.  0.
   592  5.91  0.  0.
   593  5.92  0.  0.
   594  5.93  0.  0.
   595  5.94  0.  0.
   596  5.95  0.  0.
   597  5.96  0.  0.
   598  5.97  0.  0.
   599  5.98  0.  0.
   600  5.99  0.  0.
   1                        -3.4933441114656E+00 -7.2175887436738E-01
     1  0.0000000000000E+00 -1.9346652752050E-09  1.1466763066847E-08
     2  1.0000000000000E-02  1.4251692699353E-03 -7.5671564614587E-04
     3  2.0000000000000E-02  5.6974675687599E-03 -3.0308349076644E-03
     4  3.0000000000000E-02  1.2807231165055E-02 -6.8340187684825E-03
     5  4.0000000000000E-02  2.2738237700774E-02 -1.2184856013893E-02
     6  5.0000000000000E-02  3.5467536116747E-02 -1.9107618612560E-02
     7  6.0000000000000E-02  5.0965216714153E-02 -2.7630567950588E-02
     8  7.0000000000000E-02  6.9194129281786E-02 -3.7783859165872E-02
     9  8.0000000000000E-02  9.0109559153648E-02 -4.9597102297663E-02
    10  9.0000000000000E-02  1.1365887275819E-01 -6.3096648973079E-02
    11  1.0000000000000E-01  1.3978114563851E-01 -7.8302681652118E-02
    12  1.1000000000000E-01  1.6840678702659E-01 -9.5226188830541E-02
    13  1.2000000000000E-01  1.9945717581642E-01 -1.1386591389528E-01
    14  1.3000000000000E-01  2.3284432318174E-01 -1.3420536742363E-01
    15  1.4000000000000E-01  2.6847057711106E-01 -1.5620999255331E-01
    16  1.5000000000000E-01  3.0622838378469E-01 -1.7982457062200E-01
    17  1.6000000000000E-01  3.4600012000011E-01 -2.0497094962539E-01
    18  1.7000000000000E-01  3.8765800977868E-01 -2.3154617127895E-01
    19  1.8000000000000E-01  4.3106413688060E-01 -2.5942106374025E-01
    20  1.9000000000000E-01  4.7607056324722E-01 -2.8843935656011E-01
    21  2.0000000000000E-01  5.2251956141789E-01 -3.1841736242555E-01
    22  2.1000000000000E-01  5.7024396677579E-01 -3.4914425702074E-01
    23  2.2000000000000E-01  6.1906765311383E-01 -3.8038297417529E-01
    24  2.3000000000000E-01  6.6880613252989E-01 -4.1187171873485E-01
    25  2.4000000000000E-01  7.1926727811694E-01 -4.4332608462680E-01
    26  2.5000000000000E-01  7.7025216536616E-01 -4.7444175077028E-01
    27  2.6000000000000E-01  8.2155602570634E-01 -5.0489771315148E-01
    28  2.7000000000000E-01  8.7296930322001E-01 -5.3435999790726E-01
    29  2.8000000000000E-01  9.2427880335766E-01 -5.6248578796211E-01
    30  2.9000000000000E-01  9.7526892046882E-01 -5.8892788495519E-01
    31  3.0000000000000E-01  1.0257229292282E+00 -6.1333941914643E-01
    32  3.1000000000000E-01  1.0754243235954E+00 -6.3537871293716E-01
    33  3.2000000000000E-01  1.1241581858432E+00 -6.5471419876787E-01
    34  3.3000000000000E-01  1.1717125674456E+00 -6.7102928959757E-01
    35  3.4000000000000E-01  1.2178798632502E+00 -6.8402710000701E-01
    36  3.5000000000000E-01  1.2624581603806E+00 -6.9343491822516E-01
    37  3.6000000000000E-01  1.3052525437209E+00 -6.9900833401844E-01
    38  3.7000000000000E-01  1.3460763406140E+00 -7.0053493431531E-01
    39  3.8000000000000E-01  1.3847522885502E+00 -6.9783748751327E-01
    40  3.9000000000000E-01  1.4211136110921E+00 -6.9077654843288E-01
    41  4.0000000000000E-01  1.4550049890538E+00 -6.7925242859120E-01
    42  4.1000000000000E-01  1.4862834159793E+00 -6.6320649057515E-01
    43  4.2000000000000E-01  1.5148189292007E+00 -6.4262174047166E-01
    44  4.3000000000000E-01  1.5404952101527E+00 -6.1752270820150E-01
    45  4.4000000000000E-01  1.5632100501139E+00 -5.8797462182618E-01
    46  4.5000000000000E-01  1.5828756800864E+00 -5.5408189806575E-01
    47  4.6000000000000E-01  1.5994189660475E+00 -5.1598598698496E-01
    48  4.7000000000000E-01  1.6127814732589E+00 -4.7386262369455E-01
    49  4.8000000000000E-01  1.6229194056353E+00 -4.2791855360355E-01
    50  4.9000000000000E-01  1.6298034283101E+00 -3.7838780990501E-01
    51  5.0000000000000E-01  1.6334183834319E+00 -3.2552763227557E-01
    52  5.1000000000000E-01  1.6337629108510E+00 -2.6961412394907E-01
    53  5.2000000000000E-01  1.6308489866581E+00 -2.1093775017208E-01
    54  5.3000000000000E-01  1.6247013935024E+00 -1.4979878439830E-01
    55  5.4000000000000E-01  1.6153571372133E+00 -8.6502809329684E-02
    56  5.5000000000000E-01  1.6028648244722E+00 -2.1356378018493E-02
    57  5.6000000000000E-01  1.5872840161227E+00  4.5337064266446E-02
    58  5.7000000000000E-01  1.5686845701801E+00  1.1328090375078E-01
    59  5.8000000000000E-01  1.5471459877120E+00  1.8218864321191E-01
    60  5.9000000000000E-01  1.5227567735518E+00  2.5178667575176E-01
    61  6.0000000000000E-01  1.4956138222873E+00  3.2181648816352E-01
    62  6.1000000000000E-01  1.4658218382041E+00  3.9203624987136E-01
    63  6.2000000000000E-01  1.4334927958820E+00  4.6222175975804E-01
    64  6.3000000000000E-01  1.3987454460155E+00  5.3216674037234E-01
    65  6.4000000000000E-01  1.3617048687967E+00  6.0168248660721E-01
    66  6.5000000000000E-01  1.3225020749393E+00  6.7059689352735E-01
    67  6.6000000000000E-01  1.2812736521810E+00  7.3875290515934E-01
    68  6.7000000000000E-01  1.2381614529487E+00  8.0600644230569E-01
    69  6.8000000000000E-01  1.1933123168715E+00  8.7222388238338E-01
    70  6.9000000000000E-01  1.1468778200218E+00  9.3727917752841E-01
    71  7.0000000000000E-01  1.0990140412238E+00  1.0010507083891E+00
    72  7.1000000000000E-01  1.0498813345300E+00  1.0634179798430E+00
    73  7.2000000000000E-01  9.9964409606347E-01  1.1242582710541E+00
    74  7.3000000000000E-01  9.4847051289997E-01  1.1834433556438E+00
    75  7.4000000000000E-01  8.9653228153038E-01  1.2408364081440E+00
    76  7.5000000000000E-01  8.4400428371513E-01  1.2962892102754E+00
    77  7.6000000000000E-01  7.9106420822141E-01  1.3496397649620E+00
    78  7.7000000000000E-01  7.3789210800927E-01  1.4007104174311E+00
    79  7.8000000000000E-01  6.8466988388531E-01  1.4493065714268E+00
    80  7.9000000000000E-01  6.3158068744342E-01  1.4952160747028E+00
    81  8.0000000000000E-01  5.7880823822037E-01  1.5382093318577E+00
    82  8.1000000000000E-01  5.2653605236318E-01  1.5780401845858E+00
    83  8.2000000000000E-01  4.7494658267867E-01  1.6144475799474E+00
    84  8.3000000000000E-01  4.2422027265159E-01  1.6471580267616E+00
    85  8.4000000000000E-01  3.7453452980916E-01  1.6758888191837E+00
    86  8.5000000000000E-01  3.2606262660600E-01  1.7003519854429E+00
    87  8.6000000000000E-01  2.7897253973203E-01  1.7202588991151E+00
    88  8.7000000000000E-01  2.3342574133503E-01  1.7353254706953E+00
    89  8.8000000000000E-01  1.8957595802736E-01  1.7452778191189E+00
    90  8.9000000000000E-01  1.4756791564746E-01  1.7498583067421E+00
    91  9.0000000000000E-01  1.0753608950724E-01  1.7488318075533E+00
    92  9.1000000000000E-01  6.9603481222784E-02  1.7419920674579E+00
    93  9.2000000000000E-01  3.3880444149738E-02  1.7291680076647E+00
    94  9.3000000000000E-01  4.6357988989695E-04  1.7102298177883E+00
    95  9.4000000000000E-01 -3.0565271726071E-02  1.6850946844366E+00
    96  9.5000000000000E-01 -5.9139927357449E-02  1.6537320038922E+00
    97  9.6000000000000E-01 -8.5210618859396E-02  1.6161679340413E+00
    98  9.7000000000000E-01 -1.0874459688524E-01  1.5724891508840E+00
    99  9.8000000000000E-01 -1.2972656241214E-01  1.5228456886256E+00
   100  9.9000000000000E-01 -1.4815891179711E-01  1.4674527592688E+00
   101  1.0000000000000E+00 -1.6406178396556E-01  1.4065914674790E+00
   102  1.0100000000000E+00 -1.7747290169018E-01  1.3406083588828E+00
   103  1.0200000000000E+00 -1.8844720256901E-01  1.2699137644438E+00
   104  1.0300000000000E+00 -1.9705625918566E-01  1.1949789296145E+00
   105  1.0400000000000E+00 -2.0338749194723E-01  1.1163319440190E+00
   106  1.0500000000000E+00 -2.0754318216703E-01  1.0345525149032E+00
   107  1.0600000000000E+00 -2.0963929700077E-01  9.5026565489521E-01
   108  1.0700000000000E+00 -2.0980414175839E-01  8.6413438105720E-01
   109  1.0800000000000E+00 -2.0817685882891E-01  7.7685154729155E-01
   110  1.0900000000000E+00 -2.0490579586647E-01  6.8913095516602E-01
   111  1.1000000000000E+00 -2.0014676892777E-01  6.0169790868079E-01
   112  1.1100000000000E+00 -1.9406124884443E-01  5.1527939588109E-01
   113  1.1200000000000E+00 -1.8681450119147E-01  4.3059409404508E-01
   114  1.1300000000000E+00 -1.7857371172786E-01  3.4834240513931E-01
   115  1.1400000000000E+00 -1.6950613008636E-01  2.6919673397111E-01
   116  1.1500000000000E+00 -1.5977726475176E-01  1.9379222281958E-01
   117  1.1600000000000E+00 -1.4954916197509E-01  1.2271815318928E-01
   118  1.1700000000000E+00 -1.3897880021264E-01  5.6510217625363E-02
   119  1.1800000000000E+00 -1.2821663002453E-01 -4.3561471418322E-03
   120  1.1900000000000E+00 -1.1740528722521E-01 -5.9471189168806E-02
   121  1.2000000000000E+00 -1.0667850118614E-01 -1.0849490409235E-01
   122  1.2100000000000E+00 -9.6160101921359E-02 -1.5116074085765E-01
   123  1.2200000000000E+00 -8.5961895840707E-02 -1.8729060701982E-01
   124  1.2300000000000E+00 -7.6181520552996E-02 -2.1680959728230E-01
   125  1.2400000000000E+00 -6.6901745741120E-02 -2.3974688838732E-01
   126  1.2500000000000E+00 -5.8190167378527E-02 -2.5623366197470E-01
   127  1.2600000000000E+00 -5.0099173822657E-02 -2.6649927128232E-01
   128  1.2700000000000E+00 -4.2666175309665E-02 -2.7086572954571E-01
   129  1.2800000000000E+00 -3.5914085702360E-02 -2.6974060848486E-01
   130  1.2900000000000E+00 -2.9852040751094E-02 -2.6360846672890E-01
   131  1.3000000000000E+00 -2.4476332777055E-02 -2.5302095778633E-01
   132  1.3100000000000E+00 -1.9771537802380E-02 -2.3858579348859E-01
   133  1.3200000000000E+00 -1.5711830876656E-02 -2.2095456772605E-01
   134  1.3300000000000E+00 -1.2263675052027E-02 -2.0079943774602E-01
   135  1.3400000000000E+00 -9.3668793338722E-03 -1.7897193920722E-01
   136  1.3500000000000E+00 -6.9701156029236E-03 -1.5620242866666E-01
   137  1.3600000000000E+00 -5.0561975158556E-03 -1.3289124440574E-01
   138  1.3700000000000E+00 -3.5527721450957E-03 -1.0986002382869E-01
   139  1.3800000000000E+00 -2.4057815704913E-03 -8.7732668944505E-02
   140  1.3900000000000E+00 -1.5549691588927E-03 -6.7132500256967E-02
   141  1.4000000000000E+00 -9.4359745801211E-04 -4.8615872450264E-02
   142  1.4100000000000E+00 -5.2581960225729E-04 -3.2624448916091E-02
   143  1.4200000000000E+00 -2.5869709357510E-04 -1.9531892915365E-02
   144  1.4300000000000E+00 -1.0365098789603E-04 -9.6365648279372E-03
   145  1.4400000000000E+00 -2.7020908808096E-05 -3.1265691018472E-03
   146  1.4500000000000E+00 -1.7036850927140E-06 -2.5565092221326E-04
   147  1.4600000000000E+00  1.8280653108343E-07  3.2152905958462E-05
   148  1.4700000000000E+00 -2.9963311892006E-08 -4.6200759405473E-06
   149  1.48 -0.  0.
   150  1.49  0.  0.
   151  1.50  0.  0.
   152  1.51  0.  0.
   153  1.52  0.  0.
   154  1.53  0.  0.
   155  1.54  0.  0.
   156  1.55  0.  0.
   157  1.56  0.  0.
   158  1.57  0.  0.
   159  1.58  0.  0.
   160  1.59  0.  0.
   161  1.60  0.  0.
   162  1.61  0.  0.