Fe    ONCVPSP-4.0.1  r_core=   1.25330   1.20190   1.55447
     26.0000     16.0000      250217    zatom,zion,pspd
     8       2   2     4   600     0    pspcod,pspxc,lmax,lloc,mmax,r2well
  5.99000000  3.00000000  0.00000000    rchrg fchrg qchrg
     2     2     2     0    nproj
     3     1           extension_switch
     4     4     0    nprojso
   0                         1.0203939035233E+01  1.4604754856980E+00
     1  0.0000000000000E+00  4.9967607829160E-10 -1.0944831430049E-09
     2  1.0000000000000E-02  9.4278788799854E-02 -2.6353427374744E-02
     3  2.0000000000000E-02  1.8828605872214E-01 -5.2497345345297E-02
     4  3.0000000000000E-02  2.8175094320239E-01 -7.8222766853612E-02
     5  4.0000000000000E-02  3.7440388406879E-01 -1.0332175892924E-01
     6  5.0000000000000E-02  4.6597729502297E-01 -1.2758799293252E-01
     7  6.0000000000000E-02  5.5620623589676E-01 -1.5081732183454E-01
     8  7.0000000000000E-02  6.4482910067569E-01 -1.7280839222661E-01
     9  8.0000000000000E-02  7.3158832178018E-01 -1.9336329765770E-01
    10  9.0000000000000E-02  8.1623109249013E-01 -2.1228827857436E-01
    11  1.0000000000000E-01  8.9851010869935E-01 -2.2939447261340E-01
    12  1.1000000000000E-01  9.7818433040836E-01 -2.4449871730525E-01
    13  1.2000000000000E-01  1.0550197625223E+00 -2.5742440542284E-01
    14  1.3000000000000E-01  1.1287902536335E+00 -2.6800239129597E-01
    15  1.4000000000000E-01  1.1992783105520E+00 -2.7607194444775E-01
    16  1.5000000000000E-01  1.2662759254261E+00 -2.8148174494004E-01
    17  1.6000000000000E-01  1.3295854113786E+00 -2.8409091288492E-01
    18  1.7000000000000E-01  1.3890202417076E+00 -2.8377006273152E-01
    19  1.8000000000000E-01  1.4444058868634E+00 -2.8040237121591E-01
    20  1.9000000000000E-01  1.4955806426541E+00 -2.7388464630756E-01
    21  2.0000000000000E-01  1.5423964424522E+00 -2.6412838313599E-01
    22  2.1000000000000E-01  1.5847196456003E+00 -2.5106079177181E-01
    23  2.2000000000000E-01  1.6224317937542E+00 -2.3462578089639E-01
    24  2.3000000000000E-01  1.6554303265724E+00 -2.1478488085025E-01
    25  2.4000000000000E-01  1.6836292479689E+00 -1.9151808932043E-01
    26  2.5000000000000E-01  1.7069597341024E+00 -1.6482462302657E-01
    27  2.6000000000000E-01  1.7253706743815E+00 -1.3472355920054E-01
    28  2.7000000000000E-01  1.7388291370295E+00 -1.0125435142644E-01
    29  2.8000000000000E-01  1.7473207511628E+00 -6.4477205509904E-02
    30  2.9000000000000E-01  1.7508499979085E+00 -2.4473302466386E-02
    31  3.0000000000000E-01  1.7494404037914E+00  1.8655142563420E-02
    32  3.1000000000000E-01  1.7431346304682E+00  6.4784994671160E-02
    33  3.2000000000000E-01  1.7319944558556E+00  1.1377249377898E-01
    34  3.3000000000000E-01  1.7161006427765E+00  1.6545373400859E-01
    35  3.4000000000000E-01  1.6955526924212E+00  2.1964532975197E-01
    36  3.5000000000000E-01  1.6704684811706E+00  2.7614526765834E-01
    37  3.6000000000000E-01  1.6409837806283E+00  3.3473394096741E-01
    38  3.7000000000000E-01  1.6072516620523E+00  3.9517535981816E-01
    39  3.8000000000000E-01  1.5694417877256E+00  4.5721852839709E-01
    40  3.9000000000000E-01  1.5277395931501E+00  5.2059897711386E-01
    41  4.0000000000000E-01  1.4823453652585E+00  5.8504043545605E-01
    42  4.1000000000000E-01  1.4334732230963E+00  6.5025662883095E-01
    43  4.2000000000000E-01  1.3813500086086E+00  7.1595318059648E-01
    44  4.3000000000000E-01  1.3262140962512E+00  7.8182959866066E-01
    45  4.4000000000000E-01  1.2683141311198E+00  8.4758132452826E-01
    46  4.5000000000000E-01  1.2079077061275E+00  9.1290182152778E-01
    47  4.6000000000000E-01  1.1452599894591E+00  9.7748467819024E-01
    48  4.7000000000000E-01  1.0806423140614E+00  1.0410257023915E+00
    49  4.8000000000000E-01  1.0143307413016E+00  1.1032249819283E+00
    50  4.9000000000000E-01  9.4660461111368E-01  1.1637888876766E+00
    51  5.0000000000000E-01  8.7774509097148E-01  1.2224319963787E+00
    52  5.1000000000000E-01  8.0803373586350E-01  1.2788789114088E+00
    53  5.2000000000000E-01  7.3775107110545E-01  1.3328659615624E+00
    54  5.3000000000000E-01  6.6717520932159E-01  1.3841427599632E+00
    55  5.4000000000000E-01  5.9658051225907E-01  1.4324736075656E+00
    56  5.5000000000000E-01  5.2623630728656E-01  1.4776387283884E+00
    57  5.6000000000000E-01  4.5640566748353E-01  1.5194353265200E+00
    58  5.7000000000000E-01  3.8734426316683E-01  1.5576784580119E+00
    59  5.8000000000000E-01  3.1929929154696E-01  1.5922017139899E+00
    60  5.9000000000000E-01  2.5250848997892E-01  1.6228577145782E+00
    61  6.0000000000000E-01  1.8719923699433E-01  1.6495184165044E+00
    62  6.1000000000000E-01  1.2358774399730E-01  1.6720752404615E+00
    63  6.2000000000000E-01  6.1878339199734E-02  1.6904390273770E+00
    64  6.3000000000000E-01  2.2628440874176E-03  1.7045398356284E+00
    65  6.4000000000000E-01 -5.5079958529816E-02  1.7143265938786E+00
    66  6.5000000000000E-01 -1.0998476699971E-01  1.7197666265322E+00
    67  6.6000000000000E-01 -1.6230011703475E-01  1.7208450707833E+00
    68  6.7000000000000E-01 -2.1188865580618E-01  1.7175642057922E+00
    69  6.8000000000000E-01 -2.5862733892503E-01  1.7099427156588E+00
    70  6.9000000000000E-01 -3.0240755600659E-01  1.6980149085168E+00
    71  7.0000000000000E-01 -3.4313519105459E-01  1.6818299142471E+00
    72  7.1000000000000E-01 -3.8073062427780E-01  1.6614508829824E+00
    73  7.2000000000000E-01 -4.1512868215795E-01  1.6369542057483E+00
    74  7.3000000000000E-01 -4.4627854262191E-01  1.6084287772729E+00
    75  7.4000000000000E-01 -4.7414360203498E-01  1.5759753192126E+00
    76  7.5000000000000E-01 -4.9870131043063E-01  1.5397057798170E+00
    77  7.6000000000000E-01 -5.1994298093371E-01  1.4997428234303E+00
    78  7.7000000000000E-01 -5.3787357873062E-01  1.4562194202488E+00
    79  7.8000000000000E-01 -5.5251149420697E-01  1.4092785434736E+00
    80  7.9000000000000E-01 -5.6388830402784E-01  1.3590729774889E+00
    81  8.0000000000000E-01 -5.7204852299858E-01  1.3057652370142E+00
    82  8.1000000000000E-01 -5.7704934853708E-01  1.2495275934062E+00
    83  8.2000000000000E-01 -5.7896039853678E-01  1.1905422004984E+00
    84  8.3000000000000E-01 -5.7786344232636E-01  1.1290013086332E+00
    85  8.4000000000000E-01 -5.7385212336483E-01  1.0651075519564E+00
    86  8.5000000000000E-01 -5.6703167127431E-01  9.9907429066573E-01
    87  8.6000000000000E-01 -5.5751859983225E-01  9.3112598682611E-01
    88  8.7000000000000E-01 -5.4544038664568E-01  8.6149858963793E-01
    89  8.8000000000000E-01 -5.3093512943333E-01  7.9043990374691E-01
    90  8.9000000000000E-01 -5.1415117316983E-01  7.1820991236351E-01
    91  9.0000000000000E-01 -4.9524670181587E-01  6.4508102566774E-01
    92  9.1000000000000E-01 -4.7438928798670E-01  5.7133822424902E-01
    93  9.2000000000000E-01 -4.5175539370865E-01  4.9727906719702E-01
    94  9.3000000000000E-01 -4.2752981538961E-01  4.2321353493602E-01
    95  9.4000000000000E-01 -4.0190506628890E-01  3.4946367798466E-01
    96  9.5000000000000E-01 -3.7508069011472E-01  2.7636304451924E-01
    97  9.6000000000000E-01 -3.4726249990194E-01  2.0425586190058E-01
    98  9.7000000000000E-01 -3.1866173702053E-01  1.3349595016037E-01
    99  9.8000000000000E-01 -2.8949414602563E-01  6.4445348791114E-02
   100  9.9000000000000E-01 -2.5997896206900E-01 -2.5273580126616E-03
   101  1.0000000000000E+00 -2.3033780873026E-01 -6.7049028316536E-02
   102  1.0100000000000E+00 -2.0079350537366E-01 -1.2874426775009E-01
   103  1.0200000000000E+00 -1.7156878446879E-01 -1.8723805453230E-01
   104  1.0300000000000E+00 -1.4288492070457E-01 -2.4215868068856E-01
   105  1.0400000000000E+00 -1.1496027514737E-01 -2.9314100095787E-01
   106  1.0500000000000E+00 -8.8008759119041E-02 -3.3982997594237E-01
   107  1.0600000000000E+00 -6.2238223865376E-02 -3.8188449123786E-01
   108  1.0700000000000E+00 -3.7848783424724E-02 -4.1898142968380E-01
   109  1.0800000000000E+00 -1.5031079359249E-02 -4.5081996957839E-01
   110  1.0900000000000E+00  6.0355030129517E-03 -4.7712607837828E-01
   111  1.1000000000000E+00  2.5184652428683E-02 -4.9765715460531E-01
   112  1.1100000000000E+00  4.2264978222956E-02 -5.1220680287006E-01
   113  1.1200000000000E+00  5.7140055686726E-02 -5.2060339138225E-01
   114  1.1300000000000E+00  6.9684228377300E-02 -5.2269436067326E-01
   115  1.1400000000000E+00  7.9781394531274E-02 -5.1834174701954E-01
   116  1.1500000000000E+00  8.7325749249551E-02 -5.0742471897154E-01
   117  1.1600000000000E+00  9.2222503676627E-02 -4.8984205886882E-01
   118  1.1700000000000E+00  9.4388576518295E-02 -4.6551456322577E-01
   119  1.1800000000000E+00  9.3753193403255E-02 -4.3438720330292E-01
   120  1.1900000000000E+00  9.0258494513969E-02 -3.9643125285034E-01
   121  1.2000000000000E+00  8.3847663865919E-02 -3.5161964575916E-01
   122  1.2100000000000E+00  7.4482955243142E-02 -2.9996483570536E-01
   123  1.2200000000000E+00  6.2161212908068E-02 -2.4155418515715E-01
   124  1.2300000000000E+00  4.6890252561632E-02 -1.7650105101918E-01
   125  1.2400000000000E+00  2.8878027008124E-02 -1.0560377836888E-01
   126  1.2500000000000E+00  6.1444915093228E-03 -2.1996653115771E-02
   127  1.2600000000000E+00 -3.6941926089981E-04  1.3188586734467E-03
   128  1.2700000000000E+00 -3.0141486180520E-05  1.0857493335327E-04
   129  1.28  0.  0.
   130  1.29  0.  0.
   131  1.30  0.  0.
   132  1.31  0.  0.
   133  1.32  0.  0.
   134  1.33  0.  0.
   135  1.34  0.  0.
   136  1.35  0.  0.
   137  1.36  0.  0.
   138  1.37  0.  0.
   139  1.38  0.  0.
   140  1.39  0.  0.
   141  1.40  0.  0.
   142  1.41  0.  0.
   143  1.42  0.  0.
   144  1.43  0.  0.
   145  1.44  0.  0.
   146  1.45  0.  0.
   147  1.46  0.  0.
   148  1.47  0.  0.
   149  1.48  0.  0.
   150  1.49  0.  0.
   151  1.50  0.  0.
   152  1.51  0.  0.
   153  1.52  0.  0.
   154  1.53  0.  0.
   155  1.54  0.  0.
   156  1.55  0.  0.
   157  1.56  0.  0.
   158  1.57  0.  0.
   159  1.58  0.  0.
   160  1.59  0.  0.
   161  1.60  0.  0.
   162  1.61  0.  0.
   163  1.62  0.  0.
   164  1.63  0.  0.
   165  1.64  0.  0.
   166  1.65  0.  0.
   167  1.66  0.  0.
   168  1.67  0.  0.
   169  1.68  0.  0.
   170  1.69  0.  0.
   171  1.70  0.  0.
   172  1.71  0.  0.
   173  1.72  0.  0.
   174  1.73  0.  0.
   175  1.74  0.  0.
   176  1.75  0.  0.
   177  1.76  0.  0.
   178  1.77  0.  0.
   179  1.78  0.  0.
   180  1.79  0.  0.
   181  1.80  0.  0.
   182  1.81  0.  0.
   183  1.82  0.  0.
   184  1.83  0.  0.
   185  1.84  0.  0.
   186  1.85  0.  0.
   187  1.86  0.  0.
   188  1.87  0.  0.
   189  1.88  0.  0.
   190  1.89  0.  0.
   191  1.90  0.  0.
   192  1.91  0.  0.
   193  1.92  0.  0.
   194  1.93  0.  0.
   195  1.94  0.  0.
   196  1.95  0.  0.
   197  1.96  0.  0.
   198  1.97  0.  0.
   199  1.98  0.  0.
   200  1.99  0.  0.
   201  2.00  0.  0.
   202  2.01  0.  0.
   203  2.02  0.  0.
   204  2.03  0.  0.
   205  2.04  0.  0.
   206  2.05  0.  0.
   207  2.06  0.  0.
   208  2.07  0.  0.
   209  2.08  0.  0.
   210  2.09  0.  0.
   211  2.10  0.  0.
   212  2.11  0.  0.
   213  2.12  0.  0.
   214  2.13  0.  0.
   215  2.14  0.  0.
   216  2.15  0.  0.
   217  2.16  0.  0.
   218  2.17  0.  0.
   219  2.18  0.  0.
   220  2.19  0.  0.
   221  2.20  0.  0.
   222  2.21  0.  0.
   223  2.22  0.  0.
   224  2.23  0.  0.
   225  2.24  0.  0.
   226  2.25  0.  0.
   227  2.26  0.  0.
   228  2.27  0.  0.
   229  2.28  0.  0.
   230  2.29  0.  0.
   231  2.30  0.  0.
   232  2.31  0.  0.
   233  2.32  0.  0.
   234  2.33  0.  0.
   235  2.34  0.  0.
   236  2.35  0.  0.
   237  2.36  0.  0.
   238  2.37  0.  0.
   239  2.38  0.  0.
   240  2.39  0.  0.
   241  2.40  0.  0.
   242  2.41  0.  0.
   243  2.42  0.  0.
   244  2.43  0.  0.
   245  2.44  0.  0.
   246  2.45  0.  0.
   247  2.46  0.  0.
   248  2.47  0.  0.
   249  2.48  0.  0.
   250  2.49  0.  0.
   251  2.50  0.  0.
   252  2.51  0.  0.
   253  2.52  0.  0.
   254  2.53  0.  0.
   255  2.54  0.  0.
   256  2.55  0.  0.
   257  2.56  0.  0.
   258  2.57  0.  0.
   259  2.58  0.  0.
   260  2.59  0.  0.
   261  2.60  0.  0.
   262  2.61  0.  0.
   263  2.62  0.  0.
   264  2.63  0.  0.
   265  2.64  0.  0.
   266  2.65  0.  0.
   267  2.66  0.  0.
   268  2.67  0.  0.
   269  2.68  0.  0.
   270  2.69  0.  0.
   271  2.70  0.  0.
   272  2.71  0.  0.
   273  2.72  0.  0.
   274  2.73  0.  0.
   275  2.74  0.  0.
   276  2.75  0.  0.
   277  2.76  0.  0.
   278  2.77  0.  0.
   279  2.78  0.  0.
   280  2.79  0.  0.
   281  2.80  0.  0.
   282  2.81  0.  0.
   283  2.82  0.  0.
   284  2.83  0.  0.
   285  2.84  0.  0.
   286  2.85  0.  0.
   287  2.86  0.  0.
   288  2.87  0.  0.
   289  2.88  0.  0.
   290  2.89  0.  0.
   291  2.90  0.  0.
   292  2.91  0.  0.
   293  2.92  0.  0.
   294  2.93  0.  0.
   295  2.94  0.  0.
   296  2.95  0.  0.
   297  2.96  0.  0.
   298  2.97  0.  0.
   299  2.98  0.  0.
   300  2.99  0.  0.
   301  3.00  0.  0.
   302  3.01  0.  0.
   303  3.02  0.  0.
   304  3.03  0.  0.
   305  3.04  0.  0.
   306  3.05  0.  0.
   307  3.06  0.  0.
   308  3.07  0.  0.
   309  3.08  0.  0.
   310  3.09  0.  0.
   311  3.10  0.  0.
   312  3.11  0.  0.
   313  3.12  0.  0.
   314  3.13  0.  0.
   315  3.14  0.  0.
   316  3.15  0.  0.
   317  3.16  0.  0.
   318  3.17  0.  0.
   319  3.18  0.  0.
   320  3.19  0.  0.
   321  3.20  0.  0.
   322  3.21  0.  0.
   323  3.22  0.  0.
   324  3.23  0.  0.
   325  3.24  0.  0.
   326  3.25  0.  0.
   327  3.26  0.  0.
   328  3.27  0.  0.
   329  3.28  0.  0.
   330  3.29  0.  0.
   331  3.30  0.  0.
   332  3.31  0.  0.
   333  3.32  0.  0.
   334  3.33  0.  0.
   335  3.34  0.  0.
   336  3.35  0.  0.
   337  3.36  0.  0.
   338  3.37  0.  0.
   339  3.38  0.  0.
   340  3.39  0.  0.
   341  3.40  0.  0.
   342  3.41  0.  0.
   343  3.42  0.  0.
   344  3.43  0.  0.
   345  3.44  0.  0.
   346  3.45  0.  0.
   347  3.46  0.  0.
   348  3.47  0.  0.
   349  3.48  0.  0.
   350  3.49  0.  0.
   351  3.50  0.  0.
   352  3.51  0.  0.
   353  3.52  0.  0.
   354  3.53  0.  0.
   355  3.54  0.  0.
   356  3.55  0.  0.
   357  3.56  0.  0.
   358  3.57  0.  0.
   359  3.58  0.  0.
   360  3.59  0.  0.
   361  3.60  0.  0.
   362  3.61  0.  0.
   363  3.62  0.  0.
   364  3.63  0.  0.
   365  3.64  0.  0.
   366  3.65  0.  0.
   367  3.66  0.  0.
   368  3.67  0.  0.
   369  3.68  0.  0.
   370  3.69  0.  0.
   371  3.70  0.  0.
   372  3.71  0.  0.
   373  3.72  0.  0.
   374  3.73  0.  0.
   375  3.74  0.  0.
   376  3.75  0.  0.
   377  3.76  0.  0.
   378  3.77  0.  0.
   379  3.78  0.  0.
   380  3.79  0.  0.
   381  3.80  0.  0.
   382  3.81  0.  0.
   383  3.82  0.  0.
   384  3.83  0.  0.
   385  3.84  0.  0.
   386  3.85  0.  0.
   387  3.86  0.  0.
   388  3.87  0.  0.
   389  3.88  0.  0.
   390  3.89  0.  0.
   391  3.90  0.  0.
   392  3.91  0.  0.
   393  3.92  0.  0.
   394  3.93  0.  0.
   395  3.94  0.  0.
   396  3.95  0.  0.
   397  3.96  0.  0.
   398  3.97  0.  0.
   399  3.98  0.  0.
   400  3.99  0.  0.
   401  4.00  0.  0.
   402  4.01  0.  0.
   403  4.02  0.  0.
   404  4.03  0.  0.
   405  4.04  0.  0.
   406  4.05  0.  0.
   407  4.06  0.  0.
   408  4.07  0.  0.
   409  4.08  0.  0.
   410  4.09  0.  0.
   411  4.10  0.  0.
   412  4.11  0.  0.
   413  4.12  0.  0.
   414  4.13  0.  0.
   415  4.14  0.  0.
   416  4.15  0.  0.
   417  4.16  0.  0.
   418  4.17  0.  0.
   419  4.18  0.  0.
   420  4.19  0.  0.
   421  4.20  0.  0.
   422  4.21  0.  0.
   423  4.22  0.  0.
   424  4.23  0.  0.
   425  4.24  0.  0.
   426  4.25  0.  0.
   427  4.26  0.  0.
   428  4.27  0.  0.
   429  4.28  0.  0.
   430  4.29  0.  0.
   431  4.30  0.  0.
   432  4.31  0.  0.
   433  4.32  0.  0.
   434  4.33  0.  0.
   435  4.34  0.  0.
   436  4.35  0.  0.
   437  4.36  0.  0.
   438  4.37  0.  0.
   439  4.38  0.  0.
   440  4.39  0.  0.
   441  4.40  0.  0.
   442  4.41  0.  0.
   443  4.42  0.  0.
   444  4.43  0.  0.
   445  4.44  0.  0.
   446  4.45  0.  0.
   447  4.46  0.  0.
   448  4.47  0.  0.
   449  4.48  0.  0.
   450  4.49  0.  0.
   451  4.50  0.  0.
   452  4.51  0.  0.
   453  4.52  0.  0.
   454  4.53  0.  0.
   455  4.54  0.  0.
   456  4.55  0.  0.
   457  4.56  0.  0.
   458  4.57  0.  0.
   459  4.58  0.  0.
   460  4.59  0.  0.
   461  4.60  0.  0.
   462  4.61  0.  0.
   463  4.62  0.  0.
   464  4.63  0.  0.
   465  4.64  0.  0.
   466  4.65  0.  0.
   467  4.66  0.  0.
   468  4.67  0.  0.
   469  4.68  0.  0.
   470  4.69  0.  0.
   471  4.70  0.  0.
   472  4.71  0.  0.
   473  4.72  0.  0.
   474  4.73  0.  0.
   475  4.74  0.  0.
   476  4.75  0.  0.
   477  4.76  0.  0.
   478  4.77  0.  0.
   479  4.78  0.  0.
   480  4.79  0.  0.
   481  4.80  0.  0.
   482  4.81  0.  0.
   483  4.82  0.  0.
   484  4.83  0.  0.
   485  4.84  0.  0.
   486  4.85  0.  0.
   487  4.86  0.  0.
   488  4.87  0.  0.
   489  4.88  0.  0.
   490  4.89  0.  0.
   491  4.90  0.  0.
   492  4.91  0.  0.
   493  4.92  0.  0.
   494  4.93  0.  0.
   495  4.94  0.  0.
   496  4.95  0.  0.
   497  4.96  0.  0.
   498  4.97  0.  0.
   499  4.98  0.  0.
   500  4.99  0.  0.
   501  5.00  0.  0.
   502  5.01  0.  0.
   503  5.02  0.  0.
   504  5.03  0.  0.
   505  5.04  0.  0.
   506  5.05  0.  0.
   507  5.06  0.  0.
   508  5.07  0.  0.
   509  5.08  0.  0.
   510  5.09  0.  0.
   511  5.10  0.  0.
   512  5.11  0.  0.
   513  5.12  0.  0.
   514  5.13  0.  0.
   515  5.14  0.  0.
   516  5.15  0.  0.
   517  5.16  0.  0.
   518  5.17  0.  0.
   519  5.18  0.  0.
   520  5.19  0.  0.
   521  5.20  0.  0.
   522  5.21  0.  0.
   523  5.22  0.  0.
   524  5.23  0.  0.
   525  5.24  0.  0.
   526  5.25  0.  0.
   527  5.26  0.  0.
   528  5.27  0.  0.
   529  5.28  0.  0.
   530  5.29  0.  0.
   531  5.30  0.  0.
   532  5.31  0.  0.
   533  5.32  0.  0.
   534  5.33  0.  0.
   535  5.34  0.  0.
   536  5.35  0.  0.
   537  5.36  0.  0.
   538  5.37  0.  0.
   539  5.38  0.  0.
   540  5.39  0.  0.
   541  5.40  0.  0.
   542  5.41  0.  0.
   543  5.42  0.  0.
   544  5.43  0.  0.
   545  5.44  0.  0.
   546  5.45  0.  0.
   547  5.46  0.  0.
   548  5.47  0.  0.
   549  5.48  0.  0.
   550  5.49  0.  0.
   551  5.50  0.  0.
   552  5.51  0.  0.
   553  5.52  0.  0.
   554  5.53  0.  0.
   555  5.54  0.  0.
   556  5.55  0.  0.
   557  5.56  0.  0.
   558  5.57  0.  0.
   559  5.58  0.  0.
   560  5.59  0.  0.
   561  5.60  0.  0.
   562  5.61  0.  0.
   563  5.62  0.  0.
   564  5.63  0.  0.
   565  5.64  0.  0.
   566  5.65  0.  0.
   567  5.66  0.  0.
   568  5.67  0.  0.
   569  5.68  0.  0.
   570  5.69  0.  0.
   571  5.70  0.  0.
   572  5.71  0.  0.
   573  5.72  0.  0.
   574  5.73  0.  0.
   575  5.74  0.  0.
   576  5.75  0.  0.
   577  5.76  0.  0.
   578  5.77  0.  0.
   579  5.78  0.  0.
   580  5.79  0.  0.
   581  5.80  0.  0.
   582  5.81  0.  0.
   583  5.82  0.  0.
   584  5.83  0.  0.
   585  5.84  0.  0.
   586  5.85  0.  0.
   587  5.86  0.  0.
   588  5.87  0.  0.
   589  5.88  0.  0.
   590  5.89  0.  0.
   591  5.90  0.  0.
   592  5.91  0.  0.
   593  5.92  0.  0.
   594  5.93  0.  0.
   595  5.94  0.  0.
   596  5.95  0.  0.
   597  5.96  0.  0.
   598  5.97  0.  0.
   599  5.98  0.  0.
   600  5.99  0.  0.
   1                         1.6007284903921E+00 -5.0793368031350E-01
     1  0.0000000000000E+00 -1.2089595990972E-09 -2.9601402813315E-09
     2  1.0000000000000E-02  3.5177528657528E-03 -5.5549869150514E-05
     3  2.0000000000000E-02  1.4045759607047E-02 -2.1349881836313E-04
     4  3.0000000000000E-02  3.1508382854061E-02 -4.4786721730226E-04
     5  4.0000000000000E-02  5.5779955365389E-02 -7.1576180966880E-04
     6  5.0000000000000E-02  8.6685376201956E-02 -9.5797902604370E-04
     7  6.0000000000000E-02  1.2400095238774E-01 -1.0998379596635E-03
     8  7.0000000000000E-02  1.6745549260177E-01 -1.0522315626370E-03
     9  8.0000000000000E-02  2.1673166065481E-01 -7.1288165997359E-04
    10  9.0000000000000E-02  2.7146759724417E-01  3.2219356598439E-05
    11  1.0000000000000E-01  3.3125881867543E-01  1.3071997631777E-03
    12  1.1000000000000E-01  3.9566040082952E-01  3.2445544415148E-03
    13  1.2000000000000E-01  4.6418945559667E-01  5.9832691284872E-03
    14  1.3000000000000E-01  5.3632790527192E-01  9.6668480587774E-03
    15  1.4000000000000E-01  6.1152555800756E-01  1.4441271177480E-02
    16  1.5000000000000E-01  6.8920348436372E-01  2.0452907802216E-02
    17  1.6000000000000E-01  7.6875769133050E-01  2.7846413921077E-02
    18  1.7000000000000E-01  8.4956308596893E-01  3.6762640222205E-02
    19  1.8000000000000E-01  9.3097771611533E-01  4.7336577472355E-02
    20  1.9000000000000E-01  1.0123472705067E+00  5.9695365008550E-02
    21  2.0000000000000E-01  1.0930098153268E+00  7.3956386899508E-02
    22  2.1000000000000E-01  1.1723007386630E+00  9.0225478797591E-02
    23  2.2000000000000E-01  1.2495578688428E+00  1.0859526666879E-01
    24  2.3000000000000E-01  1.3241267272153E+00  1.2914365649277E-01
    25  2.4000000000000E-01  1.3953658708142E+00  1.5193249170664E-01
    26  2.5000000000000E-01  1.4626522756124E+00  1.7700639266640E-01
    27  2.6000000000000E-01  1.5253867069062E+00  2.0439178976352E-01
    28  2.7000000000000E-01  1.5829990198737E+00  2.3409615910507E-01
    29  2.8000000000000E-01  1.6349533306602E+00  2.6610746689107E-01
    30  2.9000000000000E-01  1.6807529965584E+00  3.0039382584541E-01
    31  3.0000000000000E-01  1.7199453430654E+00  3.3690336432175E-01
    32  3.1000000000000E-01  1.7521260758788E+00  3.7556430605406E-01
    33  3.2000000000000E-01  1.7769433172872E+00  4.1628525599061E-01
    34  3.3000000000000E-01  1.7941012089455E+00  4.5895568527652E-01
    35  3.4000000000000E-01  1.8033630266929E+00  5.0344660626227E-01
    36  3.5000000000000E-01  1.8045537578537E+00  5.4961142644176E-01
    37  3.6000000000000E-01  1.7975620973016E+00  5.9728696848339E-01
    38  3.7000000000000E-01  1.7823418253843E+00  6.4629464202770E-01
    39  3.8000000000000E-01  1.7589125385119E+00  6.9644175169612E-01
    40  3.9000000000000E-01  1.7273597116664E+00  7.4752292479242E-01
    41  4.0000000000000E-01  1.6878340811664E+00  7.9932164148175E-01
    42  4.1000000000000E-01  1.6405503455466E+00  8.5161184979707E-01
    43  4.2000000000000E-01  1.5857851922239E+00  9.0415964763961E-01
    44  4.3000000000000E-01  1.5238746675287E+00  9.5672501399549E-01
    45  4.4000000000000E-01  1.4552109174988E+00  1.0090635718668E+00
    46  4.5000000000000E-01  1.3802383363653E+00  1.0609283658929E+00
    47  4.6000000000000E-01  1.2994491687251E+00  1.1120716382913E+00
    48  4.7000000000000E-01  1.2133786197994E+00  1.1622465875569E+00
    49  4.8000000000000E-01  1.1225995357595E+00  1.2112090952907E+00
    50  4.9000000000000E-01  1.0277167226957E+00  1.2587194075639E+00
    51  5.0000000000000E-01  9.2936097827950E-01  1.3045437583348E+00
    52  5.1000000000000E-01  8.2818291439522E-01  1.3484559235901E+00
    53  5.2000000000000E-01  7.2484665191912E-01  1.3902386960668E+00
    54  5.3000000000000E-01  6.2002347031575E-01  1.4296852715973E+00
    55  5.4000000000000E-01  5.1438549478163E-01  1.4666005392859E+00
    56  5.5000000000000E-01  4.0859950227918E-01  1.5008022688649E+00
    57  5.6000000000000E-01  3.0332092499391E-01  1.5321221896633E+00
    58  5.7000000000000E-01  1.9918812556829E-01  1.5604069566548E+00
    59  5.8000000000000E-01  9.6817012998790E-02  1.5855190000170E+00
    60  5.9000000000000E-01 -3.2039385649753E-03  1.6073372555351E+00
    61  6.0000000000000E-01 -1.0031821357006E-01  1.6257577740096E+00
    62  6.1000000000000E-01 -1.9400527538903E-01  1.6406942085966E+00
    63  6.2000000000000E-01 -2.8378404654755E-01  1.6520781797068E+00
    64  6.3000000000000E-01 -3.6921582197991E-01  1.6598595177460E+00
    65  6.4000000000000E-01 -4.4990659857103E-01  1.6640063845765E+00
    66  6.5000000000000E-01 -5.2550881447989E-01  1.6645052751589E+00
    67  6.6000000000000E-01 -5.9572250187662E-01  1.6613609013773E+00
    68  6.7000000000000E-01 -6.6029586655348E-01  1.6545959605914E+00
    69  6.8000000000000E-01 -7.1902531718772E-01  1.6442507919994E+00
    70  6.9000000000000E-01 -7.7175497565859E-01  1.6303829244430E+00
    71  7.0000000000000E-01 -8.1837570757198E-01  1.6130665198594E+00
    72  7.1000000000000E-01 -8.5882371888146E-01  1.5923917171799E+00
    73  7.2000000000000E-01 -8.9307877007861E-01  1.5684638821060E+00
    74  7.3000000000000E-01 -9.2116206376101E-01  1.5414027688585E+00
    75  7.4000000000000E-01 -9.4313386439955E-01  1.5113416006918E+00
    76  7.5000000000000E-01 -9.5909091077303E-01  1.4784260766956E+00
    77  7.6000000000000E-01 -9.6916368180875E-01  1.4428133131579E+00
    78  7.7000000000000E-01 -9.7351357547944E-01  1.4046707285309E+00
    79  7.8000000000000E-01 -9.7233005801237E-01  1.3641748818090E+00
    80  7.9000000000000E-01 -9.6582783704072E-01  1.3215102748829E+00
    81  8.0000000000000E-01 -9.5424410758239E-01  1.2768681301615E+00
    82  8.1000000000000E-01 -9.3783591399139E-01  1.2304451554237E+00
    83  8.2000000000000E-01 -9.1687766444822E-01  1.1824423084717E+00
    84  8.3000000000000E-01 -8.9165882730525E-01  1.1330635746681E+00
    85  8.4000000000000E-01 -8.6248183086262E-01  1.0825147708411E+00
    86  8.5000000000000E-01 -8.2966018011088E-01  1.0310023893112E+00
    87  8.6000000000000E-01 -7.9351679583381E-01  9.7873249590598E-01
    88  8.7000000000000E-01 -7.5438257341029E-01  9.2590969577614E-01
    89  8.8000000000000E-01 -7.1259515087757E-01  8.7273618058456E-01
    90  8.9000000000000E-01 -6.6849786849857E-01  8.1941087020166E-01
    91  9.0000000000000E-01 -6.2243889537452E-01  7.6612866139687E-01
    92  9.1000000000000E-01 -5.7477049270925E-01  7.1307979516062E-01
    93  9.2000000000000E-01 -5.2584837828652E-01  6.6044935322637E-01
    94  9.3000000000000E-01 -4.7603115266572E-01  6.0841689309145E-01
    95  9.4000000000000E-01 -4.2567974460881E-01  5.5715622936778E-01
    96  9.5000000000000E-01 -3.7515683136643E-01  5.0683536764453E-01
    97  9.6000000000000E-01 -3.2482618869142E-01  4.5761659523137E-01
    98  9.7000000000000E-01 -2.7505192579938E-01  4.0965673119915E-01
    99  9.8000000000000E-01 -2.2619756191971E-01  3.6310753606826E-01
   100  9.9000000000000E-01 -1.7862490350770E-01  3.1811627934854E-01
   101  1.0000000000000E+00 -1.3269268452840E-01  2.7482646093913E-01
   102  1.0100000000000E+00 -8.8754936359460E-02  2.3337868019049E-01
   103  1.0200000000000E+00 -4.7159058666222E-02  1.9391164424921E-01
   104  1.0300000000000E+00 -8.2435679238090E-03  1.5656330519079E-01
   105  1.0400000000000E+00  2.7664494058259E-02  1.2147211343266E-01
   106  1.0500000000000E+00  6.0252503369230E-02  8.8778373044881E-02
   107  1.0600000000000E+00  8.9225554845004E-02  5.8625682879830E-02
   108  1.0700000000000E+00  1.1431012061238E-01  3.1162445951348E-02
   109  1.0800000000000E+00  1.3525806092512E-01  6.5434282408219E-03
   110  1.0900000000000E+00  1.5185097768412E-01 -1.5068652398769E-02
   111  1.1000000000000E+00  1.6390487678332E-01 -3.3501538812126E-02
   112  1.1100000000000E+00  1.7127515319734E-01 -4.8571850190553E-02
   113  1.1200000000000E+00  1.7385244448248E-01 -6.0088897115583E-02
   114  1.1300000000000E+00  1.7153608868142E-01 -6.7870102995844E-02
   115  1.1400000000000E+00  1.6422386639393E-01 -7.1746020035637E-02
   116  1.1500000000000E+00  1.5174550492032E-01 -7.1551915353348E-02
   117  1.1600000000000E+00  1.3391973466368E-01 -6.7135500497806E-02
   118  1.1700000000000E+00  1.1071758144971E-01 -5.8371241882040E-02
   119  1.1800000000000E+00  8.2087611537071E-02 -4.5137749814731E-02
   120  1.1900000000000E+00  4.8437960155542E-02 -2.7608370929795E-02
   121  1.2000000000000E+00  5.9156594998202E-03 -3.4185261564502E-03
   122  1.2100000000000E+00  2.7645709765565E-04 -1.6273891780053E-04
   123  1.2200000000000E+00 -7.7911745470654E-05  4.5878946551467E-05
   124  1.23  0.  0.
   125  1.24  0.  0.
   126  1.25  0.  0.
   127  1.26  0.  0.
   128  1.27  0.  0.
   129  1.28  0.  0.
   130  1.29  0.  0.
   131  1.30  0.  0.
   132  1.31  0.  0.
   133  1.32  0.  0.
   134  1.33  0.  0.
   135  1.34  0.  0.
   136  1.35  0.  0.
   137  1.36  0.  0.
   138  1.37  0.  0.
   139  1.38  0.  0.
   140  1.39  0.  0.
   141  1.40  0.  0.
   142  1.41  0.  0.
   143  1.42  0.  0.
   144  1.43  0.  0.
   145  1.44  0.  0.
   146  1.45  0.  0.
   147  1.46  0.  0.
   148  1.47  0.  0.
   149  1.48  0.  0.
   150  1.49  0.  0.
   151  1.50  0.  0.
   152  1.51  0.  0.
   153  1.52  0.  0.
   154  1.53  0.  0.
   155  1.54  0.  0.
   156  1.55  0.  0.
   157  1.56  0.  0.
   158  1.57  0.  0.
   159  1.58  0.  0.
   160  1.59  0.  0.
   161  1.60  0.  0.
   162  1.61  0.  0.
   163  1.62  0.  0.
   164  1.63  0.  0.
   165  1.64  0.  0.
   166  1.65  0.  0.
   167  1.66  0.  0.
   168  1.67  0.  0.
   169  1.68  0.  0.
   170  1.69  0.  0.
   171  1.70  0.  0.
   172  1.71  0.  0.
   173  1.72  0.  0.
   174  1.73  0.  0.
   175  1.74  0.  0.
   176  1.75  0.  0.
   177  1.76  0.  0.
   178  1.77  0.  0.
   179  1.78  0.  0.
   180  1.79  0.  0.
   181  1.80  0.  0.
   182  1.81  0.  0.
   183  1.82  0.  0.
   184  1.83  0.  0.
   185  1.84  0.  0.
   186  1.85  0.  0.
   187  1.86  0.  0.
   188  1.87  0.  0.
   189  1.88  0.  0.
   190  1.89  0.  0.
   191  1.90  0.  0.
   192  1.91  0.  0.
   193  1.92  0.  0.
   194  1.93  0.  0.
   195  1.94  0.  0.
   196  1.95  0.  0.
   197  1.96  0.  0.
   198  1.97  0.  0.
   199  1.98  0.  0.
   200  1.99  0.  0.
   201  2.00  0.  0.
   202  2.01  0.  0.
   203  2.02  0.  0.
   204  2.03  0.  0.
   205  2.04  0.  0.
   206  2.05  0.  0.
   207  2.06  0.  0.
   208  2.07  0.  0.
   209  2.08  0.  0.
   210  2.09  0.  0.
   211  2.10  0.  0.
   212  2.11  0.  0.
   213  2.12  0.  0.
   214  2.13  0.  0.
   215  2.14  0.  0.
   216  2.15  0.  0.
   217  2.16  0.  0.
   218  2.17  0.  0.
   219  2.18  0.  0.