Fe    ONCVPSP-4.0.1  r_core=   1.25330   1.20190   1.55447
     26.0000     16.0000      231019    zatom,zion,pspd
     8       2   2     4   600     0    pspcod,pspxc,lmax,lloc,mmax,r2well
  5.99000000  3.00000000  0.00000000    rchrg fchrg qchrg
     2     2     2     0     0    nproj
     1     1           extension_switch
   0                         1.0201644436079E+01  1.4602961346457E+00
     1  0.0000000000000E+00  5.0015125374614E-10 -1.0955608642504E-09
     2  1.0000000000000E-02  9.4288147965964E-02 -2.6338456928344E-02
     3  2.0000000000000E-02  1.8830470552387E-01 -5.2467440827372E-02
     4  3.0000000000000E-02  2.8177873479862E-01 -7.8178000581791E-02
     5  4.0000000000000E-02  3.7444060675049E-01 -1.0326223831052E-01
     6  5.0000000000000E-02  4.6602266488484E-01 -1.2751385921016E-01
     7  6.0000000000000E-02  5.5625989974652E-01 -1.5072874846679E-01
     8  7.0000000000000E-02  6.4489063719214E-01 -1.7270558293846E-01
     9  8.0000000000000E-02  7.3165724293336E-01 -1.9324648421513E-01
    10  9.0000000000000E-02  8.1630684523814E-01 -2.1215771833807E-01
    11  1.0000000000000E-01  8.9859207697777E-01 -2.2925044593499E-01
    12  1.1000000000000E-01  9.7827183742830E-01 -2.4434152483354E-01
    13  1.2000000000000E-01  1.0551120733930E+00 -2.5725436539099E-01
    14  1.3000000000000E-01  1.1288865783242E+00 -2.6781983686148E-01
    15  1.4000000000000E-01  1.1993778072066E+00 -2.7587722115719E-01
    16  1.5000000000000E-01  1.2663777040409E+00 -2.8127520838831E-01
    17  1.6000000000000E-01  1.3296885378519E+00 -2.8387292663519E-01
    18  1.7000000000000E-01  1.3891237422633E+00 -2.8354099655656E-01
    19  1.8000000000000E-01  1.4445087528507E+00 -2.8016259971493E-01
    20  1.9000000000000E-01  1.4956818357157E+00 -2.7363454794406E-01
    21  2.0000000000000E-01  1.5424949000525E+00 -2.6386833973277E-01
    22  2.1000000000000E-01  1.5848142868958E+00 -2.5079118848875E-01
    23  2.2000000000000E-01  1.6225215257849E+00 -2.3434700670502E-01
    24  2.3000000000000E-01  1.6555140507451E+00 -2.1449732950707E-01
    25  2.4000000000000E-01  1.6837058667988E+00 -1.9122216082851E-01
    26  2.5000000000000E-01  1.7070281581712E+00 -1.6452072556246E-01
    27  2.6000000000000E-01  1.7254298294673E+00 -1.3441211147096E-01
    28  2.7000000000000E-01  1.7388779713549E+00 -1.0093578540717E-01
    29  2.8000000000000E-01  1.7473582427055E+00 -6.4151969508344E-02
    30  2.9000000000000E-01  1.7508751617126E+00 -2.4141864438452E-02
    31  3.0000000000000E-01  1.7494522992144E+00  1.8992291520312E-02
    32  3.1000000000000E-01  1.7431323682960E+00  6.5127336735128E-02
    33  3.2000000000000E-01  1.7319772052158E+00  1.1411948082298E-01
    34  3.3000000000000E-01  1.7160676377778E+00  1.6580478411859E-01
    35  3.4000000000000E-01  1.6955032384500E+00  2.1999982394334E-01
    36  3.5000000000000E-01  1.6704019607729E+00  2.7650254688976E-01
    37  3.6000000000000E-01  1.6408996589106E+00  3.3509330355072E-01
    38  3.7000000000000E-01  1.6071494915365E+00  3.9553605931818E-01
    39  3.8000000000000E-01  1.5693212125977E+00  4.5757977211042E-01
    40  3.9000000000000E-01  1.5276003528485E+00  5.2095992520727E-01
    41  4.0000000000000E-01  1.4821872973530E+00  5.8540020083608E-01
    42  4.1000000000000E-01  1.4332962654174E+00  6.5061427780428E-01
    43  4.2000000000000E-01  1.3811542005934E+00  7.1630773436861E-01
    44  4.3000000000000E-01  1.3259995794831E+00  7.8218003570509E-01
    45  4.4000000000000E-01  1.2680811490451E+00  8.4792658384397E-01
    46  4.5000000000000E-01  1.2076566029465E+00  9.1324080678602E-01
    47  4.6000000000000E-01  1.1449912081940E+00  9.7781626275506E-01
    48  4.7000000000000E-01  1.0803563938189E+00  1.0413487351818E+00
    49  4.8000000000000E-01  1.0140283137533E+00  1.1035382940721E+00
    50  4.9000000000000E-01  9.4628639623045E-01  1.1640912998920E+00
    51  5.0000000000000E-01  8.7741189205701E-01  1.2227223270006E+00
    52  5.1000000000000E-01  8.0768643393920E-01  1.2791559849662E+00
    53  5.2000000000000E-01  7.3739061870958E-01  1.3331286177966E+00
    54  5.3000000000000E-01  6.6680262379142E-01  1.3843898631696E+00
    55  5.4000000000000E-01  5.9619686857142E-01  1.4327040561269E+00
    56  5.5000000000000E-01  5.2584273053761E-01  1.4778514643656E+00
    57  5.6000000000000E-01  4.5600332509243E-01  1.5196293451578E+00
    58  5.7000000000000E-01  3.8693435689072E-01  1.5578528170173E+00
    59  5.8000000000000E-01  3.1888304939614E-01  1.5923555424390E+00
    60  5.9000000000000E-01  2.5208715812094E-01  1.6229902213111E+00
    61  6.0000000000000E-01  1.8677407173453E-01  1.6496288978754E+00
    62  6.1000000000000E-01  1.2316000392035E-01  1.6721630873149E+00
    63  6.2000000000000E-01  6.1449277552810E-02  1.6905037311354E+00
    64  6.3000000000000E-01  1.8337014801932E-03  1.7045809933890E+00
    65  6.4000000000000E-01 -5.5507961039676E-02  1.7143439124302E+00
    66  6.5000000000000E-01 -1.1041043437445E-01  1.7197599252213E+00
    67  6.6000000000000E-01 -1.6272228622522E-01  1.7208142831775E+00
    68  6.7000000000000E-01 -2.1230620117798E-01  1.7175093801083E+00
    69  6.8000000000000E-01 -2.5903917710874E-01  1.7098640139428E+00
    70  6.9000000000000E-01 -3.0281265014878E-01  1.6979126045857E+00
    71  7.0000000000000E-01 -3.4353255445707E-01  1.6817043904229E+00
    72  7.1000000000000E-01 -3.8111932342305E-01  1.6613026256694E+00
    73  7.2000000000000E-01 -4.1550783912892E-01  1.6367837999256E+00
    74  7.3000000000000E-01 -4.4664733693461E-01  1.6082368999936E+00
    75  7.4000000000000E-01 -4.7450127191172E-01  1.5757627322177E+00
    76  7.5000000000000E-01 -4.9904715355036E-01  1.5394733213892E+00
    77  7.6000000000000E-01 -5.2027635470389E-01  1.4994913996258E+00
    78  7.7000000000000E-01 -5.3819390013185E-01  1.4559499956565E+00
    79  7.8000000000000E-01 -5.5281823926716E-01  1.4089921316603E+00
    80  7.9000000000000E-01 -5.6418100698700E-01  1.3587706312939E+00
    81  8.0000000000000E-01 -5.7232677522820E-01  1.3054480388588E+00
    82  8.1000000000000E-01 -5.7731279727975E-01  1.2491966457853E+00
    83  8.2000000000000E-01 -5.7920874553143E-01  1.1901986168140E+00
    84  8.3000000000000E-01 -5.7809644238315E-01  1.1286462045260E+00
    85  8.4000000000000E-01 -5.7406958295103E-01  1.0647420372785E+00
    86  8.5000000000000E-01 -5.6723344716772E-01  9.9869946222787E-01
    87  8.6000000000000E-01 -5.5770459789363E-01  9.3074292203346E-01
    88  8.7000000000000E-01 -5.4561056075445E-01  8.6110834111320E-01
    89  8.8000000000000E-01 -5.3108948062319E-01  7.9004349501787E-01
    90  8.9000000000000E-01 -5.1428974899199E-01  7.1780833467028E-01
    91  9.0000000000000E-01 -4.9536959594827E-01  6.4467523592196E-01
    92  9.1000000000000E-01 -4.7449664009741E-01  5.7092914415273E-01
    93  9.2000000000000E-01 -4.5184738957133E-01  4.9686758350432E-01
    94  9.3000000000000E-01 -4.2760668723858E-01  4.2280050081588E-01
    95  9.4000000000000E-01 -4.0196709339071E-01  3.4904991541934E-01
    96  9.5000000000000E-01 -3.7512819952341E-01  2.7594934764930E-01
    97  9.6000000000000E-01 -3.4729586735541E-01  2.0384300120595E-01
    98  9.7000000000000E-01 -3.1868138792680E-01  1.3308467734717E-01
    99  9.8000000000000E-01 -2.8950055647990E-01  6.4036402236130E-02
   100  9.9000000000000E-01 -2.5997265983573E-01 -2.9332474222519E-03
   101  1.0000000000000E+00 -2.3031937411894E-01 -6.7451131123054E-02
   102  1.0100000000000E+00 -2.0076357193298E-01 -1.2914184982773E-01
   103  1.0200000000000E+00 -1.7152803942114E-01 -1.8763037114037E-01
   104  1.0300000000000E+00 -1.4283410504201E-01 -2.4254497086515E-01
   105  1.0400000000000E+00 -1.1490018331063E-01 -2.9352048244143E-01
   106  1.0500000000000E+00 -8.7940238183375E-02 -3.4020184080277E-01
   107  1.0600000000000E+00 -6.2162172160894E-02 -3.8224790238887E-01
   108  1.0700000000000E+00 -3.7766148524182E-02 -4.1933551843591E-01
   109  1.0800000000000E+00 -1.4942855373147E-02 -4.5116383437452E-01
   110  1.0900000000000E+00  6.1282788861789E-03 -4.7745878483584E-01
   111  1.1000000000000E+00  2.5280904138014E-02 -4.9797773696253E-01
   112  1.1100000000000E+00  4.2363595919579E-02 -5.1251426691608E-01
   113  1.1200000000000E+00  5.7239900638513E-02 -5.2089671734566E-01
   114  1.1300000000000E+00  6.9784135584646E-02 -5.2297250279771E-01
   115  1.1400000000000E+00  7.9880174897684E-02 -5.1860363314718E-01
   116  1.1500000000000E+00  8.7422192428787E-02 -5.0766925200117E-01
   117  1.1600000000000E+00  9.2315381587921E-02 -4.9006812004696E-01
   118  1.1700000000000E+00  9.4476647510456E-02 -4.6572101720309E-01
   119  1.1800000000000E+00  9.3835207014934E-02 -4.3457290482194E-01
   120  1.1900000000000E+00  9.0333196803620E-02 -3.9659505497339E-01
   121  1.2000000000000E+00  8.3913798745241E-02 -3.5176040127964E-01
   122  1.2100000000000E+00  7.4539273022484E-02 -3.0008141199947E-01
   123  1.2200000000000E+00  6.2206484241354E-02 -2.4164548933844E-01
   124  1.2300000000000E+00  4.6923273657674E-02 -1.7656603953182E-01
   125  1.2400000000000E+00  2.8897747895940E-02 -1.0564169414931E-01
   126  1.2500000000000E+00  6.1485891798697E-03 -2.2004384678181E-02
   127  1.2600000000000E+00 -3.6966565884458E-04  1.3193236880309E-03
   128  1.2700000000000E+00 -3.0161824384120E-05  1.0861367594461E-04
   129  1.28  0. -0.
   130  1.29  0.  0.
   131  1.30  0.  0.
   132  1.31  0.  0.
   133  1.32  0.  0.
   134  1.33  0.  0.
   135  1.34  0.  0.
   136  1.35  0.  0.
   137  1.36  0.  0.
   138  1.37  0.  0.
   139  1.38  0.  0.
   140  1.39  0.  0.
   141  1.40  0.  0.
   142  1.41  0.  0.
   143  1.42  0.  0.
   144  1.43  0.  0.
   145  1.44  0.  0.
   146  1.45  0.  0.
   147  1.46  0.  0.
   148  1.47  0.  0.
   149  1.48  0.  0.
   150  1.49  0.  0.
   151  1.50  0.  0.
   152  1.51  0.  0.
   153  1.52  0.  0.
   154  1.53  0.  0.
   155  1.54  0.  0.
   156  1.55  0.  0.
   157  1.56  0.  0.
   158  1.57  0.  0.
   159  1.58  0.  0.
   160  1.59  0.  0.
   161  1.60  0.  0.
   162  1.61  0.  0.
   163  1.62  0.  0.
   164  1.63  0.  0.
   165  1.64  0.  0.
   166  1.65  0.  0.
   167  1.66  0.  0.
   168  1.67  0.  0.
   169  1.68  0.  0.
   170  1.69  0.  0.
   171  1.70  0.  0.
   172  1.71  0.  0.
   173  1.72  0.  0.
   174  1.73  0.  0.
   175  1.74  0.  0.
   176  1.75  0.  0.
   177  1.76  0.  0.
   178  1.77  0.  0.
   179  1.78  0.  0.
   180  1.79  0.  0.
   181  1.80  0.  0.
   182  1.81  0.  0.
   183  1.82  0.  0.
   184  1.83  0.  0.
   185  1.84  0.  0.
   186  1.85  0.  0.
   187  1.86  0.  0.
   188  1.87  0.  0.
   189  1.88  0.  0.
   190  1.89  0.  0.
   191  1.90  0.  0.
   192  1.91  0.  0.
   193  1.92  0.  0.
   194  1.93  0.  0.
   195  1.94  0.  0.
   196  1.95  0.  0.
   197  1.96  0.  0.
   198  1.97  0.  0.
   199  1.98  0.  0.
   200  1.99  0.  0.
   201  2.00  0.  0.
   202  2.01  0.  0.
   203  2.02  0.  0.
   204  2.03  0.  0.
   205  2.04  0.  0.
   206  2.05  0.  0.
   207  2.06  0.  0.
   208  2.07  0.  0.
   209  2.08  0.  0.
   210  2.09  0.  0.
   211  2.10  0.  0.
   212  2.11  0.  0.
   213  2.12  0.  0.
   214  2.13  0.  0.
   215  2.14  0.  0.
   216  2.15  0.  0.
   217  2.16  0.  0.
   218  2.17  0.  0.
   219  2.18  0.  0.
   220  2.19  0.  0.
   221  2.20  0.  0.
   222  2.21  0.  0.
   223  2.22  0.  0.
   224  2.23  0.  0.
   225  2.24  0.  0.
   226  2.25  0.  0.
   227  2.26  0.  0.
   228  2.27  0.  0.
   229  2.28  0.  0.
   230  2.29  0.  0.
   231  2.30  0.  0.
   232  2.31  0.  0.
   233  2.32  0.  0.
   234  2.33  0.  0.
   235  2.34  0.  0.
   236  2.35  0.  0.
   237  2.36  0.  0.
   238  2.37  0.  0.
   239  2.38  0.  0.
   240  2.39  0.  0.
   241  2.40  0.  0.
   242  2.41  0.  0.
   243  2.42  0.  0.
   244  2.43  0.  0.
   245  2.44  0.  0.
   246  2.45  0.  0.
   247  2.46  0.  0.
   248  2.47  0.  0.
   249  2.48  0.  0.
   250  2.49  0.  0.
   251  2.50  0.  0.
   252  2.51  0.  0.
   253  2.52  0.  0.
   254  2.53  0.  0.
   255  2.54  0.  0.
   256  2.55  0.  0.
   257  2.56  0.  0.
   258  2.57  0.  0.
   259  2.58  0.  0.
   260  2.59  0.  0.
   261  2.60  0.  0.
   262  2.61  0.  0.
   263  2.62  0.  0.
   264  2.63  0.  0.
   265  2.64  0.  0.
   266  2.65  0.  0.
   267  2.66  0.  0.
   268  2.67  0.  0.
   269  2.68  0.  0.
   270  2.69  0.  0.
   271  2.70  0.  0.
   272  2.71  0.  0.
   273  2.72  0.  0.
   274  2.73  0.  0.
   275  2.74  0.  0.
   276  2.75  0.  0.
   277  2.76  0.  0.
   278  2.77  0.  0.
   279  2.78  0.  0.
   280  2.79  0.  0.
   281  2.80  0.  0.
   282  2.81  0.  0.
   283  2.82  0.  0.
   284  2.83  0.  0.
   285  2.84  0.  0.
   286  2.85  0.  0.
   287  2.86  0.  0.
   288  2.87  0.  0.
   289  2.88  0.  0.
   290  2.89  0.  0.
   291  2.90  0.  0.
   292  2.91  0.  0.
   293  2.92  0.  0.
   294  2.93  0.  0.
   295  2.94  0.  0.
   296  2.95  0.  0.
   297  2.96  0.  0.
   298  2.97  0.  0.
   299  2.98  0.  0.
   300  2.99  0.  0.
   301  3.00  0.  0.
   302  3.01  0.  0.
   303  3.02  0.  0.
   304  3.03  0.  0.
   305  3.04  0.  0.
   306  3.05  0.  0.
   307  3.06  0.  0.
   308  3.07  0.  0.
   309  3.08  0.  0.
   310  3.09  0.  0.
   311  3.10  0.  0.
   312  3.11  0.  0.
   313  3.12  0.  0.
   314  3.13  0.  0.
   315  3.14  0.  0.
   316  3.15  0.  0.
   317  3.16  0.  0.
   318  3.17  0.  0.
   319  3.18  0.  0.
   320  3.19  0.  0.
   321  3.20  0.  0.
   322  3.21  0.  0.
   323  3.22  0.  0.
   324  3.23  0.  0.
   325  3.24  0.  0.
   326  3.25  0.  0.
   327  3.26  0.  0.
   328  3.27  0.  0.
   329  3.28  0.  0.
   330  3.29  0.  0.
   331  3.30  0.  0.
   332  3.31  0.  0.
   333  3.32  0.  0.
   334  3.33  0.  0.
   335  3.34  0.  0.
   336  3.35  0.  0.
   337  3.36  0.  0.
   338  3.37  0.  0.
   339  3.38  0.  0.
   340  3.39  0.  0.
   341  3.40  0.  0.
   342  3.41  0.  0.
   343  3.42  0.  0.
   344  3.43  0.  0.
   345  3.44  0.  0.
   346  3.45  0.  0.
   347  3.46  0.  0.
   348  3.47  0.  0.
   349  3.48  0.  0.
   350  3.49  0.  0.
   351  3.50  0.  0.
   352  3.51  0.  0.
   353  3.52  0.  0.
   354  3.53  0.  0.
   355  3.54  0.  0.
   356  3.55  0.  0.
   357  3.56  0.  0.
   358  3.57  0.  0.
   359  3.58  0.  0.
   360  3.59  0.  0.
   361  3.60  0.  0.
   362  3.61  0.  0.
   363  3.62  0.  0.
   364  3.63  0.  0.
   365  3.64  0.  0.
   366  3.65  0.  0.
   367  3.66  0.  0.
   368  3.67  0.  0.
   369  3.68  0.  0.
   370  3.69  0.  0.
   371  3.70  0.  0.
   372  3.71  0.  0.
   373  3.72  0.  0.
   374  3.73  0.  0.
   375  3.74  0.  0.
   376  3.75  0.  0.
   377  3.76  0.  0.
   378  3.77  0.  0.
   379  3.78  0.  0.
   380  3.79  0.  0.
   381  3.80  0.  0.
   382  3.81  0.  0.
   383  3.82  0.  0.
   384  3.83  0.  0.
   385  3.84  0.  0.
   386  3.85  0.  0.
   387  3.86  0.  0.
   388  3.87  0.  0.
   389  3.88  0.  0.
   390  3.89  0.  0.
   391  3.90  0.  0.
   392  3.91  0.  0.
   393  3.92  0.  0.
   394  3.93  0.  0.
   395  3.94  0.  0.
   396  3.95  0.  0.
   397  3.96  0.  0.
   398  3.97  0.  0.
   399  3.98  0.  0.
   400  3.99  0.  0.
   401  4.00  0.  0.
   402  4.01  0.  0.
   403  4.02  0.  0.
   404  4.03  0.  0.
   405  4.04  0.  0.
   406  4.05  0.  0.
   407  4.06  0.  0.
   408  4.07  0.  0.
   409  4.08  0.  0.
   410  4.09  0.  0.
   411  4.10  0.  0.
   412  4.11  0.  0.
   413  4.12  0.  0.
   414  4.13  0.  0.
   415  4.14  0.  0.
   416  4.15  0.  0.
   417  4.16  0.  0.
   418  4.17  0.  0.
   419  4.18  0.  0.
   420  4.19  0.  0.
   421  4.20  0.  0.
   422  4.21  0.  0.
   423  4.22  0.  0.
   424  4.23  0.  0.
   425  4.24  0.  0.
   426  4.25  0.  0.
   427  4.26  0.  0.
   428  4.27  0.  0.
   429  4.28  0.  0.
   430  4.29  0.  0.
   431  4.30  0.  0.
   432  4.31  0.  0.
   433  4.32  0.  0.
   434  4.33  0.  0.
   435  4.34  0.  0.
   436  4.35  0.  0.
   437  4.36  0.  0.
   438  4.37  0.  0.
   439  4.38  0.  0.
   440  4.39  0.  0.
   441  4.40  0.  0.
   442  4.41  0.  0.
   443  4.42  0.  0.
   444  4.43  0.  0.
   445  4.44  0.  0.
   446  4.45  0.  0.
   447  4.46  0.  0.
   448  4.47  0.  0.
   449  4.48  0.  0.
   450  4.49  0.  0.
   451  4.50  0.  0.
   452  4.51  0.  0.
   453  4.52  0.  0.
   454  4.53  0.  0.
   455  4.54  0.  0.
   456  4.55  0.  0.
   457  4.56  0.  0.
   458  4.57  0.  0.
   459  4.58  0.  0.
   460  4.59  0.  0.
   461  4.60  0.  0.
   462  4.61  0.  0.
   463  4.62  0.  0.
   464  4.63  0.  0.
   465  4.64  0.  0.
   466  4.65  0.  0.
   467  4.66  0.  0.
   468  4.67  0.  0.
   469  4.68  0.  0.
   470  4.69  0.  0.
   471  4.70  0.  0.
   472  4.71  0.  0.
   473  4.72  0.  0.
   474  4.73  0.  0.
   475  4.74  0.  0.
   476  4.75  0.  0.
   477  4.76  0.  0.
   478  4.77  0.  0.
   479  4.78  0.  0.
   480  4.79  0.  0.
   481  4.80  0.  0.
   482  4.81  0.  0.
   483  4.82  0.  0.
   484  4.83  0.  0.
   485  4.84  0.  0.
   486  4.85  0.  0.
   487  4.86  0.  0.
   488  4.87  0.  0.
   489  4.88  0.  0.
   490  4.89  0.  0.
   491  4.90  0.  0.
   492  4.91  0.  0.
   493  4.92  0.  0.
   494  4.93  0.  0.
   495  4.94  0.  0.
   496  4.95  0.  0.
   497  4.96  0.  0.
   498  4.97  0.  0.
   499  4.98  0.  0.
   500  4.99  0.  0.
   501  5.00  0.  0.
   502  5.01  0.  0.
   503  5.02  0.  0.
   504  5.03  0.  0.
   505  5.04  0.  0.
   506  5.05  0.  0.
   507  5.06  0.  0.
   508  5.07  0.  0.
   509  5.08  0.  0.
   510  5.09  0.  0.
   511  5.10  0.  0.
   512  5.11  0.  0.
   513  5.12  0.  0.
   514  5.13  0.  0.
   515  5.14  0.  0.
   516  5.15  0.  0.
   517  5.16  0.  0.
   518  5.17  0.  0.
   519  5.18  0.  0.
   520  5.19  0.  0.
   521  5.20  0.  0.
   522  5.21  0.  0.
   523  5.22  0.  0.
   524  5.23  0.  0.
   525  5.24  0.  0.
   526  5.25  0.  0.
   527  5.26  0.  0.
   528  5.27  0.  0.
   529  5.28  0.  0.
   530  5.29  0.  0.
   531  5.30  0.  0.
   532  5.31  0.  0.
   533  5.32  0.  0.
   534  5.33  0.  0.
   535  5.34  0.  0.
   536  5.35  0.  0.
   537  5.36  0.  0.
   538  5.37  0.  0.
   539  5.38  0.  0.
   540  5.39  0.  0.
   541  5.40  0.  0.
   542  5.41  0.  0.
   543  5.42  0.  0.
   544  5.43  0.  0.
   545  5.44  0.  0.
   546  5.45  0.  0.
   547  5.46  0.  0.
   548  5.47  0.  0.
   549  5.48  0.  0.
   550  5.49  0.  0.
   551  5.50  0.  0.
   552  5.51  0.  0.
   553  5.52  0.  0.
   554  5.53  0.  0.
   555  5.54  0.  0.
   556  5.55  0.  0.
   557  5.56  0.  0.
   558  5.57  0.  0.
   559  5.58  0.  0.
   560  5.59  0.  0.
   561  5.60  0.  0.
   562  5.61  0.  0.
   563  5.62  0.  0.
   564  5.63  0.  0.
   565  5.64  0.  0.
   566  5.65  0.  0.
   567  5.66  0.  0.
   568  5.67  0.  0.
   569  5.68  0.  0.
   570  5.69  0.  0.
   571  5.70  0.  0.
   572  5.71  0.  0.
   573  5.72  0.  0.
   574  5.73  0.  0.
   575  5.74  0.  0.
   576  5.75  0.  0.
   577  5.76  0.  0.
   578  5.77  0.  0.
   579  5.78  0.  0.
   580  5.79  0.  0.
   581  5.80  0.  0.
   582  5.81  0.  0.
   583  5.82  0.  0.
   584  5.83  0.  0.
   585  5.84  0.  0.
   586  5.85  0.  0.
   587  5.86  0.  0.
   588  5.87  0.  0.
   589  5.88  0.  0.
   590  5.89  0.  0.
   591  5.90  0.  0.
   592  5.91  0.  0.
   593  5.92  0.  0.
   594  5.93  0.  0.
   595  5.94  0.  0.
   596  5.95  0.  0.
   597  5.96  0.  0.
   598  5.97  0.  0.
   599  5.98  0.  0.
   600  5.99  0.  0.
   1                         1.5984121544042E+00 -5.0958057494773E-01
     1  0.0000000000000E+00 -1.2309124552967E-09 -2.9744329843118E-09
     2  1.0000000000000E-02  3.5165011401800E-03 -5.6865280056505E-05
     3  2.0000000000000E-02  1.4040775317391E-02 -2.1873565869964E-04
     4  3.0000000000000E-02  3.1497252468558E-02 -4.5955752183266E-04
     5  4.0000000000000E-02  5.5760375773540E-02 -7.3631571783643E-04
     6  5.0000000000000E-02  8.6655195241973E-02 -9.8963895381620E-04
     7  6.0000000000000E-02  1.2395820584682E-01 -1.1446356234191E-03
     8  7.0000000000000E-02  1.6739843684073E-01 -1.1119485605229E-03
     9  8.0000000000000E-02  2.1665880012213E-01 -7.8901423866353E-04
    10  9.0000000000000E-02  2.7137770627739E-01 -6.1509186915853E-05
    11  1.0000000000000E-01  3.3115095713517E-01  1.1950360869796E-03
    12  1.1000000000000E-01  3.9553392327171E-01  3.1134775508174E-03
    13  1.2000000000000E-01  4.6404401385466E-01  5.8331762019972E-03
    14  1.3000000000000E-01  5.3616344448986E-01  9.4980199194141E-03
    15  1.4000000000000E-01  6.1134230633417E-01  1.4254374905086E-02
    16  1.5000000000000E-01  6.8900193667728E-01  2.0248993706570E-02
    17  1.6000000000000E-01  7.6853858751655E-01  2.7626907110571E-02
    18  1.7000000000000E-01  8.4932738440870E-01  3.6529327098513E-02
    19  1.8000000000000E-01  9.3072656316068E-01  4.7091587564174E-02
    20  1.9000000000000E-01  1.0120819668143E+00  5.9441148626534E-02
    21  2.0000000000000E-01  1.0927317799958E+00  7.3695689147668E-02
    22  2.1000000000000E-01  1.1720114721671E+00  8.9961310513344E-02
    23  2.2000000000000E-01  1.2492589157666E+00  1.0833087288307E-01
    24  2.3000000000000E-01  1.3238196397939E+00  1.2888248300350E-01
    25  2.4000000000000E-01  1.3950521742404E+00  1.5167815034374E-01
    26  2.5000000000000E-01  1.4623334360084E+00  1.7676262579512E-01
    27  2.6000000000000E-01  1.5250641027708E+00  2.0416243452673E-01
    28  2.7000000000000E-01  1.5826739177019E+00  2.3388511184621E-01
    29  2.8000000000000E-01  1.6346268653009E+00  2.6591864812967E-01
    30  2.9000000000000E-01  1.6804261567276E+00  3.0023114609935E-01
    31  3.0000000000000E-01  1.7196189622736E+00  3.3677069098752E-01
    32  3.1000000000000E-01  1.7518008288621E+00  3.7546543147123E-01
    33  3.2000000000000E-01  1.7766197218629E+00  4.1622386673262E-01
    34  3.3000000000000E-01  1.7937796330421E+00  4.5893533263005E-01
    35  3.4000000000000E-01  1.8030437001459E+00  5.0347067778489E-01
    36  3.5000000000000E-01  1.8042367884061E+00  5.4968311842520E-01
    37  3.6000000000000E-01  1.7972474901139E+00  5.9740925909989E-01
    38  3.7000000000000E-01  1.7820295052464E+00  6.4647026490252E-01
    39  3.8000000000000E-01  1.7586023738559E+00  6.9667316963122E-01
    40  3.9000000000000E-01  1.7270515394188E+00  7.4781230336685E-01
    41  4.0000000000000E-01  1.6875277314393E+00  7.9967082227335E-01
    42  4.1000000000000E-01  1.6402456651658E+00  8.5202232300832E-01
    43  4.2000000000000E-01  1.5854820661165E+00  9.0463252396745E-01
    44  4.3000000000000E-01  1.5235730370498E+00  9.5726099565882E-01
    45  4.4000000000000E-01  1.4549107948650E+00  1.0096629227956E+00
    46  4.5000000000000E-01  1.3799398144770E+00  1.0615908811862E+00
    47  4.6000000000000E-01  1.2991524257993E+00  1.1127966131648E+00
    48  4.7000000000000E-01  1.2130839183986E+00  1.1630327861230E+00
    49  4.8000000000000E-01  1.1223072159798E+00  1.2120547196361E+00
    50  4.9000000000000E-01  1.0274271894719E+00  1.2596220677171E+00
    51  5.0000000000000E-01  9.2907468296338E-01  1.3055004438312E+00
    52  5.1000000000000E-01  8.2790033096828E-01  1.3494629774542E+00
    53  5.2000000000000E-01  7.2456824839716E-01  1.3912917921270E+00
    54  5.3000000000000E-01  6.1974967609426E-01  1.4307793961252E+00
    55  5.4000000000000E-01  5.1411666484456E-01  1.4677299780112E+00
    56  5.5000000000000E-01  4.0833587934735E-01  1.5019606004455E+00
    57  5.6000000000000E-01  3.0306260081753E-01  1.5333022866950E+00
    58  5.7000000000000E-01  1.9893500266670E-01  1.5616009952762E+00
    59  5.8000000000000E-01  9.6568768213377E-02  1.5867184791060E+00
    60  5.9000000000000E-01 -3.4478873103361E-03  1.6085330263984E+00
    61  6.0000000000000E-01 -1.0055873591946E-01  1.6269400813423E+00
    62  6.1000000000000E-01 -1.9424355128623E-01  1.6418527433271E+00
    63  6.2000000000000E-01 -2.8402158181133E-01  1.6532021441553E+00
    64  6.3000000000000E-01 -3.6945445561753E-01  1.6609377033027E+00
    65  6.4000000000000E-01 -4.5014850089291E-01  1.6650272618685E+00
    66  6.5000000000000E-01 -5.2575647528175E-01  1.6654570964065E+00
    67  6.6000000000000E-01 -5.9597870818804E-01  1.6622318143662E+00
    68  6.7000000000000E-01 -6.6056366971012E-01  1.6553741333982E+00
    69  6.8000000000000E-01 -7.1930798926194E-01  1.6449245473181E+00
    70  6.9000000000000E-01 -7.7205595557201E-01  1.6309408820724E+00
    71  7.0000000000000E-01 -8.1869853751071E-01  1.6134977456362E+00
    72  7.1000000000000E-01 -8.5917197192706E-01  1.5926858763822E+00
    73  7.2000000000000E-01 -8.9345597025313E-01  1.5686113951188E+00
    74  7.3000000000000E-01 -9.2157159995188E-01  1.5413949666886E+00
    75  7.4000000000000E-01 -9.4357889987298E-01  1.5111708777546E+00
    76  7.5000000000000E-01 -9.5957429019660E-01  1.4780860381735E+00
    77  7.6000000000000E-01 -9.6968783787767E-01  1.4422989141564E+00
    78  7.7000000000000E-01 -9.7408043737163E-01  1.4039784022346E+00
    79  7.8000000000000E-01 -9.7294096397882E-01  1.3633026538749E+00
    80  7.9000000000000E-01 -9.6648345346831E-01  1.3204578613973E+00
    81  8.0000000000000E-01 -9.5494435684085E-01  1.2756370166331E+00
    82  8.1000000000000E-01 -9.3857991329544E-01  1.2290386544936E+00
    83  8.2000000000000E-01 -9.1766367782912E-01  1.1808655942765E+00
    84  8.3000000000000E-01 -8.9248423259416E-01  1.1313236921069E+00
    85  8.4000000000000E-01 -8.6334310334473E-01  1.0806206183551E+00
    86  8.5000000000000E-01 -8.3055289421843E-01  1.0289646741822E+00
    87  8.6000000000000E-01 -7.9443564591139E-01  9.7656366151864E-01
    88  8.7000000000000E-01 -7.5532141421682E-01  9.2362382074600E-01
    89  8.8000000000000E-01 -7.1354705809084E-01  8.7034885013403E-01
    90  8.9000000000000E-01 -6.6945521906960E-01  8.1693902065335E-01
    91  9.0000000000000E-01 -6.2339346715016E-01  7.6359039913754E-01
    92  9.1000000000000E-01 -5.7571358231095E-01  7.1049419190242E-01
    93  9.2000000000000E-01 -5.2677093581101E-01  6.5783621984285E-01
    94  9.3000000000000E-01 -4.7692393137028E-01  6.0579653472276E-01
    95  9.4000000000000E-01 -4.2653346336870E-01  5.5454918486601E-01
    96  9.5000000000000E-01 -3.7596234735471E-01  5.0426213675320E-01
    97  9.6000000000000E-01 -3.2557467744052E-01  4.5509735715776E-01
    98  9.7000000000000E-01 -2.7573506556678E-01  4.0721105843471E-01
    99  9.8000000000000E-01 -2.2680771910451E-01  3.6075410743629E-01
   100  9.9000000000000E-01 -1.7915531575552E-01  3.1587259630404E-01
   101  1.0000000000000E+00 -1.3313763812343E-01  2.7270857111090E-01
   102  1.0100000000000E+00 -8.9109934537088E-02  2.3140091203755E-01
   103  1.0200000000000E+00 -4.7420977588882E-02  1.9208635650419E-01
   104  1.0300000000000E+00 -8.4107972452361E-03  1.5490065448203E-01
   105  1.0400000000000E+00  2.7591928860642E-02  1.1997984312024E-01
   106  1.0500000000000E+00  6.0272839392554E-02  8.7461625876421E-02
   107  1.0600000000000E+00  8.9335213004111E-02  5.7486839578828E-02
   108  1.0700000000000E+00  1.1450365140318E-01  3.0200991300864E-02
   109  1.0800000000000E+00  1.3552811589680E-01  5.7558456286175E-03
   110  1.0900000000000E+00  1.5218830728457E-01 -1.5688957644259E-02
   111  1.1000000000000E+00  1.6429835470014E-01 -3.3964287532440E-02
   112  1.1100000000000E+00  1.7171182673251E-01 -4.8889910018125E-02
   113  1.1200000000000E+00  1.7431761482149E-01 -6.0278232836061E-02
   114  1.1300000000000E+00  1.7201343175209E-01 -6.7949556983239E-02
   115  1.1400000000000E+00  1.6469558587209E-01 -7.1737007053275E-02
   116  1.1500000000000E+00  1.5219250731394E-01 -7.1477905474766E-02
   117  1.1600000000000E+00  1.3432182472444E-01 -6.7021626669213E-02
   118  1.1700000000000E+00  1.1105368710898E-01 -5.8244322244294E-02
   119  1.1800000000000E+00  8.2336021906482E-02 -4.5025818898003E-02
   120  1.1900000000000E+00  4.8578562988676E-02 -2.7538759401358E-02
   121  1.2000000000000E+00  5.9125959484996E-03 -3.4300639271565E-03
   122  1.2100000000000E+00  2.7851168497597E-04 -1.6102282877725E-04
   123  1.2200000000000E+00 -7.8649947245516E-05  4.5233941221682E-05
   124  1.23  0.  0.
   125  1.24  0.  0.
   126  1.25  0.  0.
   127  1.26  0.  0.
   128  1.27  0.  0.
   129  1.28  0.  0.
   130  1.29  0.  0.
   131  1.30  0.  0.
   132  1.31  0.  0.
   133  1.32  0.  0.
   134  1.33  0.  0.
   135  1.34  0.  0.
   136  1.35  0.  0.
   137  1.36  0.  0.
   138  1.37  0.  0.
   139  1.38  0.  0.
   140  1.39  0.  0.
   141  1.40  0.  0.
   142  1.41  0.  0.
   143  1.42  0.  0.
   144  1.43  0.  0.
   145  1.44  0.  0.
   146  1.45  0.  0.
   147  1.46  0.  0.
   148  1.47  0.  0.
   149  1.48  0.  0.
   150  1.49  0.  0.
   151  1.50  0.  0.
   152  1.51  0.  0.
   153  1.52  0.  0.
   154  1.53  0.  0.
   155  1.54  0.  0.
   156  1.55  0.  0.
   157  1.56  0.  0.
   158  1.57  0.  0.
   159  1.58  0.  0.
   160  1.59  0.  0.
   161  1.60  0.  0.
   162  1.61  0.  0.
   163  1.62  0.  0.
   164  1.63  0.  0.
   165  1.64  0.  0.
   166  1.65  0.  0.
   167  1.66  0.  0.
   168  1.67  0.  0.
   169  1.68  0.  0.
   170  1.69  0.  0.
   171  1.70  0.  0.
   172  1.71  0.  0.
   173  1.72  0.  0.
   174  1.73  0.  0.
   175  1.74  0.  0.
   176  1.75  0.  0.
   177  1.76  0.  0.
   178  1.77  0.  0.
   179  1.78  0.  0.
   180  1.79  0.  0.
   181  1.80  0.  0.
   182  1.81  0.  0.
   183  1.82  0.  0.
   184  1.83  0.  0.
   185  1.84  0.  0.
   186  1.85  0.  0.
   187  1.86  0.  0.
   188  1.87  0.  0.
   189  1.88  0.  0.
   190  1.89  0.  0.
   191  1.90  0.  0.
   192  1.91  0.  0.
   193  1.92  0.  0.
   194  1.93  0.  0.
   195  1.94  0.  0.
   196  1.95  0.  0.
   197  1.96  0.  0.
   198  1.97  0.  0.
   199  1.98  0.  0.
   200  1.99  0.  0.
   201  2.00  0.  0.
   202  2.01  0.  0.
   203  2.02  0.  0.
   204  2.03  0.  0.
   205  2.04  0.  0.
   206  2.05  0.  0.
   207  2.06  0.  0.
   208  2.07  0.  0.
   209  2.08  0.  0.
   210  2.09  0.  0.
   211  2.10  0.  0.
   212  2.11  0.  0.
   213  2.12  0.  0.
   214  2.13  0.  0.
   215  2.14  0.  0.
   216  2.15  0.  0.
   217  2.16  0.  0.
   218  2.17  0.  0.
   219  2.18  0.  0.
   220  2.19  0.  0.