Fe    ONCVPSP-4.0.1  r_core=   1.25330   1.20190   1.55447
     26.0000     16.0000      250925    zatom,zion,pspd
     8   -1012   2     4   600     0    pspcod,pspxc,lmax,lloc,mmax,r2well
  5.99000000  3.00000000  0.00000000    rchrg fchrg qchrg
     2     2     2     0    nproj
     3     1           extension_switch
     4     4     0    nprojso
   0                         1.0203671801223E+01  1.4605204864984E+00
     1  0.0000000000000E+00  4.9895665377164E-10 -1.0923887627801E-09
     2  1.0000000000000E-02  9.4276404085240E-02 -2.6347743401463E-02
     3  2.0000000000000E-02  1.8828129329308E-01 -5.2485983598107E-02
     4  3.0000000000000E-02  2.8174380534998E-01 -7.8205740566600E-02
     5  4.0000000000000E-02  3.7439438694762E-01 -1.0329909001680E-01
     6  5.0000000000000E-02  4.6596545748788E-01 -1.2755971439559E-01
     7  6.0000000000000E-02  5.5619208357785E-01 -1.5078348085439E-01
     8  7.0000000000000E-02  6.4481266725781E-01 -1.7276905385143E-01
     9  8.0000000000000E-02  7.3156965044630E-01 -1.9331854896746E-01
    10  9.0000000000000E-02  8.1621023748172E-01 -2.1223823319243E-01
    11  1.0000000000000E-01  8.9848713694209E-01 -2.2933927541934E-01
    12  1.1000000000000E-01  9.7815932314749E-01 -2.4443854919244E-01
    13  1.2000000000000E-01  1.0549928169096E+00 -2.5735948793737E-01
    14  1.3000000000000E-01  1.1287614842062E+00 -2.6793299099012E-01
    15  1.4000000000000E-01  1.1992478505452E+00 -2.7599837678161E-01
    16  1.5000000000000E-01  1.2662439278599E+00 -2.8140437756974E-01
    17  1.6000000000000E-01  1.3295520498671E+00 -2.8401016818413E-01
    18  1.7000000000000E-01  1.3889857109377E+00 -2.8368641940531E-01
    19  1.8000000000000E-01  1.4443704027001E+00 -2.8031636488193E-01
    20  1.9000000000000E-01  1.4955444418344E+00 -2.7379686893856E-01
    21  2.0000000000000E-01  1.5423597818371E+00 -2.6403948128016E-01
    22  2.1000000000000E-01  1.5846828009646E+00 -2.5097146349181E-01
    23  2.2000000000000E-01  1.6223950581023E+00 -2.3453677139513E-01
    24  2.3000000000000E-01  1.6553940079781E+00 -2.1469697677943E-01
    25  2.4000000000000E-01  1.6835936669497E+00 -1.9143211179767E-01
    26  2.5000000000000E-01  1.7069252205464E+00 -1.6474141941626E-01
    27  2.6000000000000E-01  1.7253375640585E+00 -1.3464399374350E-01
    28  2.7000000000000E-01  1.7387977677256E+00 -1.0117929483173E-01
    29  2.8000000000000E-01  1.7472914584902E+00 -6.4407523649875E-02
    30  2.9000000000000E-01  1.7508231108487E+00 -2.4409844340678E-02
    31  3.0000000000000E-01  1.7494162400396E+00  1.8711557405934E-02
    32  3.1000000000000E-01  1.7431134916538E+00  6.4833589044911E-02
    33  3.2000000000000E-01  1.7319766227191E+00  1.1381254588446E-01
    34  3.3000000000000E-01  1.7160863703867E+00  1.6548459032981E-01
    35  3.4000000000000E-01  1.6955422055214E+00  2.1966641758542E-01
    36  3.5000000000000E-01  1.6704619697412E+00  2.7615610702752E-01
    37  3.6000000000000E-01  1.6409813957550E+00  3.3473415567860E-01
    38  3.7000000000000E-01  1.6072535121850E+00  3.9516468742036E-01
    39  3.8000000000000E-01  1.5694479354103E+00  4.5719682882053E-01
    40  3.9000000000000E-01  1.5277500523103E+00  5.2056623977742E-01
    41  4.0000000000000E-01  1.4823600990942E+00  5.8499678465571E-01
    42  4.1000000000000E-01  1.4334921426619E+00  6.5020232724563E-01
    43  4.2000000000000E-01  1.3813729721186E+00  7.1588863077734E-01
    44  4.3000000000000E-01  1.3262409091531E+00  7.8175534240194E-01
    45  4.4000000000000E-01  1.2683445469597E+00  8.4749804005302E-01
    46  4.5000000000000E-01  1.2079414282218E+00  9.1281031845951E-01
    47  4.6000000000000E-01  1.1452966733703E+00  9.7738589032009E-01
    48  4.7000000000000E-01  1.0806815708643E+00  1.0409206782911E+00
    49  4.8000000000000E-01  1.0143721416084E+00  1.1031148734976E+00
    50  4.9000000000000E-01  9.4664768981617E-01  1.1636749367566E+00
    51  5.0000000000000E-01  8.7778935264237E-01  1.2223155195945E+00
    52  5.1000000000000E-01  8.0807866074608E-01  1.2787612834483E+00
    53  5.2000000000000E-01  7.3779612161043E-01  1.3327485971239E+00
    54  5.3000000000000E-01  6.6721983693782E-01  1.3840270946388E+00
    55  5.4000000000000E-01  5.9662416477609E-01  1.4323610779498E+00
    56  5.5000000000000E-01  5.2627843621922E-01  1.4775307517235E+00
    57  5.6000000000000E-01  4.5644573558313E-01  1.5193332802031E+00
    58  5.7000000000000E-01  3.8738175189936E-01  1.5575836593005E+00
    59  5.8000000000000E-01  3.1933370841727E-01  1.5921154002448E+00
    60  5.9000000000000E-01  2.5253937557980E-01  1.6227810243801E+00
    61  6.0000000000000E-01  1.8722617166241E-01  1.6494523719747E+00
    62  6.1000000000000E-01  1.2361035396183E-01  1.6720207310986E+00
    63  6.2000000000000E-01  6.1896302117507E-02  1.6903967957036E+00
    64  6.3000000000000E-01  2.2758938657211E-03  1.7045104649158E+00
    65  6.4000000000000E-01 -5.5072027709662E-02  1.7143104981846E+00
    66  6.5000000000000E-01 -1.0998209753317E-01  1.7197640432505E+00
    67  6.6000000000000E-01 -1.6230278568032E-01  1.7208560558648E+00
    68  6.7000000000000E-01 -2.1189667245292E-01  1.7175886317528E+00
    69  6.8000000000000E-01 -2.5864064637094E-01  1.7099802724412E+00
    70  6.9000000000000E-01 -3.0242603076045E-01  1.6980651072263E+00
    71  7.0000000000000E-01 -3.4315864515641E-01  1.6818920937316E+00
    72  7.1000000000000E-01 -3.8075880811563E-01  1.6615242191755E+00
    73  7.2000000000000E-01 -4.1516128824114E-01  1.6370377236477E+00
    74  7.3000000000000E-01 -4.4631521025442E-01  1.6085213653758E+00
    75  7.4000000000000E-01 -4.7418392281603E-01  1.5760757461883E+00
    76  7.5000000000000E-01 -4.9874483449540E-01  1.5398127131524E+00
    77  7.6000000000000E-01 -5.1998922383296E-01  1.4998548497490E+00
    78  7.7000000000000E-01 -5.3792202883672E-01  1.4563350669713E+00
    79  7.8000000000000E-01 -5.5256162052376E-01  1.4093963014598E+00
    80  7.9000000000000E-01 -5.6393956427399E-01  1.3591913242843E+00
    81  8.0000000000000E-01 -5.7210037182861E-01  1.3058826603055E+00
    82  8.1000000000000E-01 -5.7710124576140E-01  1.2496426142890E+00
    83  8.2000000000000E-01 -5.7901181720113E-01  1.1906533961558E+00
    84  8.3000000000000E-01 -5.7791387651315E-01  1.1291073340358E+00
    85  8.4000000000000E-01 -5.7390109558331E-01  1.0652071602058E+00
    86  8.5000000000000E-01 -5.6707873931309E-01  9.9916635162750E-01
    87  8.6000000000000E-01 -5.5756336295716E-01  9.3120950372629E-01
    88  8.7000000000000E-01 -5.4548249103690E-01  8.6157271333080E-01
    89  8.8000000000000E-01 -5.3097427276930E-01  7.9050394440307E-01
    90  8.9000000000000E-01 -5.1418710828012E-01  7.1826334837175E-01
    91  9.0000000000000E-01 -4.9527923934205E-01  6.4512350959346E-01
    92  9.1000000000000E-01 -4.7441829800754E-01  5.7136958574423E-01
    93  9.2000000000000E-01 -4.5178080630456E-01  4.9729931281175E-01
    94  9.3000000000000E-01 -4.2755162014044E-01  4.2322284483662E-01
    95  9.4000000000000E-01 -4.0192331071792E-01  3.4946239964072E-01
    96  9.5000000000000E-01 -3.7509547711112E-01  2.7635168347635E-01
    97  9.6000000000000E-01 -3.4727398417214E-01  2.0423506980944E-01
    98  9.7000000000000E-01 -3.1867012063635E-01  1.3346651028395E-01
    99  9.8000000000000E-01 -2.8949967315367E-01  6.4408159258256E-02
   100  9.9000000000000E-01 -2.5998191298045E-01 -2.5713028959239E-03
   101  1.0000000000000E+00 -2.3033849320328E-01 -6.7098658349757E-02
   102  1.0100000000000E+00 -2.0079225561151E-01 -1.2879845833608E-01
   103  1.0200000000000E+00 -1.7156594766573E-01 -1.8729564898582E-01
   104  1.0300000000000E+00 -1.4288085139796E-01 -2.4221851293501E-01
   105  1.0400000000000E+00 -1.1495532749822E-01 -2.9320191819094E-01
   106  1.0500000000000E+00 -8.8003279264630E-02 -3.3989086080705E-01
   107  1.0600000000000E+00 -6.2232542486500E-02 -3.8194428311054E-01
   108  1.0700000000000E+00 -3.7843208666104E-02 -4.1903914463368E-01
   109  1.0800000000000E+00 -1.5025890235730E-02 -4.5087471861417E-01
   110  1.0900000000000E+00  6.0400626005382E-03 -4.7717708361079E-01
   111  1.1000000000000E+00  2.5188378954478E-02 -4.9770376298980E-01
   112  1.1100000000000E+00  4.2267712973097E-02 -5.1224849722932E-01
   113  1.1200000000000E+00  5.7141688264335E-02 -5.2063979881584E-01
   114  1.1300000000000E+00  6.9684699169260E-02 -5.2272525904030E-01
   115  1.1400000000000E+00  7.9780696151737E-02 -5.1836706885792E-01
   116  1.1500000000000E+00  8.7323926968170E-02 -5.0744455242557E-01
   117  1.1600000000000E+00  9.2219654829619E-02 -4.8985664562454E-01
   118  1.1700000000000E+00  9.4384848920408E-02 -4.6552429350978E-01
   119  1.1800000000000E+00  9.3748782791733E-02 -4.3439260805545E-01
   120  1.1900000000000E+00  9.0253641089013E-02 -3.9643299324242E-01
   121  1.2000000000000E+00  8.3842646494993E-02 -3.5161849993386E-01
   122  1.2100000000000E+00  7.4478086650491E-02 -2.9996168318990E-01
   123  1.2200000000000E+00  6.2156836500554E-02 -2.4154999048724E-01
   124  1.2300000000000E+00  4.6886736170435E-02 -1.7649684572035E-01
   125  1.2400000000000E+00  2.8875739957985E-02 -1.0560061508288E-01
   126  1.2500000000000E+00  6.1439858863386E-03 -2.1995891826344E-02
   127  1.2600000000000E+00 -3.6938872491729E-04  1.3188122478356E-03
   128  1.2700000000000E+00 -3.0139033966399E-05  1.0857132677706E-04
   129  1.28  0.  0.
   130  1.29  0.  0.
   131  1.30  0.  0.
   132  1.31  0.  0.
   133  1.32  0.  0.
   134  1.33  0.  0.
   135  1.34  0.  0.
   136  1.35  0.  0.
   137  1.36  0.  0.
   138  1.37  0.  0.
   139  1.38  0.  0.
   140  1.39  0.  0.
   141  1.40  0.  0.
   142  1.41  0.  0.
   143  1.42  0.  0.
   144  1.43  0.  0.
   145  1.44  0.  0.
   146  1.45  0.  0.
   147  1.46  0.  0.
   148  1.47  0.  0.
   149  1.48  0.  0.
   150  1.49  0.  0.
   151  1.50  0.  0.
   152  1.51  0.  0.
   153  1.52  0.  0.
   154  1.53  0.  0.
   155  1.54  0.  0.
   156  1.55  0.  0.
   157  1.56  0.  0.
   158  1.57  0.  0.
   159  1.58  0.  0.
   160  1.59  0.  0.
   161  1.60  0.  0.
   162  1.61  0.  0.
   163  1.62  0.  0.
   164  1.63  0.  0.
   165  1.64  0.  0.
   166  1.65  0.  0.
   167  1.66  0.  0.
   168  1.67  0.  0.
   169  1.68  0.  0.
   170  1.69  0.  0.
   171  1.70  0.  0.
   172  1.71  0.  0.
   173  1.72  0.  0.
   174  1.73  0.  0.
   175  1.74  0.  0.
   176  1.75  0.  0.
   177  1.76  0.  0.
   178  1.77  0.  0.
   179  1.78  0.  0.
   180  1.79  0.  0.
   181  1.80  0.  0.
   182  1.81  0.  0.
   183  1.82  0.  0.
   184  1.83  0.  0.
   185  1.84  0.  0.
   186  1.85  0.  0.
   187  1.86  0.  0.
   188  1.87  0.  0.
   189  1.88  0.  0.
   190  1.89  0.  0.
   191  1.90  0.  0.
   192  1.91  0.  0.
   193  1.92  0.  0.
   194  1.93  0.  0.
   195  1.94  0.  0.
   196  1.95  0.  0.
   197  1.96  0.  0.
   198  1.97  0.  0.
   199  1.98  0.  0.
   200  1.99  0.  0.
   201  2.00  0.  0.
   202  2.01  0.  0.
   203  2.02  0.  0.
   204  2.03  0.  0.
   205  2.04  0.  0.
   206  2.05  0.  0.
   207  2.06  0.  0.
   208  2.07  0.  0.
   209  2.08  0.  0.
   210  2.09  0.  0.
   211  2.10  0.  0.
   212  2.11  0.  0.
   213  2.12  0.  0.
   214  2.13  0.  0.
   215  2.14  0.  0.
   216  2.15  0.  0.
   217  2.16  0.  0.
   218  2.17  0.  0.
   219  2.18  0.  0.
   220  2.19  0.  0.
   221  2.20  0.  0.
   222  2.21  0.  0.
   223  2.22  0.  0.
   224  2.23  0.  0.
   225  2.24  0.  0.
   226  2.25  0.  0.
   227  2.26  0.  0.
   228  2.27  0.  0.
   229  2.28  0.  0.
   230  2.29  0.  0.
   231  2.30  0.  0.
   232  2.31  0.  0.
   233  2.32  0.  0.
   234  2.33  0.  0.
   235  2.34  0.  0.
   236  2.35  0.  0.
   237  2.36  0.  0.
   238  2.37  0.  0.
   239  2.38  0.  0.
   240  2.39  0.  0.
   241  2.40  0.  0.
   242  2.41  0.  0.
   243  2.42  0.  0.
   244  2.43  0.  0.
   245  2.44  0.  0.
   246  2.45  0.  0.
   247  2.46  0.  0.
   248  2.47  0.  0.
   249  2.48  0.  0.
   250  2.49  0.  0.
   251  2.50  0.  0.
   252  2.51  0.  0.
   253  2.52  0.  0.
   254  2.53  0.  0.
   255  2.54  0.  0.
   256  2.55  0.  0.
   257  2.56  0.  0.
   258  2.57  0.  0.
   259  2.58  0.  0.
   260  2.59  0.  0.
   261  2.60  0.  0.
   262  2.61  0.  0.
   263  2.62  0.  0.
   264  2.63  0.  0.
   265  2.64  0.  0.
   266  2.65  0.  0.
   267  2.66  0.  0.
   268  2.67  0.  0.
   269  2.68  0.  0.
   270  2.69  0.  0.
   271  2.70  0.  0.
   272  2.71  0.  0.
   273  2.72  0.  0.
   274  2.73  0.  0.
   275  2.74  0.  0.
   276  2.75  0.  0.
   277  2.76  0.  0.
   278  2.77  0.  0.
   279  2.78  0.  0.
   280  2.79  0.  0.
   281  2.80  0.  0.
   282  2.81  0.  0.
   283  2.82  0.  0.
   284  2.83  0.  0.
   285  2.84  0.  0.
   286  2.85  0.  0.
   287  2.86  0.  0.
   288  2.87  0.  0.
   289  2.88  0.  0.
   290  2.89  0.  0.
   291  2.90  0.  0.
   292  2.91  0.  0.
   293  2.92  0.  0.
   294  2.93  0.  0.
   295  2.94  0.  0.
   296  2.95  0.  0.
   297  2.96  0.  0.
   298  2.97  0.  0.
   299  2.98  0.  0.
   300  2.99  0.  0.
   301  3.00  0.  0.
   302  3.01  0.  0.
   303  3.02  0.  0.
   304  3.03  0.  0.
   305  3.04  0.  0.
   306  3.05  0.  0.
   307  3.06  0.  0.
   308  3.07  0.  0.
   309  3.08  0.  0.
   310  3.09  0.  0.
   311  3.10  0.  0.
   312  3.11  0.  0.
   313  3.12  0.  0.
   314  3.13  0.  0.
   315  3.14  0.  0.
   316  3.15  0.  0.
   317  3.16  0.  0.
   318  3.17  0.  0.
   319  3.18  0.  0.
   320  3.19  0.  0.
   321  3.20  0.  0.
   322  3.21  0.  0.
   323  3.22  0.  0.
   324  3.23  0.  0.
   325  3.24  0.  0.
   326  3.25  0.  0.
   327  3.26  0.  0.
   328  3.27  0.  0.
   329  3.28  0.  0.
   330  3.29  0.  0.
   331  3.30  0.  0.
   332  3.31  0.  0.
   333  3.32  0.  0.
   334  3.33  0.  0.
   335  3.34  0.  0.
   336  3.35  0.  0.
   337  3.36  0.  0.
   338  3.37  0.  0.
   339  3.38  0.  0.
   340  3.39  0.  0.
   341  3.40  0.  0.
   342  3.41  0.  0.
   343  3.42  0.  0.
   344  3.43  0.  0.
   345  3.44  0.  0.
   346  3.45  0.  0.
   347  3.46  0.  0.
   348  3.47  0.  0.
   349  3.48  0.  0.
   350  3.49  0.  0.
   351  3.50  0.  0.
   352  3.51  0.  0.
   353  3.52  0.  0.
   354  3.53  0.  0.
   355  3.54  0.  0.
   356  3.55  0.  0.
   357  3.56  0.  0.
   358  3.57  0.  0.
   359  3.58  0.  0.
   360  3.59  0.  0.
   361  3.60  0.  0.
   362  3.61  0.  0.
   363  3.62  0.  0.
   364  3.63  0.  0.
   365  3.64  0.  0.
   366  3.65  0.  0.
   367  3.66  0.  0.
   368  3.67  0.  0.
   369  3.68  0.  0.
   370  3.69  0.  0.
   371  3.70  0.  0.
   372  3.71  0.  0.
   373  3.72  0.  0.
   374  3.73  0.  0.
   375  3.74  0.  0.
   376  3.75  0.  0.
   377  3.76  0.  0.
   378  3.77  0.  0.
   379  3.78  0.  0.
   380  3.79  0.  0.
   381  3.80  0.  0.
   382  3.81  0.  0.
   383  3.82  0.  0.
   384  3.83  0.  0.
   385  3.84  0.  0.
   386  3.85  0.  0.
   387  3.86  0.  0.
   388  3.87  0.  0.
   389  3.88  0.  0.
   390  3.89  0.  0.
   391  3.90  0.  0.
   392  3.91  0.  0.
   393  3.92  0.  0.
   394  3.93  0.  0.
   395  3.94  0.  0.
   396  3.95  0.  0.
   397  3.96  0.  0.
   398  3.97  0.  0.
   399  3.98  0.  0.
   400  3.99  0.  0.
   401  4.00  0.  0.
   402  4.01  0.  0.
   403  4.02  0.  0.
   404  4.03  0.  0.
   405  4.04  0.  0.
   406  4.05  0.  0.
   407  4.06  0.  0.
   408  4.07  0.  0.
   409  4.08  0.  0.
   410  4.09  0.  0.
   411  4.10  0.  0.
   412  4.11  0.  0.
   413  4.12  0.  0.
   414  4.13  0.  0.
   415  4.14  0.  0.
   416  4.15  0.  0.
   417  4.16  0.  0.
   418  4.17  0.  0.
   419  4.18  0.  0.
   420  4.19  0.  0.
   421  4.20  0.  0.
   422  4.21  0.  0.
   423  4.22  0.  0.
   424  4.23  0.  0.
   425  4.24  0.  0.
   426  4.25  0.  0.
   427  4.26  0.  0.
   428  4.27  0.  0.
   429  4.28  0.  0.
   430  4.29  0.  0.
   431  4.30  0.  0.
   432  4.31  0.  0.
   433  4.32  0.  0.
   434  4.33  0.  0.
   435  4.34  0.  0.
   436  4.35  0.  0.
   437  4.36  0.  0.
   438  4.37  0.  0.
   439  4.38  0.  0.
   440  4.39  0.  0.
   441  4.40  0.  0.
   442  4.41  0.  0.
   443  4.42  0.  0.
   444  4.43  0.  0.
   445  4.44  0.  0.
   446  4.45  0.  0.
   447  4.46  0.  0.
   448  4.47  0.  0.
   449  4.48  0.  0.
   450  4.49  0.  0.
   451  4.50  0.  0.
   452  4.51  0.  0.
   453  4.52  0.  0.
   454  4.53  0.  0.
   455  4.54  0.  0.
   456  4.55  0.  0.
   457  4.56  0.  0.
   458  4.57  0.  0.
   459  4.58  0.  0.
   460  4.59  0.  0.
   461  4.60  0.  0.
   462  4.61  0.  0.
   463  4.62  0.  0.
   464  4.63  0.  0.
   465  4.64  0.  0.
   466  4.65  0.  0.
   467  4.66  0.  0.
   468  4.67  0.  0.
   469  4.68  0.  0.
   470  4.69  0.  0.
   471  4.70  0.  0.
   472  4.71  0.  0.
   473  4.72  0.  0.
   474  4.73  0.  0.
   475  4.74  0.  0.
   476  4.75  0.  0.
   477  4.76  0.  0.
   478  4.77  0.  0.
   479  4.78  0.  0.
   480  4.79  0.  0.
   481  4.80  0.  0.
   482  4.81  0.  0.
   483  4.82  0.  0.
   484  4.83  0.  0.
   485  4.84  0.  0.
   486  4.85  0.  0.
   487  4.86  0.  0.
   488  4.87  0.  0.
   489  4.88  0.  0.
   490  4.89  0.  0.
   491  4.90  0.  0.
   492  4.91  0.  0.
   493  4.92  0.  0.
   494  4.93  0.  0.
   495  4.94  0.  0.
   496  4.95  0.  0.
   497  4.96  0.  0.
   498  4.97  0.  0.
   499  4.98  0.  0.
   500  4.99  0.  0.
   501  5.00  0.  0.
   502  5.01  0.  0.
   503  5.02  0.  0.
   504  5.03  0.  0.
   505  5.04  0.  0.
   506  5.05  0.  0.
   507  5.06  0.  0.
   508  5.07  0.  0.
   509  5.08  0.  0.
   510  5.09  0.  0.
   511  5.10  0.  0.
   512  5.11  0.  0.
   513  5.12  0.  0.
   514  5.13  0.  0.
   515  5.14  0.  0.
   516  5.15  0.  0.
   517  5.16  0.  0.
   518  5.17  0.  0.
   519  5.18  0.  0.
   520  5.19  0.  0.
   521  5.20  0.  0.
   522  5.21  0.  0.
   523  5.22  0.  0.
   524  5.23  0.  0.
   525  5.24  0.  0.
   526  5.25  0.  0.
   527  5.26  0.  0.
   528  5.27  0.  0.
   529  5.28  0.  0.
   530  5.29  0.  0.
   531  5.30  0.  0.
   532  5.31  0.  0.
   533  5.32  0.  0.
   534  5.33  0.  0.
   535  5.34  0.  0.
   536  5.35  0.  0.
   537  5.36  0.  0.
   538  5.37  0.  0.
   539  5.38  0.  0.
   540  5.39  0.  0.
   541  5.40  0.  0.
   542  5.41  0.  0.
   543  5.42  0.  0.
   544  5.43  0.  0.
   545  5.44  0.  0.
   546  5.45  0.  0.
   547  5.46  0.  0.
   548  5.47  0.  0.
   549  5.48  0.  0.
   550  5.49  0.  0.
   551  5.50  0.  0.
   552  5.51  0.  0.
   553  5.52  0.  0.
   554  5.53  0.  0.
   555  5.54  0.  0.
   556  5.55  0.  0.
   557  5.56  0.  0.
   558  5.57  0.  0.
   559  5.58  0.  0.
   560  5.59  0.  0.
   561  5.60  0.  0.
   562  5.61  0.  0.
   563  5.62  0.  0.
   564  5.63  0.  0.
   565  5.64  0.  0.
   566  5.65  0.  0.
   567  5.66  0.  0.
   568  5.67  0.  0.
   569  5.68  0.  0.
   570  5.69  0.  0.
   571  5.70  0.  0.
   572  5.71  0.  0.
   573  5.72  0.  0.
   574  5.73  0.  0.
   575  5.74  0.  0.
   576  5.75  0.  0.
   577  5.76  0.  0.
   578  5.77  0.  0.
   579  5.78  0.  0.
   580  5.79  0.  0.
   581  5.80  0.  0.
   582  5.81  0.  0.
   583  5.82  0.  0.
   584  5.83  0.  0.
   585  5.84  0.  0.
   586  5.85  0.  0.
   587  5.86  0.  0.
   588  5.87  0.  0.
   589  5.88  0.  0.
   590  5.89  0.  0.
   591  5.90  0.  0.
   592  5.91  0.  0.
   593  5.92  0.  0.
   594  5.93  0.  0.
   595  5.94  0.  0.
   596  5.95  0.  0.
   597  5.96  0.  0.
   598  5.97  0.  0.
   599  5.98  0.  0.
   600  5.99  0.  0.
   1                         1.6008582943858E+00 -5.0791967196582E-01
     1  0.0000000000000E+00 -1.1783736764137E-09 -2.9526800810137E-09
     2  1.0000000000000E-02  3.5182782035048E-03 -5.5293658044537E-05
     3  2.0000000000000E-02  1.4047839656168E-02 -2.1247972778859E-04
     4  3.0000000000000E-02  3.1512983745367E-02 -4.4559568555878E-04
     5  4.0000000000000E-02  5.5787940015728E-02 -7.1177627413739E-04
     6  5.0000000000000E-02  8.6697467564199E-02 -9.5185606199327E-04
     7  6.0000000000000E-02  1.2401770108187E-01 -1.0912013929650E-03
     8  7.0000000000000E-02  1.6747724996330E-01 -1.0407603113491E-03
     9  8.0000000000000E-02  2.1675855808245E-01 -6.9831609466659E-04
    10  9.0000000000000E-02  2.7149953254957E-01  5.0072703934931E-05
    11  1.0000000000000E-01  3.3129544993717E-01  1.3284652665097E-03
    12  1.1000000000000E-01  3.9570114803801E-01  3.2692863008175E-03
    13  1.2000000000000E-01  4.6423351015148E-01  6.0114521680727E-03
    14  1.3000000000000E-01  5.3637424716396E-01  9.6984003776682E-03
    15  1.4000000000000E-01  6.1157298029250E-01  1.4476048574272E-02
    16  1.5000000000000E-01  6.8925062431612E-01  2.0490709847565E-02
    17  1.6000000000000E-01  7.6880306746550E-01  2.7886991504419E-02
    18  1.7000000000000E-01  8.4960513993686E-01  3.6805704357612E-02
    19  1.8000000000000E-01  9.3101485831844E-01  4.7381809112018E-02
    20  1.9000000000000E-01  1.0123779281614E+00  5.9742425582591E-02
    21  2.0000000000000E-01  1.0930324816025E+00  7.4004929278587E-02
    22  2.1000000000000E-01  1.1723140214745E+00  9.0275158360396E-02
    23  2.2000000000000E-01  1.2495605378548E+00  1.0864575215089E-01
    24  2.3000000000000E-01  1.3241177576435E+00  1.2919464029633E-01
    25  2.4000000000000E-01  1.3953444826669E+00  1.5198369936217E-01
    26  2.5000000000000E-01  1.4626179671202E+00  1.7705759115844E-01
    27  2.6000000000000E-01  1.5253392810235E+00  2.0444279446019E-01
    28  2.7000000000000E-01  1.5829386029061E+00  2.3414683906795E-01
    29  2.8000000000000E-01  1.6348803822703E+00  2.6615774838382E-01
    30  2.9000000000000E-01  1.6806683106264E+00  3.0044369390806E-01
    31  3.0000000000000E-01  1.7198500391224E+00  3.3695286232994E-01
    32  3.1000000000000E-01  1.7520215810842E+00  3.7561353323785E-01
    33  3.2000000000000E-01  1.7768313391809E+00  4.1633436294480E-01
    34  3.3000000000000E-01  1.7939836994645E+00  4.5900486755130E-01
    35  3.4000000000000E-01  1.8032421381915E+00  5.0349609617908E-01
    36  3.5000000000000E-01  1.8044317921045E+00  5.4966148333215E-01
    37  3.6000000000000E-01  1.7974414486646E+00  5.9733786759710E-01
    38  3.7000000000000E-01  1.7822249195236E+00  6.4634666239939E-01
    39  3.8000000000000E-01  1.7588017681901E+00  6.9649516329599E-01
    40  3.9000000000000E-01  1.7272573712657E+00  7.4757797531438E-01
    41  4.0000000000000E-01  1.6877423016612E+00  7.9937854314193E-01
    42  4.1000000000000E-01  1.6404710316831E+00  8.5167076652527E-01
    43  4.2000000000000E-01  1.5857199636502E+00  9.0422068304651E-01
    44  4.3000000000000E-01  1.5238248055585E+00  9.5678820048791E-01
    45  4.4000000000000E-01  1.4551773190851E+00  1.0091288612635E+00
    46  4.5000000000000E-01  1.3802214767141E+00  1.0609956218630E+00
    47  4.6000000000000E-01  1.2994490737870E+00  1.1121406308998E+00
    48  4.7000000000000E-01  1.2133948496521E+00  1.1623169901524E+00
    49  4.8000000000000E-01  1.1226311796360E+00  1.2112804839175E+00
    50  4.9000000000000E-01  1.0277624061305E+00  1.2587912630207E+00
    51  5.0000000000000E-01  9.2941888254048E-01  1.3046154709350E+00
    52  5.1000000000000E-01  8.2825080806079E-01  1.3485268006128E+00
    53  5.2000000000000E-01  7.2492193413722E-01  1.3903079718173E+00
    54  5.3000000000000E-01  6.2010322497363E-01  1.4297521199265E+00
    55  5.4000000000000E-01  5.1446655451355E-01  1.4666640883522E+00
    56  5.5000000000000E-01  4.0867852095998E-01  1.5008616178585E+00
    57  5.6000000000000E-01  3.0339445711548E-01  1.5321764271547E+00
    58  5.7000000000000E-01  1.9925271067950E-01  1.5604551801800E+00
    59  5.8000000000000E-01  9.6869263214198E-02  1.5855603364696E+00
    60  5.9000000000000E-01 -3.1672501108885E-03  1.6073708819018E+00
    61  6.0000000000000E-01 -1.0030006552432E-01  1.6257829379663E+00
    62  6.1000000000000E-01 -1.9400831446303E-01  1.6407102484689E+00
    63  6.2000000000000E-01 -2.8381050947517E-01  1.6520845433039E+00
    64  6.3000000000000E-01 -3.6926746525866E-01  1.6598557795868E+00
    65  6.4000000000000E-01 -4.4998463795131E-01  1.6639922610555E+00
    66  6.5000000000000E-01 -5.2561387597373E-01  1.6644806372345E+00
    67  6.6000000000000E-01 -5.9585458581428E-01  1.6613257844136E+00
    68  6.7000000000000E-01 -6.6045432592957E-01  1.6545505710439E+00
    69  6.8000000000000E-01 -7.1920885121563E-01  1.6441955106983E+00
    70  6.9000000000000E-01 -7.7196163909706E-01  1.6303183063054E+00
    71  7.0000000000000E-01 -8.1860293601275E-01  1.6129932899377E+00
    72  7.1000000000000E-01 -8.5906836979803E-01  1.5923107630385E+00
    73  7.2000000000000E-01 -8.9333717904327E-01  1.5683762426025E+00
    74  7.3000000000000E-01 -9.2143011485144E-01  1.5413096194902E+00
    75  7.4000000000000E-01 -9.4340707344444E-01  1.5112442357503E+00
    76  7.5000000000000E-01 -9.5936451974060E-01  1.4783258885503E+00
    77  7.6000000000000E-01 -9.6943276232933E-01  1.4427117690615E+00
    78  7.7000000000000E-01 -9.7377313922387E-01  1.4045693454022E+00
    79  7.8000000000000E-01 -9.7257517142619E-01  1.3640751995039E+00
    80  7.9000000000000E-01 -9.6605373777101E-01  1.3214138285065E+00
    81  8.0000000000000E-01 -9.5444631982914E-01  1.2767764220048E+00
    82  8.1000000000000E-01 -9.3801035997671E-01  1.2303596271262E+00
    83  8.2000000000000E-01 -9.1702076922410E-01  1.1823643140141E+00
    84  8.3000000000000E-01 -8.9176761421525E-01  1.1329943547901E+00
    85  8.4000000000000E-01 -8.6255400513384E-01  1.0824554294545E+00
    86  8.5000000000000E-01 -8.2969419827683E-01  1.0309538724386E+00
    87  8.6000000000000E-01 -7.9351191897242E-01  9.7869557362914E-01
    88  8.7000000000000E-01 -7.5433890251763E-01  9.2588494761024E-01
    89  8.8000000000000E-01 -7.1251364308161E-01  8.7272398462568E-01
    90  8.9000000000000E-01 -6.6838033323757E-01  8.1941139631105E-01
    91  9.0000000000000E-01 -6.2228797011392E-01  7.6614186859722E-01
    92  9.1000000000000E-01 -5.7458959823887E-01  7.1310543332567E-01
    93  9.2000000000000E-01 -5.2564165411388E-01  6.6048696904898E-01
    94  9.3000000000000E-01 -4.7580337349329E-01  6.0846584021721E-01
    95  9.4000000000000E-01 -4.2543621933839E-01  5.5721568248656E-01
    96  9.5000000000000E-01 -3.7490328650486E-01  5.0690434023990E-01
    97  9.6000000000000E-01 -3.2456863842570E-01  4.5769396060283E-01
    98  9.7000000000000E-01 -2.7479653135697E-01  4.0974124629402E-01
    99  9.8000000000000E-01 -2.2595048312364E-01  3.6319786759290E-01
   100  9.9000000000000E-01 -1.7839214566686E-01  3.1821103157218E-01
   101  1.0000000000000E+00 -1.3247994396590E-01  2.7492420456062E-01
   102  1.0100000000000E+00 -8.8567447971761E-02  2.3347798160891E-01
   103  1.0200000000000E+00 -4.7001448919740E-02  1.9401109456467E-01
   104  1.0300000000000E+00 -8.1197166322566E-03  1.5666154826228E-01
   105  1.0400000000000E+00  2.7751579971361E-02  1.2156787233507E-01
   106  1.0500000000000E+00  6.0300801131514E-02  8.8870474297364E-02
   107  1.0600000000000E+00  8.9234119410625E-02  5.8713077861791E-02
   108  1.0700000000000E+00  1.1427915818818E-01  3.1244228979097E-02
   109  1.0800000000000E+00  1.3518898048547E-01  6.6188508462600E-03
   110  1.0900000000000E+00  1.5174641896117E-01 -1.5000171367812E-02
   111  1.1000000000000E+00  1.6376871370488E-01 -3.3440407562133E-02
   112  1.1100000000000E+00  1.7111247225508E-01 -4.8518303026878E-02
   113  1.1200000000000E+00  1.7366949850961E-01 -6.0042997216903E-02
   114  1.1300000000000E+00  1.7134022770371E-01 -6.7831746318034E-02
   115  1.1400000000000E+00  1.6402344581250E-01 -7.1714941878726E-02
   116  1.1500000000000E+00  1.5154977500680E-01 -7.1527693214596E-02
   117  1.1600000000000E+00  1.3373870522823E-01 -6.7117565798028E-02
   118  1.1700000000000E+00  1.1056186530049E-01 -5.8358912983855E-02
   119  1.1800000000000E+00  8.1968264676517E-02 -4.5130248963295E-02
   120  1.1900000000000E+00  4.8365562208648E-02 -2.7604819640737E-02
   121  1.2000000000000E+00  5.9066923463417E-03 -3.4181697420513E-03
   122  1.2100000000000E+00  2.7603613005840E-04 -1.6272105908722E-04
   123  1.2200000000000E+00 -7.7793362390764E-05  4.5873647999455E-05
   124  1.23  0.  0.
   125  1.24  0.  0.
   126  1.25  0.  0.
   127  1.26  0.  0.
   128  1.27  0.  0.
   129  1.28  0.  0.
   130  1.29  0.  0.
   131  1.30  0.  0.
   132  1.31  0.  0.
   133  1.32  0.  0.
   134  1.33  0.  0.
   135  1.34  0.  0.
   136  1.35  0.  0.
   137  1.36  0.  0.
   138  1.37  0.  0.
   139  1.38  0.  0.
   140  1.39  0.  0.
   141  1.40  0.  0.
   142  1.41  0.  0.
   143  1.42  0.  0.
   144  1.43  0.  0.
   145  1.44  0.  0.
   146  1.45  0.  0.
   147  1.46  0.  0.
   148  1.47  0.  0.
   149  1.48  0.  0.
   150  1.49  0.  0.
   151  1.50  0.  0.
   152  1.51  0.  0.
   153  1.52  0.  0.
   154  1.53  0.  0.
   155  1.54  0.  0.
   156  1.55  0.  0.
   157  1.56  0.  0.
   158  1.57  0.  0.
   159  1.58  0.  0.
   160  1.59  0.  0.
   161  1.60  0.  0.
   162  1.61  0.  0.
   163  1.62  0.  0.
   164  1.63  0.  0.
   165  1.64  0.  0.
   166  1.65  0.  0.
   167  1.66  0.  0.
   168  1.67  0.  0.
   169  1.68  0.  0.
   170  1.69  0.  0.
   171  1.70  0.  0.
   172  1.71  0.  0.
   173  1.72  0.  0.
   174  1.73  0.  0.
   175  1.74  0.  0.
   176  1.75  0.  0.
   177  1.76  0.  0.
   178  1.77  0.  0.
   179  1.78  0.  0.
   180  1.79  0.  0.
   181  1.80  0.  0.
   182  1.81  0.  0.
   183  1.82  0.  0.
   184  1.83  0.  0.
   185  1.84  0.  0.
   186  1.85  0.  0.
   187  1.86  0.  0.
   188  1.87  0.  0.
   189  1.88  0.  0.
   190  1.89  0.  0.
   191  1.90  0.  0.
   192  1.91  0.  0.
   193  1.92  0.  0.
   194  1.93  0.  0.
   195  1.94  0.  0.
   196  1.95  0.  0.
   197  1.96  0.  0.
   198  1.97  0.  0.
   199  1.98  0.  0.
   200  1.99  0.  0.
   201  2.00  0.  0.
   202  2.01  0.  0.
   203  2.02  0.  0.
   204  2.03  0.  0.
   205  2.04  0.  0.
   206  2.05  0.  0.
   207  2.06  0.  0.
   208  2.07  0.  0.
   209  2.08  0.  0.
   210  2.09  0.  0.
   211  2.10  0.  0.
   212  2.11  0.  0.
   213  2.12  0.  0.
   214  2.13  0.  0.
   215  2.14  0.  0.
   216  2.15  0.  0.
   217  2.16  0.  0.
   218  2.17  0.  0.
   219  2.18  0.  0.