Si    ONCVPSP-4.0.1  r_core=   1.60630   1.71555   1.91059
     14.0000      4.0000      250217    zatom,zion,pspd
     8       2   2     4   600     0    pspcod,pspxc,lmax,lloc,mmax,r2well
  5.99000000  4.00000000  0.00000000    rchrg fchrg qchrg
     2     2     2     0    nproj
     3     1           extension_switch
     3     4     0    nprojso
   0                        -6.5425802956232E+00  2.2891730528002E+00
     1  0.0000000000000E+00 -1.2975464147580E-08  5.8668416062779E-09
     2  1.0000000000000E-02  7.4222461453456E-02 -4.4462277210469E-03
     3  2.0000000000000E-02  1.4803666721491E-01 -8.7114354453628E-03
     4  3.0000000000000E-02  2.2104138369365E-01 -1.2617909746006E-02
     5  4.0000000000000E-02  2.9284926744102E-01 -1.5994479415728E-02
     6  5.0000000000000E-02  3.6309342850089E-01 -1.8679610827107E-02
     7  6.0000000000000E-02  4.3143354522620E-01 -2.0524296699246E-02
     8  7.0000000000000E-02  4.9756139670888E-01 -2.1394676483079E-02
     9  8.0000000000000E-02  5.6120569194587E-01 -2.1174332444166E-02
    10  9.0000000000000E-02  6.2213609053705E-01 -1.9766212611986E-02
    11  1.0000000000000E-01  6.8016632773475E-01 -1.7094139923833E-02
    12  1.1000000000000E-01  7.3515637664090E-01 -1.3103875941436E-02
    13  1.2000000000000E-01  7.8701360183422E-01 -7.7637172624045E-03
    14  1.3000000000000E-01  8.3569288123096E-01 -1.0646129737453E-03
    15  1.4000000000000E-01  8.8119569603899E-01  6.9801980218005E-03
    16  1.5000000000000E-01  9.2356821174505E-01  1.6336020463061E-02
    17  1.6000000000000E-01  9.6289839566745E-01  2.6947987315132E-02
    18  1.7000000000000E-01  9.9931223820684E-01  3.8742765938333E-02
    19  1.8000000000000E-01  1.0329691650579E+00  5.1630647053239E-02
    20  1.9000000000000E-01  1.0640567458529E+00  6.5507969313178E-02
    21  2.0000000000000E-01  1.0927848205890E+00  8.0259824924031E-02
    22  2.1000000000000E-01  1.1193791783864E+00  9.5762985570481E-02
    23  2.2000000000000E-01  1.1440749333378E+00  1.1188898305462E-01
    24  2.3000000000000E-01  1.1671097492090E+00  1.2850727563428E-01
    25  2.4000000000000E-01  1.1887170683688E+00  1.4548842914133E-01
    26  2.5000000000000E-01  1.2091195004874E+00  1.6270724160795E-01
    27  2.6000000000000E-01  1.2285225232193E+00  1.8004574134134E-01
    28  2.7000000000000E-01  1.2471086403616E+00  1.9739599114020E-01
    29  2.8000000000000E-01  1.2650321329763E+00  2.1466263558206E-01
    30  2.9000000000000E-01  1.2824145259146E+00  2.3176513393797E-01
    31  3.0000000000000E-01  1.2993408763505E+00  2.4863962817117E-01
    32  3.1000000000000E-01  1.3158569726726E+00  2.6524040349832E-01
    33  3.2000000000000E-01  1.3319675117909E+00  2.8154090796459E-01
    34  3.3000000000000E-01  1.3476353010347E+00  2.9753430721125E-01
    35  3.4000000000000E-01  1.3627815078297E+00  3.1323356088653E-01
    36  3.5000000000000E-01  1.3772869567502E+00  3.2867101774323E-01
    37  3.6000000000000E-01  1.3909944498713E+00  3.4389753714927E-01
    38  3.7000000000000E-01  1.4037120631195E+00  3.5898115527733E-01
    39  3.8000000000000E-01  1.4152173490492E+00  3.7400532440506E-01
    40  3.9000000000000E-01  1.4252623556678E+00  3.8906676332656E-01
    41  4.0000000000000E-01  1.4335793520405E+00  4.0427296563723E-01
    42  4.1000000000000E-01  1.4398871348752E+00  4.1973942041455E-01
    43  4.2000000000000E-01  1.4438977764763E+00  4.3558660640536E-01
    44  4.3000000000000E-01  1.4453236636900E+00  4.5193682609738E-01
    45  4.4000000000000E-01  1.4438846699931E+00  4.6891094988194E-01
    46  4.5000000000000E-01  1.4393152988795E+00  4.8662514281723E-01
    47  4.6000000000000E-01  1.4313716362816E+00  5.0518764722241E-01
    48  4.7000000000000E-01  1.4198379529481E+00  5.2469569345292E-01
    49  4.8000000000000E-01  1.4045328044396E+00  5.4523260873873E-01
    50  4.9000000000000E-01  1.3853144865574E+00  5.6686518996126E-01
    51  5.0000000000000E-01  1.3620857173925E+00  5.8964140078111E-01
    52  5.1000000000000E-01  1.3347974334832E+00  6.1358844672404E-01
    53  5.2000000000000E-01  1.3034516064584E+00  6.3871127382897E-01
    54  5.3000000000000E-01  1.2681030076228E+00  6.6499152742997E-01
    55  5.4000000000000E-01  1.2288598707483E+00  6.9238699777761E-01
    56  5.5000000000000E-01  1.1858834273808E+00  7.2083156871470E-01
    57  5.6000000000000E-01  1.1393863137415E+00  7.5023567473375E-01
    58  5.7000000000000E-01  1.0896298732367E+00  7.8048726069399E-01
    59  5.8000000000000E-01  1.0369204031630E+00  8.1145322750356E-01
    60  5.9000000000000E-01  9.8160441784401E-01  8.4298133641669E-01
    61  6.0000000000000E-01  9.2406302265215E-01  8.7490253448859E-01
    62  6.1000000000000E-01  8.6470551364649E-01  9.0703365439490E-01
    63  6.2000000000000E-01  8.0396233544264E-01  9.3918043346180E-01
    64  6.3000000000000E-01  7.4227754501883E-01  9.7114078955446E-01
    65  6.4000000000000E-01  6.8010094110105E-01  1.0027082855947E+00
    66  6.5000000000000E-01  6.1788002728234E-01  1.0336757100565E+00
    67  6.6000000000000E-01  5.5605198190769E-01  1.0638386979229E+00
    68  6.7000000000000E-01  4.9503580886662E-01  1.0929993153460E+00
    69  6.8000000000000E-01  4.3522484073444E-01  1.1209695316698E+00
    70  6.9000000000000E-01  3.7697975922264E-01  1.1475745045480E+00
    71  7.0000000000000E-01  3.2062228775844E-01  1.1726556075785E+00
    72  7.1000000000000E-01  2.6642969740993E-01  1.1960731351140E+00
    73  7.2000000000000E-01  2.1463025058135E-01  1.2177086255758E+00
    74  7.3000000000000E-01  1.6539968726874E-01  1.2374667525741E+00
    75  7.4000000000000E-01  1.1885883659774E-01  1.2552767422371E+00
    76  7.5000000000000E-01  7.5072412329492E-02  1.2710932851972E+00
    77  7.6000000000000E-01  3.4049025526214E-02  1.2848969224529E+00
    78  7.7000000000000E-01 -4.2575788388526E-03  1.2966938955886E+00
    79  7.8000000000000E-01 -3.9946081293364E-02  1.3065154633636E+00
    80  7.9000000000000E-01 -7.3163989780799E-02  1.3144166982082E+00
    81  8.0000000000000E-01 -1.0410295626114E-01  1.3204747874572E+00
    82  8.1000000000000E-01 -1.3299310450436E-01  1.3247868749580E+00
    83  8.2000000000000E-01 -1.6009648799121E-01  1.3274674887723E+00
    84  8.3000000000000E-01 -1.8569981682834E-01  1.3286456098357E+00
    85  8.4000000000000E-01 -2.1010660971103E-01  1.3284614444399E+00
    86  8.5000000000000E-01 -2.3362894083415E-01  1.3270629700812E+00
    87  8.6000000000000E-01 -2.5657896193782E-01  1.3246023294334E+00
    88  8.7000000000000E-01 -2.7926038612851E-01  1.3212321508203E+00
    89  8.8000000000000E-01 -3.0196012257286E-01  1.3171018755154E+00
    90  8.9000000000000E-01 -3.2494024953611E-01  1.3123541724197E+00
    91  9.0000000000000E-01 -3.4843050753616E-01  1.3071215191577E+00
    92  9.1000000000000E-01 -3.7262148469977E-01  1.3015230254097E+00
    93  9.2000000000000E-01 -3.9765865291811E-01  1.2956615694294E+00
    94  9.3000000000000E-01 -4.2363739636720E-01  1.2896213122669E+00
    95  9.4000000000000E-01 -4.5059915372735E-01  1.2834656463777E+00
    96  9.5000000000000E-01 -4.7852877240783E-01  1.2772356261888E+00
    97  9.6000000000000E-01 -5.0735314774284E-01  1.2709489180206E+00
    98  9.7000000000000E-01 -5.3694119299030E-01  1.2645992957319E+00
    99  9.8000000000000E-01 -5.6710515760729E-01  1.2581566967988E+00
   100  9.9000000000000E-01 -5.9760328230266E-01  1.2515678415101E+00
   101  1.0000000000000E+00 -6.2814375036922E-01  1.2447574058063E+00
   102  1.0100000000000E+00 -6.5838986642457E-01  1.2376297262765E+00
   103  1.0200000000000E+00 -6.8796636654255E-01  1.2300710042137E+00
   104  1.0300000000000E+00 -7.1646673840597E-01  1.2219519646579E+00
   105  1.0400000000000E+00 -7.4346140713550E-01  1.2131309162712E+00
   106  1.0500000000000E+00 -7.6850662235991E-01  1.2034571489137E+00
   107  1.0600000000000E+00 -7.9115386529787E-01  1.1927745981065E+00
   108  1.0700000000000E+00 -8.1095958155903E-01  1.1809256993627E+00
   109  1.0800000000000E+00 -8.2749503630749E-01  1.1677553507740E+00
   110  1.0900000000000E+00 -8.4035608359933E-01  1.1531148993549E+00
   111  1.1000000000000E+00 -8.4917264124347E-01  1.1368660655563E+00
   112  1.1100000000000E+00 -8.5361766648637E-01  1.1188847210782E+00
   113  1.1200000000000E+00 -8.5341543611615E-01  1.0990644376448E+00
   114  1.1300000000000E+00 -8.4834894711077E-01  1.0773197286960E+00
   115  1.1400000000000E+00 -8.3826627044074E-01  1.0535889119264E+00
   116  1.1500000000000E+00 -8.2308571081008E-01  1.0278365281363E+00
   117  1.1600000000000E+00 -8.0279964851598E-01  1.0000552607972E+00
   118  1.1700000000000E+00 -7.7747696585934E-01  9.7026731090950E-01
   119  1.1800000000000E+00 -7.4726398893932E-01  9.3852519288410E-01
   120  1.1900000000000E+00 -7.1238390592349E-01  9.0491192917813E-01
   121  1.2000000000000E+00 -6.7313465393510E-01  8.6954063384154E-01
   122  1.2100000000000E+00 -6.2988529848377E-01  8.3255348795508E-01
   123  1.2200000000000E+00 -5.8307096057342E-01  7.9412012263124E-01
   124  1.2300000000000E+00 -5.3318637715836E-01  7.5443543776527E-01
   125  1.2400000000000E+00 -4.8077820952506E-01  7.1371689667185E-01
   126  1.2500000000000E+00 -4.2643624081590E-01  6.7220134785615E-01
   127  1.2600000000000E+00 -3.7078362803778E-01  6.3014143534566E-01
   128  1.2700000000000E+00 -3.1446639455195E-01  5.8780166784827E-01
   129  1.2800000000000E+00 -2.5814236609574E-01  5.4545422444364E-01
   130  1.2900000000000E+00 -2.0246976638475E-01  5.0337458036986E-01
   131  1.3000000000000E+00 -1.4809569688140E-01  4.6183704055272E-01
   132  1.3100000000000E+00 -9.5644729353220E-02  4.2111027081993E-01
   133  1.3200000000000E+00 -4.5707839164157E-02  3.8145291715189E-01
   134  1.3300000000000E+00  1.1680981522930E-03  3.4310940182702E-01
   135  1.3400000000000E+00  4.4490034422528E-02  3.0630598198921E-01
   136  1.3500000000000E+00  8.3827502288897E-02  2.7124715100411E-01
   137  1.3600000000000E+00  1.1882021495518E-01  2.3811245612886E-01
   138  1.3700000000000E+00  1.4918435495003E-01  2.0705379760436E-01
   139  1.3800000000000E+00  1.7471742022002E-01  1.7819326452420E-01
   140  1.3900000000000E+00  1.9530152446735E-01  1.5162155182051E-01
   141  1.4000000000000E+00  2.1090507934114E-01  1.2739699079691E-01
   142  1.4100000000000E+00  2.2158281845725E-01  1.0554521300187E-01
   143  1.4200000000000E+00  2.2747415659894E-01  8.6059454135208E-02
   144  1.4300000000000E+00  2.2879991092841E-01  6.8901491479426E-02
   145  1.4400000000000E+00  2.2585744442565E-01  5.4003195126685E-02
   146  1.4500000000000E+00  2.1901432372023E-01  4.1268660568753E-02
   147  1.4600000000000E+00  2.0870061387574E-01  3.0576878084105E-02
   148  1.4700000000000E+00  1.9539996062801E-01  2.1784883154052E-02
   149  1.4800000000000E+00  1.7963963554890E-01  1.4731322080517E-02
   150  1.4900000000000E+00  1.6197974105571E-01  9.2403582864347E-03
   151  1.5000000000000E+00  1.4300178736882E-01  5.1258381632471E-03
   152  1.5100000000000E+00  1.2329689515164E-01  2.1956230404969E-03
   153  1.5200000000000E+00  1.0345373235983E-01  2.5602778387076E-04
   154  1.5300000000000E+00  8.4047502216580E-02 -8.8398767428129E-04
   155  1.5400000000000E+00  6.5630741476454E-02 -1.4090335335089E-03
   156  1.5500000000000E+00  4.8712826913494E-02 -1.4909292254674E-03
   157  1.5600000000000E+00  3.3755213558374E-02 -1.2862757261438E-03
   158  1.5700000000000E+00  2.1164165558531E-02 -9.3347616410042E-04
   159  1.5800000000000E+00  1.1284601303146E-02 -5.4974559918336E-04
   160  1.5900000000000E+00  4.3663421543412E-03 -2.2704578451059E-04
   161  1.6000000000000E+00  7.1171560740455E-04 -3.8526125571714E-05
   162  1.6100000000000E+00 -7.5785440324415E-05  4.2221685577390E-06
   163  1.6200000000000E+00  2.2773254893143E-05 -1.2577798775995E-06
   164  1.63  0.  0.
   165  1.64  0.  0.
   166  1.65  0.  0.
   167  1.66  0.  0.
   168  1.67  0.  0.
   169  1.68  0.  0.
   170  1.69  0.  0.
   171  1.70  0.  0.
   172  1.71  0.  0.
   173  1.72  0.  0.
   174  1.73  0.  0.
   175  1.74  0.  0.
   176  1.75  0.  0.
   177  1.76  0.  0.
   178  1.77  0.  0.
   179  1.78  0.  0.
   180  1.79  0.  0.
   181  1.80  0.  0.
   182  1.81  0.  0.
   183  1.82  0.  0.
   184  1.83  0.  0.
   185  1.84  0.  0.
   186  1.85  0.  0.
   187  1.86  0.  0.
   188  1.87  0.  0.
   189  1.88  0.  0.
   190  1.89  0.  0.
   191  1.90  0.  0.
   192  1.91  0.  0.
   193  1.92  0.  0.
   194  1.93  0.  0.
   195  1.94  0.  0.
   196  1.95  0.  0.
   197  1.96  0.  0.
   198  1.97  0.  0.
   199  1.98  0.  0.
   200  1.99  0.  0.
   201  2.00  0.  0.
   202  2.01  0.  0.
   203  2.02  0.  0.
   204  2.03  0.  0.
   205  2.04  0.  0.
   206  2.05  0.  0.
   207  2.06  0.  0.
   208  2.07  0.  0.
   209  2.08  0.  0.
   210  2.09  0.  0.
   211  2.10  0.  0.
   212  2.11  0.  0.
   213  2.12  0.  0.
   214  2.13  0.  0.
   215  2.14  0.  0.
   216  2.15  0.  0.
   217  2.16  0.  0.
   218  2.17  0.  0.
   219  2.18  0.  0.
   220  2.19  0.  0.
   221  2.20  0.  0.
   222  2.21  0.  0.
   223  2.22  0.  0.
   224  2.23  0.  0.
   225  2.24  0.  0.
   226  2.25  0.  0.
   227  2.26  0.  0.
   228  2.27  0.  0.
   229  2.28  0.  0.
   230  2.29  0.  0.
   231  2.30  0.  0.
   232  2.31  0.  0.
   233  2.32  0.  0.
   234  2.33  0.  0.
   235  2.34  0.  0.
   236  2.35  0.  0.
   237  2.36  0.  0.
   238  2.37  0.  0.
   239  2.38  0.  0.
   240  2.39  0.  0.
   241  2.40  0.  0.
   242  2.41  0.  0.
   243  2.42  0.  0.
   244  2.43  0.  0.
   245  2.44  0.  0.
   246  2.45  0.  0.
   247  2.46  0.  0.
   248  2.47  0.  0.
   249  2.48  0.  0.
   250  2.49  0.  0.
   251  2.50  0.  0.
   252  2.51  0.  0.
   253  2.52  0.  0.
   254  2.53  0.  0.
   255  2.54  0.  0.
   256  2.55  0.  0.
   257  2.56  0.  0.
   258  2.57  0.  0.
   259  2.58  0.  0.
   260  2.59  0.  0.
   261  2.60  0.  0.
   262  2.61  0.  0.
   263  2.62  0.  0.
   264  2.63  0.  0.
   265  2.64  0.  0.
   266  2.65  0.  0.
   267  2.66  0.  0.
   268  2.67  0.  0.
   269  2.68  0.  0.
   270  2.69  0.  0.
   271  2.70  0.  0.
   272  2.71  0.  0.
   273  2.72  0.  0.
   274  2.73  0.  0.
   275  2.74  0.  0.
   276  2.75  0.  0.
   277  2.76  0.  0.
   278  2.77  0.  0.
   279  2.78  0.  0.
   280  2.79  0.  0.
   281  2.80  0.  0.
   282  2.81  0.  0.
   283  2.82  0.  0.
   284  2.83  0.  0.
   285  2.84  0.  0.
   286  2.85  0.  0.
   287  2.86  0.  0.
   288  2.87  0.  0.
   289  2.88  0.  0.
   290  2.89  0.  0.
   291  2.90  0.  0.
   292  2.91  0.  0.
   293  2.92  0.  0.
   294  2.93  0.  0.
   295  2.94  0.  0.
   296  2.95  0.  0.
   297  2.96  0.  0.
   298  2.97  0.  0.
   299  2.98  0.  0.
   300  2.99  0.  0.
   301  3.00  0.  0.
   302  3.01  0.  0.
   303  3.02  0.  0.
   304  3.03  0.  0.
   305  3.04  0.  0.
   306  3.05  0.  0.
   307  3.06  0.  0.
   308  3.07  0.  0.
   309  3.08  0.  0.
   310  3.09  0.  0.
   311  3.10  0.  0.
   312  3.11  0.  0.
   313  3.12  0.  0.
   314  3.13  0.  0.
   315  3.14  0.  0.
   316  3.15  0.  0.
   317  3.16  0.  0.
   318  3.17  0.  0.
   319  3.18  0.  0.
   320  3.19  0.  0.
   321  3.20  0.  0.
   322  3.21  0.  0.
   323  3.22  0.  0.
   324  3.23  0.  0.
   325  3.24  0.  0.
   326  3.25  0.  0.
   327  3.26  0.  0.
   328  3.27  0.  0.
   329  3.28  0.  0.
   330  3.29  0.  0.
   331  3.30  0.  0.
   332  3.31  0.  0.
   333  3.32  0.  0.
   334  3.33  0.  0.
   335  3.34  0.  0.
   336  3.35  0.  0.
   337  3.36  0.  0.
   338  3.37  0.  0.
   339  3.38  0.  0.
   340  3.39  0.  0.
   341  3.40  0.  0.
   342  3.41  0.  0.
   343  3.42  0.  0.
   344  3.43  0.  0.
   345  3.44  0.  0.
   346  3.45  0.  0.
   347  3.46  0.  0.
   348  3.47  0.  0.
   349  3.48  0.  0.
   350  3.49  0.  0.
   351  3.50  0.  0.
   352  3.51  0.  0.
   353  3.52  0.  0.
   354  3.53  0.  0.
   355  3.54  0.  0.
   356  3.55  0.  0.
   357  3.56  0.  0.
   358  3.57  0.  0.
   359  3.58  0.  0.
   360  3.59  0.  0.
   361  3.60  0.  0.
   362  3.61  0.  0.
   363  3.62  0.  0.
   364  3.63  0.  0.
   365  3.64  0.  0.
   366  3.65  0.  0.
   367  3.66  0.  0.
   368  3.67  0.  0.
   369  3.68  0.  0.
   370  3.69  0.  0.
   371  3.70  0.  0.
   372  3.71  0.  0.
   373  3.72  0.  0.
   374  3.73  0.  0.
   375  3.74  0.  0.
   376  3.75  0.  0.
   377  3.76  0.  0.
   378  3.77  0.  0.
   379  3.78  0.  0.
   380  3.79  0.  0.
   381  3.80  0.  0.
   382  3.81  0.  0.
   383  3.82  0.  0.
   384  3.83  0.  0.
   385  3.84  0.  0.
   386  3.85  0.  0.
   387  3.86  0.  0.
   388  3.87  0.  0.
   389  3.88  0.  0.
   390  3.89  0.  0.
   391  3.90  0.  0.
   392  3.91  0.  0.
   393  3.92  0.  0.
   394  3.93  0.  0.
   395  3.94  0.  0.
   396  3.95  0.  0.
   397  3.96  0.  0.
   398  3.97  0.  0.
   399  3.98  0.  0.
   400  3.99  0.  0.
   401  4.00  0.  0.
   402  4.01  0.  0.
   403  4.02  0.  0.
   404  4.03  0.  0.
   405  4.04  0.  0.
   406  4.05  0.  0.
   407  4.06  0.  0.
   408  4.07  0.  0.
   409  4.08  0.  0.
   410  4.09  0.  0.
   411  4.10  0.  0.
   412  4.11  0.  0.
   413  4.12  0.  0.
   414  4.13  0.  0.
   415  4.14  0.  0.
   416  4.15  0.  0.
   417  4.16  0.  0.
   418  4.17  0.  0.
   419  4.18  0.  0.
   420  4.19  0.  0.
   421  4.20  0.  0.
   422  4.21  0.  0.
   423  4.22  0.  0.
   424  4.23  0.  0.
   425  4.24  0.  0.
   426  4.25  0.  0.
   427  4.26  0.  0.
   428  4.27  0.  0.
   429  4.28  0.  0.
   430  4.29  0.  0.
   431  4.30  0.  0.
   432  4.31  0.  0.
   433  4.32  0.  0.
   434  4.33  0.  0.
   435  4.34  0.  0.
   436  4.35  0.  0.
   437  4.36  0.  0.
   438  4.37  0.  0.
   439  4.38  0.  0.
   440  4.39  0.  0.
   441  4.40  0.  0.
   442  4.41  0.  0.
   443  4.42  0.  0.
   444  4.43  0.  0.
   445  4.44  0.  0.
   446  4.45  0.  0.
   447  4.46  0.  0.
   448  4.47  0.  0.
   449  4.48  0.  0.
   450  4.49  0.  0.
   451  4.50  0.  0.
   452  4.51  0.  0.
   453  4.52  0.  0.
   454  4.53  0.  0.
   455  4.54  0.  0.
   456  4.55  0.  0.
   457  4.56  0.  0.
   458  4.57  0.  0.
   459  4.58  0.  0.
   460  4.59  0.  0.
   461  4.60  0.  0.
   462  4.61  0.  0.
   463  4.62  0.  0.
   464  4.63  0.  0.
   465  4.64  0.  0.
   466  4.65  0.  0.
   467  4.66  0.  0.
   468  4.67  0.  0.
   469  4.68  0.  0.
   470  4.69  0.  0.
   471  4.70  0.  0.
   472  4.71  0.  0.
   473  4.72  0.  0.
   474  4.73  0.  0.
   475  4.74  0.  0.
   476  4.75  0.  0.
   477  4.76  0.  0.
   478  4.77  0.  0.
   479  4.78  0.  0.
   480  4.79  0.  0.
   481  4.80  0.  0.
   482  4.81  0.  0.
   483  4.82  0.  0.
   484  4.83  0.  0.
   485  4.84  0.  0.
   486  4.85  0.  0.
   487  4.86  0.  0.
   488  4.87  0.  0.
   489  4.88  0.  0.
   490  4.89  0.  0.
   491  4.90  0.  0.
   492  4.91  0.  0.
   493  4.92  0.  0.
   494  4.93  0.  0.
   495  4.94  0.  0.
   496  4.95  0.  0.
   497  4.96  0.  0.
   498  4.97  0.  0.
   499  4.98  0.  0.
   500  4.99  0.  0.
   501  5.00  0.  0.
   502  5.01  0.  0.
   503  5.02  0.  0.
   504  5.03  0.  0.
   505  5.04  0.  0.
   506  5.05  0.  0.
   507  5.06  0.  0.
   508  5.07  0.  0.
   509  5.08  0.  0.
   510  5.09  0.  0.
   511  5.10  0.  0.
   512  5.11  0.  0.
   513  5.12  0.  0.
   514  5.13  0.  0.
   515  5.14  0.  0.
   516  5.15  0.  0.
   517  5.16  0.  0.
   518  5.17  0.  0.
   519  5.18  0.  0.
   520  5.19  0.  0.
   521  5.20  0.  0.
   522  5.21  0.  0.
   523  5.22  0.  0.
   524  5.23  0.  0.
   525  5.24  0.  0.
   526  5.25  0.  0.
   527  5.26  0.  0.
   528  5.27  0.  0.
   529  5.28  0.  0.
   530  5.29  0.  0.
   531  5.30  0.  0.
   532  5.31  0.  0.
   533  5.32  0.  0.
   534  5.33  0.  0.
   535  5.34  0.  0.
   536  5.35  0.  0.
   537  5.36  0.  0.
   538  5.37  0.  0.
   539  5.38  0.  0.
   540  5.39  0.  0.
   541  5.40  0.  0.
   542  5.41  0.  0.
   543  5.42  0.  0.
   544  5.43  0.  0.
   545  5.44  0.  0.
   546  5.45  0.  0.
   547  5.46  0.  0.
   548  5.47  0.  0.
   549  5.48  0.  0.
   550  5.49  0.  0.
   551  5.50  0.  0.
   552  5.51  0.  0.
   553  5.52  0.  0.
   554  5.53  0.  0.
   555  5.54  0.  0.
   556  5.55  0.  0.
   557  5.56  0.  0.
   558  5.57  0.  0.
   559  5.58  0.  0.
   560  5.59  0.  0.
   561  5.60  0.  0.
   562  5.61  0.  0.
   563  5.62  0.  0.
   564  5.63  0.  0.
   565  5.64  0.  0.
   566  5.65  0.  0.
   567  5.66  0.  0.
   568  5.67  0.  0.
   569  5.68  0.  0.
   570  5.69  0.  0.
   571  5.70  0.  0.
   572  5.71  0.  0.
   573  5.72  0.  0.
   574  5.73  0.  0.
   575  5.74  0.  0.
   576  5.75  0.  0.
   577  5.76  0.  0.
   578  5.77  0.  0.
   579  5.78  0.  0.
   580  5.79  0.  0.
   581  5.80  0.  0.
   582  5.81  0.  0.
   583  5.82  0.  0.
   584  5.83  0.  0.
   585  5.84  0.  0.
   586  5.85  0.  0.
   587  5.86  0.  0.
   588  5.87  0.  0.
   589  5.88  0.  0.
   590  5.89  0.  0.
   591  5.90  0.  0.
   592  5.91  0.  0.
   593  5.92  0.  0.
   594  5.93  0.  0.
   595  5.94  0.  0.
   596  5.95  0.  0.
   597  5.96  0.  0.
   598  5.97  0.  0.
   599  5.98  0.  0.
   600  5.99  0.  0.
   1                         2.6356283940630E+00  5.9789100549098E-01
     1  0.0000000000000E+00 -4.2704611333266E-08  5.1263367550902E-08
     2  1.0000000000000E-02 -1.3554200304994E-03  2.0873470421501E-03
     3  2.0000000000000E-02 -5.3766190055624E-03  8.2958769224942E-03
     4  3.0000000000000E-02 -1.1929522122851E-02  1.8466376174197E-02
     5  4.0000000000000E-02 -2.0794340578616E-02  3.2337858715970E-02
     6  5.0000000000000E-02 -3.1670985112486E-02  4.9554011885811E-02
     7  6.0000000000000E-02 -4.4186466576945E-02  6.9672006430636E-02
     8  7.0000000000000E-02 -5.7904110031298E-02  9.2173461920941E-02
     9  8.0000000000000E-02 -7.2334366155236E-02  1.1647730779632E-01
    10  9.0000000000000E-02 -8.6946966010276E-02  1.4195423496294E-01
    11  1.0000000000000E-01 -1.0118413321514E-01  1.6794239460674E-01
    12  1.1000000000000E-01 -1.1447454218059E-01  1.9376397054481E-01
    13  1.2000000000000E-01 -1.2624769276047E-01  2.1874222972447E-01
    14  1.3000000000000E-01 -1.3594836094858E-01  2.4221864290989E-01
    15  1.4000000000000E-01 -1.4305078234562E-01  2.6356966447916E-01
    16  1.5000000000000E-01 -1.4707223012059E-01  2.8222276668639E-01
    17  1.6000000000000E-01 -1.4758566200238E-01  2.9767133960084E-01
    18  1.7000000000000E-01 -1.4423113118907E-01  3.0948809288282E-01
    19  1.8000000000000E-01 -1.3672568351312E-01  3.1733662905134E-01
    20  1.9000000000000E-01 -1.2487149714703E-01  3.2098089920129E-01
    21  2.0000000000000E-01 -1.0856206082577E-01  3.2029230032036E-01
    22  2.1000000000000E-01 -8.7786231115847E-02  3.1525422736101E-01
    23  2.2000000000000E-01 -6.2630057682059E-02  3.0596395182576E-01
    24  2.3000000000000E-01 -3.3276316705335E-02  2.9263176050470E-01
    25  2.4000000000000E-01 -1.7454375735271E-06  2.7557735175969E-01
    26  2.5000000000000E-01  3.6827975851587E-02  2.5522355093202E-01
    27  2.6000000000000E-01  7.6765395782306E-02  2.3208746959291E-01
    28  2.7000000000000E-01  1.1929046833912E-01  2.0676929401252E-01
    29  2.8000000000000E-01  1.6382153721252E-01  1.7993894499286E-01
    30  2.9000000000000E-01  2.0972788810588E-01  1.5232090277733E-01
    31  3.0000000000000E-01  2.5634359111650E-01  1.2467753590787E-01
    32  3.1000000000000E-01  3.0298232341027E-01  9.7791310581280E-02
    33  3.2000000000000E-01  3.4895283737594E-01  7.2446286356789E-02
    34  3.3000000000000E-01  3.9357472187378E-01  4.9409324264784E-02
    35  3.4000000000000E-01  4.3619409452450E-01  2.9411443944711E-02
    36  3.5000000000000E-01  4.7619886148618E-01  1.3129767091874E-02
    37  3.6000000000000E-01  5.1303318792293E-01  1.1704751355679E-03
    38  3.7000000000000E-01  5.4621083728151E-01 -5.9468101542925E-03
    39  3.8000000000000E-01  5.7532706027786E-01 -7.8028431638508E-03
    40  3.9000000000000E-01  6.0006874469528E-01 -4.0904257194886E-03
    41  4.0000000000000E-01  6.2022257408089E-01  5.3763633650017E-03
    42  4.1000000000000E-01  6.3568098641433E-01  2.0655624045119E-02
    43  4.2000000000000E-01  6.4644577188895E-01  4.1673960689020E-02
    44  4.3000000000000E-01  6.5262920105001E-01  6.8225798462978E-02
    45  4.4000000000000E-01  6.5445262953834E-01  9.9975744242084E-02
    46  4.5000000000000E-01  6.5224258238089E-01  1.3646397689575E-01
    47  4.6000000000000E-01  6.4642437789506E-01  1.7711458253871E-01
    48  4.7000000000000E-01  6.3751340755874E-01  2.2124668230900E-01
    49  4.8000000000000E-01  6.2610424237614E-01  2.6808813497416E-01
    50  4.9000000000000E-01  6.1285778711550E-01  3.1679153566549E-01
    51  5.0000000000000E-01  5.9848675014716E-01  3.6645217670272E-01
    52  5.1000000000000E-01  5.8373973739779E-01  4.1612758809119E-01
    53  5.2000000000000E-01  5.6938431320593E-01  4.6485823499509E-01
    54  5.3000000000000E-01  5.5618939779563E-01  5.1168891829162E-01
    55  5.4000000000000E-01  5.4490739002016E-01  5.5569040297292E-01
    56  5.5000000000000E-01  5.3625641447409E-01  5.9598078825620E-01
    57  5.6000000000000E-01  5.3090309372596E-01  6.3174613313071E-01
    58  5.7000000000000E-01  5.2944623917031E-01  6.6225986181990E-01
    59  5.8000000000000E-01  5.3240183791794E-01  6.8690049513712E-01
    60  5.9000000000000E-01  5.4018968851518E-01  7.0516728558985E-01
    61  6.0000000000000E-01  5.5312200557210E-01  7.1669337573807E-01
    62  6.1000000000000E-01  5.7139427323663E-01  7.2125614990983E-01
    63  6.2000000000000E-01  5.9507858069277E-01  7.1878450789153E-01
    64  6.3000000000000E-01  6.2411962045695E-01  7.0936285442672E-01
    65  6.4000000000000E-01  6.5833347329923E-01  6.9323166890176E-01
    66  6.5000000000000E-01  6.9740924333554E-01  6.7078459396650E-01
    67  6.6000000000000E-01  7.4091354451708E-01  6.4256205843185E-01
    68  6.7000000000000E-01  7.8829777673567E-01  6.0924152693592E-01
    69  6.8000000000000E-01  8.3890806744152E-01  5.7162454488727E-01
    70  6.9000000000000E-01  8.9199769440932E-01  5.3062082038869E-01
    71  7.0000000000000E-01  9.4674174842819E-01  4.8722965358098E-01
    72  7.1000000000000E-01  1.0022537425081E+00  4.4251908656762E-01
    73  7.2000000000000E-01  1.0576038278773E+00  3.9760320234442E-01
    74  7.3000000000000E-01  1.1118382376619E+00  3.5361804767384E-01
    75  7.4000000000000E-01  1.1639995476149E+00  3.1169669149960E-01
    76  7.5000000000000E-01  1.2131473203681E+00  2.7294395637999E-01
    77  7.6000000000000E-01  1.2583786859931E+00  2.3841137485056E-01
    78  7.7000000000000E-01  1.2988484075753E+00  2.0907292516313E-01
    79  7.8000000000000E-01  1.3337879862048E+00  1.8580209130406E-01
    80  7.9000000000000E-01  1.3625233752463E+00  1.6935077064484E-01
    81  8.0000000000000E-01  1.3844908987334E+00  1.6033051935697E-01
    82  8.1000000000000E-01  1.3992510027894E+00  1.5919658142232E-01
    83  8.2000000000000E-01  1.4064995114632E+00  1.6623509252926E-01
    84  8.3000000000000E-01  1.4060761084532E+00  1.8155378642981E-01
    85  8.4000000000000E-01  1.3979698228631E+00  2.0507645972177E-01
    86  8.5000000000000E-01  1.3823213592430E+00  2.3654137297199E-01
    87  8.6000000000000E-01  1.3594221784218E+00  2.7550368322697E-01
    88  8.7000000000000E-01  1.3297103046571E+00  3.2134191699793E-01
    89  8.8000000000000E-01  1.2937629049515E+00  3.7326840557858E-01
    90  8.9000000000000E-01  1.2522857565166E+00  4.3034351791729E-01
    91  9.0000000000000E-01  1.2060997867914E+00  4.9149344209194E-01
    92  9.1000000000000E-01  1.1561249356662E+00  5.5553118656037E-01
    93  9.2000000000000E-01  1.1033616501796E+00  6.2118039854466E-01
    94  9.3000000000000E-01  1.0488703766209E+00  6.8710153079988E-01
    95  9.4000000000000E-01  9.9374946242372E-01  7.5191983113004E-01
    96  9.5000000000000E-01  9.3911191943008E-01  8.1425458264230E-01
    97  9.6000000000000E-01  8.8606153007752E-01  8.7274898801098E-01
    98  9.7000000000000E-01  8.3566879811465E-01  9.2610006880401E-01
    99  9.8000000000000E-01  7.8894725503390E-01  9.7308794183213E-01
   100  9.9000000000000E-01  7.4683063223501E-01  1.0126038388385E+00
   101  1.0000000000000E+00  7.1015139689662E-01  1.0436762537307E+00
   102  1.0100000000000E+00  6.7962112679008E-01  1.0654946327324E+00
   103  1.0200000000000E+00  6.5581316621991E-01  1.0774300667442E+00
   104  1.0300000000000E+00  6.3914796247423E-01  1.0790525011349E+00
   105  1.0400000000000E+00  6.2988143043545E-01  1.0701440450452E+00
   106  1.0500000000000E+00  6.2809663342650E-01  1.0507080387038E+00
   107  1.0600000000000E+00  6.3369900196690E-01  1.0209736219107E+00
   108  1.0700000000000E+00  6.4641524036351E-01  9.8139563786769E-01
   109  1.0800000000000E+00  6.6579599545802E-01  9.3264980204177E-01
   110  1.0900000000000E+00  6.9122228364881E-01  8.7562316414947E-01
   111  1.1000000000000E+00  7.2191559367151E-01  8.1139998991985E-01
   112  1.1100000000000E+00  7.5695150452398E-01  7.4124328682970E-01
   113  1.1200000000000E+00  7.9527658268549E-01  6.6657229158803E-01
   114  1.1300000000000E+00  8.3572825142937E-01  5.8893632551144E-01
   115  1.1400000000000E+00  8.7705725954046E-01  5.0998550461841E-01
   116  1.1500000000000E+00  9.1795231822053E-01  4.3143886292180E-01
   117  1.1600000000000E+00  9.5706642493994E-01  3.5505050811451E-01
   118  1.1700000000000E+00  9.9304435236338E-01  2.8257447752805E-01
   119  1.1800000000000E+00  1.0245507504049E+00  2.1572899749087E-01
   120  1.1900000000000E+00  1.0502982904517E+00  1.5616087040981E-01
   121  1.2000000000000E+00  1.0690752734956E+00  1.0541072030039E-01
   122  1.2100000000000E+00  1.0797721285306E+00  6.4879818828878E-02
   123  1.2200000000000E+00  1.0814062440304E+00  3.5799190417969E-02
   124  1.2300000000000E+00  1.0731446035239E+00  1.9201656702212E-02
   125  1.2400000000000E+00  1.0543237357438E+00  1.5897428294103E-02
   126  1.2500000000000E+00  1.0244665394116E+00  2.6453786901644E-02
   127  1.2600000000000E+00  9.8329560237747E-01  5.1179323393441E-02