Si    ONCVPSP-4.0.1  r_core=   1.60630   1.71555   1.91059
     14.0000      4.0000      231019    zatom,zion,pspd
     8       2   2     4   600     0    pspcod,pspxc,lmax,lloc,mmax,r2well
  5.99000000  4.00000000  0.00000000    rchrg fchrg qchrg
     2     2     2     0     0    nproj
     1     1           extension_switch
   0                        -6.5425593751042E+00  2.2891691063625E+00
     1  0.0000000000000E+00 -1.2976718699598E-08  5.8681643676228E-09
     2  1.0000000000000E-02  7.4224321148311E-02 -4.4448277701531E-03
     3  2.0000000000000E-02  1.4804035874521E-01 -8.7086149268279E-03
     4  3.0000000000000E-02  2.2104685192615E-01 -1.2613628017643E-02
     5  4.0000000000000E-02  2.9285643112533E-01 -1.5988676977714E-02
     6  5.0000000000000E-02  3.6310218196886E-01 -1.8672211037010E-02
     7  6.0000000000000E-02  4.3144376059214E-01 -2.0515207991250E-02
     8  7.0000000000000E-02  4.9757292651633E-01 -2.1383795035684E-02
     9  8.0000000000000E-02  5.6121837219578E-01 -2.1161545229243E-02
    10  9.0000000000000E-02  6.2214974402267E-01 -1.9751400748367E-02
    11  1.0000000000000E-01  6.8018076760087E-01 -1.7077182250678E-02
    12  1.1000000000000E-01  7.3517141007963E-01 -1.3084652720852E-02
    13  1.2000000000000E-01  7.8702903382589E-01 -7.7421139171019E-03
    14  1.3000000000000E-01  8.3570851823767E-01 -1.0405237642550E-03
    15  1.4000000000000E-01  8.8121134955919E-01  7.0068664748925E-03
    16  1.5000000000000E-01  9.2358370164131E-01  1.6365345903004E-02
    17  1.6000000000000E-01  9.6291355318450E-01  2.6980028904655E-02
    18  1.7000000000000E-01  9.9932690860522E-01  3.8777561724920E-02
    19  1.8000000000000E-01  1.0329832097976E+00  5.1668211912267E-02
    20  1.9000000000000E-01  1.0640700442727E+00  6.5548293425795E-02
    21  2.0000000000000E-01  1.0927972710400E+00  8.0302872833720E-02
    22  2.1000000000000E-01  1.1193906987914E+00  9.5808695848323E-02
    23  2.2000000000000E-01  1.1440854611637E+00  1.1193726858835E-01
    24  2.3000000000000E-01  1.1671192408527E+00  1.2855802454089E-01
    25  2.4000000000000E-01  1.1887254979742E+00  1.4554150628756E-01
    26  2.5000000000000E-01  1.2091268582237E+00  1.6276249070771E-01
    27  2.6000000000000E-01  1.2285288130666E+00  1.8010298758455E-01
    28  2.7000000000000E-01  1.2471138774617E+00  1.9745504429394E-01
    29  2.8000000000000E-01  1.2650363406193E+00  2.1472329349242E-01
    30  2.9000000000000E-01  1.2824177322417E+00  2.3182718635057E-01
    31  3.0000000000000E-01  1.2993431108613E+00  2.4870286077912E-01
    32  3.1000000000000E-01  1.3158582626319E+00  2.6530460211997E-01
    33  3.2000000000000E-01  1.3319678786344E+00  2.8160586274874E-01
    34  3.3000000000000E-01  1.3476347568732E+00  2.9759981676567E-01
    35  3.4000000000000E-01  1.3627800521521E+00  3.1329943622586E-01
    36  3.5000000000000E-01  1.3772845734206E+00  3.2873708595561E-01
    37  3.6000000000000E-01  1.3909911045117E+00  3.4396364468616E-01
    38  3.7000000000000E-01  1.4037077009590E+00  3.5904717077907E-01
    39  3.8000000000000E-01  1.4152118933139E+00  3.7407114098447E-01
    40  3.9000000000000E-01  1.4252557065693E+00  3.8913230024517E-01
    41  4.0000000000000E-01  1.4335713864105E+00  4.0433816932208E-01
    42  4.1000000000000E-01  1.4398777064774E+00  4.1980426477918E-01
    43  4.2000000000000E-01  1.4438867170101E+00  4.3565109245430E-01
    44  4.3000000000000E-01  1.4453107844843E+00  4.5200098081093E-01
    45  4.4000000000000E-01  1.4438697643718E+00  4.6897482439516E-01
    46  4.5000000000000E-01  1.4392981451627E+00  4.8668880992423E-01
    47  4.6000000000000E-01  1.4313520013701E+00  5.0525119825407E-01
    48  4.7000000000000E-01  1.4198155964247E+00  5.2475923459193E-01
    49  4.8000000000000E-01  1.4045074831041E+00  5.4529625685056E-01
    50  4.9000000000000E-01  1.3852859593030E+00  5.6692906803280E-01
    51  5.0000000000000E-01  1.3620537503177E+00  5.8970563306984E-01
    52  5.1000000000000E-01  1.3347618051268E+00  6.1365315372941E-01
    53  5.2000000000000E-01  1.3034121130395E+00  6.3877656720432E-01
    54  5.3000000000000E-01  1.2680594681645E+00  6.6505750495690E-01
    55  5.4000000000000E-01  1.2288121319620E+00  6.9245373852590E-01
    56  5.5000000000000E-01  1.1858313681934E+00  7.2089912850899E-01
    57  5.6000000000000E-01  1.1393298493505E+00  7.5030408204352E-01
    58  5.7000000000000E-01  1.0895689585883E+00  7.8055651305602E-01
    59  5.8000000000000E-01  1.0368550357568E+00  8.1152328857574E-01
    60  5.9000000000000E-01  9.8153463978353E-01  8.4305213374967E-01
    61  6.0000000000000E-01  9.2398892187412E-01  8.7497395808702E-01
    62  6.1000000000000E-01  8.6462722427868E-01  9.0710555612285E-01
    63  6.2000000000000E-01  8.0388003725979E-01  9.3925262732931E-01
    64  6.3000000000000E-01  7.4219146198499E-01  9.7121305290212E-01
    65  6.4000000000000E-01  6.8001133900720E-01  1.0027803611732E+00
    66  6.5000000000000E-01  6.1778721050880E-01  1.0337473089777E+00
    67  6.6000000000000E-01  5.5595628936084E-01  1.0639095034378E+00
    68  6.7000000000000E-01  4.9493760915927E-01  1.0930689873864E+00
    69  6.8000000000000E-01  4.3512452669750E-01  1.1210377120706E+00
    70  6.9000000000000E-01  3.7687774185240E-01  1.1476408228498E+00
    71  7.0000000000000E-01  3.2051898971879E-01  1.1727196872966E+00
    72  7.1000000000000E-01  2.6632554622110E-01  1.1961346003440E+00
    73  7.2000000000000E-01  2.1452567163661E-01  1.2177671077981E+00
    74  7.3000000000000E-01  1.6529509682721E-01  1.2375218975099E+00
    75  7.4000000000000E-01  1.1875463490497E-01  1.2553282166065E+00
    76  7.5000000000000E-01  7.4968977018169E-02  1.2711407832271E+00
    77  7.6000000000000E-01  3.3946705445819E-02  1.2849401719836E+00
    78  7.7000000000000E-01 -4.3584692206034E-03  1.2967326636371E+00
    79  7.8000000000000E-01 -4.0045266784479E-02  1.3065495610067E+00
    80  7.9000000000000E-01 -7.3261238533966E-02  1.3144459846628E+00
    81  8.0000000000000E-01 -1.0419808291342E-01  1.3204991732489E+00
    82  8.1000000000000E-01 -1.3308597230137E-01  1.3248063240881E+00
    83  8.2000000000000E-01 -1.6018700983019E-01  1.3274820198112E+00
    84  8.3000000000000E-01 -1.8578795517698E-01  1.3286552958950E+00
    85  8.4000000000000E-01 -2.1019237538278E-01  1.3284664119970E+00
    86  8.5000000000000E-01 -2.3371239062528E-01  1.3270633966562E+00
    87  8.6000000000000E-01 -2.5666019515681E-01  1.3245984401411E+00
    88  8.7000000000000E-01 -2.7933954007319E-01  1.3212242138477E+00
    89  8.8000000000000E-01 -3.0203736703490E-01  1.3170901965967E+00
    90  8.9000000000000E-01 -3.2501578043566E-01  1.3123390884062E+00
    91  9.0000000000000E-01 -3.4850453981055E-01  1.3071033907999E+00
    92  9.1000000000000E-01 -3.7269424458915E-01  1.3015022294912E+00
    93  9.2000000000000E-01 -3.9773036980755E-01  1.2956384904050E+00
    94  9.3000000000000E-01 -4.2370829435755E-01  1.2895963335756E+00
    95  9.4000000000000E-01 -4.5066944311727E-01  1.2834391416089E+00
    96  9.5000000000000E-01 -4.7859864127559E-01  1.2772079502890E+00
    97  9.6000000000000E-01 -5.0742275381837E-01  1.2709203987300E+00
    98  9.7000000000000E-01 -5.3701065600641E-01  1.2645702254403E+00
    99  9.8000000000000E-01 -5.6717455231306E-01  1.2581273250042E+00
   100  9.9000000000000E-01 -5.9767263231227E-01  1.2515383680573E+00
   101  1.0000000000000E+00 -6.2821302300543E-01  1.2447279750677E+00
   102  1.0100000000000E+00 -6.5845896869919E-01  1.2376004224207E+00
   103  1.0200000000000E+00 -6.8803514239508E-01  1.2300418476918E+00
   104  1.0300000000000E+00 -7.1653496729817E-01  1.2219229100099E+00
   105  1.0400000000000E+00 -7.4352880407359E-01  1.2131018513320E+00
   106  1.0500000000000E+00 -7.6857283938733E-01  1.2034278954715E+00
   107  1.0600000000000E+00 -7.9121849447257E-01  1.1927449140351E+00
   108  1.0700000000000E+00 -8.1102215939805E-01  1.1808952822211E+00
   109  1.0800000000000E+00 -8.2755504965107E-01  1.1677238428353E+00
   110  1.0900000000000E+00 -8.4041297681630E-01  1.1530818939965E+00
   111  1.1000000000000E+00 -8.4922582467006E-01  1.1368311149134E+00
   112  1.1100000000000E+00 -8.5366652596279E-01  1.1188473448363E+00
   113  1.1200000000000E+00 -8.5345934345978E-01  1.0990241328179E+00
   114  1.1300000000000E+00 -8.4838727134168E-01  1.0772759802174E+00
   115  1.1400000000000E+00 -8.3829838955606E-01  1.0535412038560E+00
   116  1.1500000000000E+00 -8.2311102388750E-01  1.0277843552736E+00
   117  1.1600000000000E+00 -8.0281758791555E-01  9.9999814047454E-01
   118  1.1700000000000E+00 -7.7748700928487E-01  9.7020479473413E-01
   119  1.1800000000000E+00 -7.4726567111858E-01  9.3845687819201E-01
   120  1.1900000000000E+00 -7.1237682966832E-01  9.0483746996411E-01
   121  1.2000000000000E+00 -6.7311850034954E-01  8.6945975093555E-01
   122  1.2100000000000E+00 -6.2985983610010E-01  8.3246597822521E-01
   123  1.2200000000000E+00 -5.8303605321219E-01  7.9402586700829E-01
   124  1.2300000000000E+00 -5.3314199032908E-01  7.5433440790318E-01
   125  1.2400000000000E+00 -4.8072441520874E-01  7.1360916008121E-01
   126  1.2500000000000E+00 -4.2637322049874E-01  6.7208707137470E-01
   127  1.2600000000000E+00 -3.7071167389636E-01  6.3002088683971E-01
   128  1.2700000000000E+00 -3.1438590872368E-01  5.8767521607065E-01
   129  1.2800000000000E+00 -2.5805385800391E-01  5.4532233700884E-01
   130  1.2900000000000E+00 -2.0237384812371E-01  5.0323781984183E-01
   131  1.3000000000000E+00 -1.4799307670452E-01  4.6169605867720E-01
   132  1.3100000000000E+00 -9.5536203342851E-02  4.2096580096934E-01
   133  1.3200000000000E+00 -4.5594281198280E-02  3.8130576508554E-01
   134  1.3300000000000E+00  1.2857479876610E-03  3.4296043490344E-01
   135  1.3400000000000E+00  4.4610782795434E-02  3.0615611699864E-01
   136  1.3500000000000E+00  8.3950316748740E-02  2.7109734081786E-01
   137  1.3600000000000E+00  1.1894403899196E-01  2.3796367538749E-01
   138  1.3700000000000E+00  1.4930812373114E-01  2.0690702768772E-01
   139  1.3800000000000E+00  1.7484007673398E-01  1.7804947806336E-01
   140  1.3900000000000E+00  1.9542203579293E-01  1.5148169702360E-01
   141  1.4000000000000E+00  2.1102245275429E-01  1.2726197586778E-01
   142  1.4100000000000E+00  2.2169611708723E-01  1.0541589093267E-01
   143  1.4200000000000E+00  2.2758251435051E-01  8.5936608149883E-02
   144  1.4300000000000E+00  2.2890254639655E-01  6.8785821396778E-02
   145  1.4400000000000E+00  2.2595367354479E-01  5.3895304897556E-02
   146  1.4500000000000E+00  2.1910357091076E-01  4.1169047222878E-02
   147  1.4600000000000E+00  2.0878242147476E-01  3.0485922298917E-02
   148  1.4700000000000E+00  1.9547399642131E-01  2.1702841629903E-02
   149  1.4800000000000E+00  1.7970569825322E-01  1.4658321875542E-02
   150  1.4900000000000E+00  1.6203776363652E-01  9.1763932299136E-03
   151  1.5000000000000E+00  1.4305183811783E-01  5.0707674292962E-03
   152  1.5100000000000E+00  1.2333917647999E-01  2.1491719256858E-03
   153  1.5200000000000E+00  1.0348857733978E-01  2.1779069225322E-04
   154  1.5300000000000E+00  8.4075368630248E-02 -9.1454206794039E-04
   155  1.5400000000000E+00  6.5652202745438E-02 -1.4325549275405E-03
   156  1.5500000000000E+00  4.8728564000852E-02 -1.5081764832163E-03
   157  1.5600000000000E+00  3.3766003710472E-02 -1.2981058895178E-03
   158  1.5700000000000E+00  2.1170868751420E-02 -9.4083179288244E-04
   159  1.5800000000000E+00  1.1288145969232E-02 -5.5364143274851E-04
   160  1.5900000000000E+00  4.3677016139678E-03 -2.2854509005486E-04
   161  1.6000000000000E+00  7.1192961364011E-04 -3.8768034210559E-05
   162  1.6100000000000E+00 -7.5813749142789E-05  4.2493583469979E-06
   163  1.6200000000000E+00  2.2781121913700E-05 -1.2657828743752E-06
   164  1.63 -0.  0.
   165  1.64  0. -0.
   166  1.65  0.  0.
   167  1.66  0.  0.
   168  1.67  0.  0.
   169  1.68  0.  0.
   170  1.69  0.  0.
   171  1.70  0.  0.
   172  1.71  0.  0.
   173  1.72  0.  0.
   174  1.73  0.  0.
   175  1.74  0.  0.
   176  1.75  0.  0.
   177  1.76  0.  0.
   178  1.77  0.  0.
   179  1.78  0.  0.
   180  1.79  0.  0.
   181  1.80  0.  0.
   182  1.81  0.  0.
   183  1.82  0.  0.
   184  1.83  0.  0.
   185  1.84  0.  0.
   186  1.85  0.  0.
   187  1.86  0.  0.
   188  1.87  0.  0.
   189  1.88  0.  0.
   190  1.89  0.  0.
   191  1.90  0.  0.
   192  1.91  0.  0.
   193  1.92  0.  0.
   194  1.93  0.  0.
   195  1.94  0.  0.
   196  1.95  0.  0.
   197  1.96  0.  0.
   198  1.97  0.  0.
   199  1.98  0.  0.
   200  1.99  0.  0.
   201  2.00  0.  0.
   202  2.01  0.  0.
   203  2.02  0.  0.
   204  2.03  0.  0.
   205  2.04  0.  0.
   206  2.05  0.  0.
   207  2.06  0.  0.
   208  2.07  0.  0.
   209  2.08  0.  0.
   210  2.09  0.  0.
   211  2.10  0.  0.
   212  2.11  0.  0.
   213  2.12  0.  0.
   214  2.13  0.  0.
   215  2.14  0.  0.
   216  2.15  0.  0.
   217  2.16  0.  0.
   218  2.17  0.  0.
   219  2.18  0.  0.
   220  2.19  0.  0.
   221  2.20  0.  0.
   222  2.21  0.  0.
   223  2.22  0.  0.
   224  2.23  0.  0.
   225  2.24  0.  0.
   226  2.25  0.  0.
   227  2.26  0.  0.
   228  2.27  0.  0.
   229  2.28  0.  0.
   230  2.29  0.  0.
   231  2.30  0.  0.
   232  2.31  0.  0.
   233  2.32  0.  0.
   234  2.33  0.  0.
   235  2.34  0.  0.
   236  2.35  0.  0.
   237  2.36  0.  0.
   238  2.37  0.  0.
   239  2.38  0.  0.
   240  2.39  0.  0.
   241  2.40  0.  0.
   242  2.41  0.  0.
   243  2.42  0.  0.
   244  2.43  0.  0.
   245  2.44  0.  0.
   246  2.45  0.  0.
   247  2.46  0.  0.
   248  2.47  0.  0.
   249  2.48  0.  0.
   250  2.49  0.  0.
   251  2.50  0.  0.
   252  2.51  0.  0.
   253  2.52  0.  0.
   254  2.53  0.  0.
   255  2.54  0.  0.
   256  2.55  0.  0.
   257  2.56  0.  0.
   258  2.57  0.  0.
   259  2.58  0.  0.
   260  2.59  0.  0.
   261  2.60  0.  0.
   262  2.61  0.  0.
   263  2.62  0.  0.
   264  2.63  0.  0.
   265  2.64  0.  0.
   266  2.65  0.  0.
   267  2.66  0.  0.
   268  2.67  0.  0.
   269  2.68  0.  0.
   270  2.69  0.  0.
   271  2.70  0.  0.
   272  2.71  0.  0.
   273  2.72  0.  0.
   274  2.73  0.  0.
   275  2.74  0.  0.
   276  2.75  0.  0.
   277  2.76  0.  0.
   278  2.77  0.  0.
   279  2.78  0.  0.
   280  2.79  0.  0.
   281  2.80  0.  0.
   282  2.81  0.  0.
   283  2.82  0.  0.
   284  2.83  0.  0.
   285  2.84  0.  0.
   286  2.85  0.  0.
   287  2.86  0.  0.
   288  2.87  0.  0.
   289  2.88  0.  0.
   290  2.89  0.  0.
   291  2.90  0.  0.
   292  2.91  0.  0.
   293  2.92  0.  0.
   294  2.93  0.  0.
   295  2.94  0.  0.
   296  2.95  0.  0.
   297  2.96  0.  0.
   298  2.97  0.  0.
   299  2.98  0.  0.
   300  2.99  0.  0.
   301  3.00  0.  0.
   302  3.01  0.  0.
   303  3.02  0.  0.
   304  3.03  0.  0.
   305  3.04  0.  0.
   306  3.05  0.  0.
   307  3.06  0.  0.
   308  3.07  0.  0.
   309  3.08  0.  0.
   310  3.09  0.  0.
   311  3.10  0.  0.
   312  3.11  0.  0.
   313  3.12  0.  0.
   314  3.13  0.  0.
   315  3.14  0.  0.
   316  3.15  0.  0.
   317  3.16  0.  0.
   318  3.17  0.  0.
   319  3.18  0.  0.
   320  3.19  0.  0.
   321  3.20  0.  0.
   322  3.21  0.  0.
   323  3.22  0.  0.
   324  3.23  0.  0.
   325  3.24  0.  0.
   326  3.25  0.  0.
   327  3.26  0.  0.
   328  3.27  0.  0.
   329  3.28  0.  0.
   330  3.29  0.  0.
   331  3.30  0.  0.
   332  3.31  0.  0.
   333  3.32  0.  0.
   334  3.33  0.  0.
   335  3.34  0.  0.
   336  3.35  0.  0.
   337  3.36  0.  0.
   338  3.37  0.  0.
   339  3.38  0.  0.
   340  3.39  0.  0.
   341  3.40  0.  0.
   342  3.41  0.  0.
   343  3.42  0.  0.
   344  3.43  0.  0.
   345  3.44  0.  0.
   346  3.45  0.  0.
   347  3.46  0.  0.
   348  3.47  0.  0.
   349  3.48  0.  0.
   350  3.49  0.  0.
   351  3.50  0.  0.
   352  3.51  0.  0.
   353  3.52  0.  0.
   354  3.53  0.  0.
   355  3.54  0.  0.
   356  3.55  0.  0.
   357  3.56  0.  0.
   358  3.57  0.  0.
   359  3.58  0.  0.
   360  3.59  0.  0.
   361  3.60  0.  0.
   362  3.61  0.  0.
   363  3.62  0.  0.
   364  3.63  0.  0.
   365  3.64  0.  0.
   366  3.65  0.  0.
   367  3.66  0.  0.
   368  3.67  0.  0.
   369  3.68  0.  0.
   370  3.69  0.  0.
   371  3.70  0.  0.
   372  3.71  0.  0.
   373  3.72  0.  0.
   374  3.73  0.  0.
   375  3.74  0.  0.
   376  3.75  0.  0.
   377  3.76  0.  0.
   378  3.77  0.  0.
   379  3.78  0.  0.
   380  3.79  0.  0.
   381  3.80  0.  0.
   382  3.81  0.  0.
   383  3.82  0.  0.
   384  3.83  0.  0.
   385  3.84  0.  0.
   386  3.85  0.  0.
   387  3.86  0.  0.
   388  3.87  0.  0.
   389  3.88  0.  0.
   390  3.89  0.  0.
   391  3.90  0.  0.
   392  3.91  0.  0.
   393  3.92  0.  0.
   394  3.93  0.  0.
   395  3.94  0.  0.
   396  3.95  0.  0.
   397  3.96  0.  0.
   398  3.97  0.  0.
   399  3.98  0.  0.
   400  3.99  0.  0.
   401  4.00  0.  0.
   402  4.01  0.  0.
   403  4.02  0.  0.
   404  4.03  0.  0.
   405  4.04  0.  0.
   406  4.05  0.  0.
   407  4.06  0.  0.
   408  4.07  0.  0.
   409  4.08  0.  0.
   410  4.09  0.  0.
   411  4.10  0.  0.
   412  4.11  0.  0.
   413  4.12  0.  0.
   414  4.13  0.  0.
   415  4.14  0.  0.
   416  4.15  0.  0.
   417  4.16  0.  0.
   418  4.17  0.  0.
   419  4.18  0.  0.
   420  4.19  0.  0.
   421  4.20  0.  0.
   422  4.21  0.  0.
   423  4.22  0.  0.
   424  4.23  0.  0.
   425  4.24  0.  0.
   426  4.25  0.  0.
   427  4.26  0.  0.
   428  4.27  0.  0.
   429  4.28  0.  0.
   430  4.29  0.  0.
   431  4.30  0.  0.
   432  4.31  0.  0.
   433  4.32  0.  0.
   434  4.33  0.  0.
   435  4.34  0.  0.
   436  4.35  0.  0.
   437  4.36  0.  0.
   438  4.37  0.  0.
   439  4.38  0.  0.
   440  4.39  0.  0.
   441  4.40  0.  0.
   442  4.41  0.  0.
   443  4.42  0.  0.
   444  4.43  0.  0.
   445  4.44  0.  0.
   446  4.45  0.  0.
   447  4.46  0.  0.
   448  4.47  0.  0.
   449  4.48  0.  0.
   450  4.49  0.  0.
   451  4.50  0.  0.
   452  4.51  0.  0.
   453  4.52  0.  0.
   454  4.53  0.  0.
   455  4.54  0.  0.
   456  4.55  0.  0.
   457  4.56  0.  0.
   458  4.57  0.  0.
   459  4.58  0.  0.
   460  4.59  0.  0.
   461  4.60  0.  0.
   462  4.61  0.  0.
   463  4.62  0.  0.
   464  4.63  0.  0.
   465  4.64  0.  0.
   466  4.65  0.  0.
   467  4.66  0.  0.
   468  4.67  0.  0.
   469  4.68  0.  0.
   470  4.69  0.  0.
   471  4.70  0.  0.
   472  4.71  0.  0.
   473  4.72  0.  0.
   474  4.73  0.  0.
   475  4.74  0.  0.
   476  4.75  0.  0.
   477  4.76  0.  0.
   478  4.77  0.  0.
   479  4.78  0.  0.
   480  4.79  0.  0.
   481  4.80  0.  0.
   482  4.81  0.  0.
   483  4.82  0.  0.
   484  4.83  0.  0.
   485  4.84  0.  0.
   486  4.85  0.  0.
   487  4.86  0.  0.
   488  4.87  0.  0.
   489  4.88  0.  0.
   490  4.89  0.  0.
   491  4.90  0.  0.
   492  4.91  0.  0.
   493  4.92  0.  0.
   494  4.93  0.  0.
   495  4.94  0.  0.
   496  4.95  0.  0.
   497  4.96  0.  0.
   498  4.97  0.  0.
   499  4.98  0.  0.
   500  4.99  0.  0.
   501  5.00  0.  0.
   502  5.01  0.  0.
   503  5.02  0.  0.
   504  5.03  0.  0.
   505  5.04  0.  0.
   506  5.05  0.  0.
   507  5.06  0.  0.
   508  5.07  0.  0.
   509  5.08  0.  0.
   510  5.09  0.  0.
   511  5.10  0.  0.
   512  5.11  0.  0.
   513  5.12  0.  0.
   514  5.13  0.  0.
   515  5.14  0.  0.
   516  5.15  0.  0.
   517  5.16  0.  0.
   518  5.17  0.  0.
   519  5.18  0.  0.
   520  5.19  0.  0.
   521  5.20  0.  0.
   522  5.21  0.  0.
   523  5.22  0.  0.
   524  5.23  0.  0.
   525  5.24  0.  0.
   526  5.25  0.  0.
   527  5.26  0.  0.
   528  5.27  0.  0.
   529  5.28  0.  0.
   530  5.29  0.  0.
   531  5.30  0.  0.
   532  5.31  0.  0.
   533  5.32  0.  0.
   534  5.33  0.  0.
   535  5.34  0.  0.
   536  5.35  0.  0.
   537  5.36  0.  0.
   538  5.37  0.  0.
   539  5.38  0.  0.
   540  5.39  0.  0.
   541  5.40  0.  0.
   542  5.41  0.  0.
   543  5.42  0.  0.
   544  5.43  0.  0.
   545  5.44  0.  0.
   546  5.45  0.  0.
   547  5.46  0.  0.
   548  5.47  0.  0.
   549  5.48  0.  0.
   550  5.49  0.  0.
   551  5.50  0.  0.
   552  5.51  0.  0.
   553  5.52  0.  0.
   554  5.53  0.  0.
   555  5.54  0.  0.
   556  5.55  0.  0.
   557  5.56  0.  0.
   558  5.57  0.  0.
   559  5.58  0.  0.
   560  5.59  0.  0.
   561  5.60  0.  0.
   562  5.61  0.  0.
   563  5.62  0.  0.
   564  5.63  0.  0.
   565  5.64  0.  0.
   566  5.65  0.  0.
   567  5.66  0.  0.
   568  5.67  0.  0.
   569  5.68  0.  0.
   570  5.69  0.  0.
   571  5.70  0.  0.
   572  5.71  0.  0.
   573  5.72  0.  0.
   574  5.73  0.  0.
   575  5.74  0.  0.
   576  5.75  0.  0.
   577  5.76  0.  0.
   578  5.77  0.  0.
   579  5.78  0.  0.
   580  5.79  0.  0.
   581  5.80  0.  0.
   582  5.81  0.  0.
   583  5.82  0.  0.
   584  5.83  0.  0.
   585  5.84  0.  0.
   586  5.85  0.  0.
   587  5.86  0.  0.
   588  5.87  0.  0.
   589  5.88  0.  0.
   590  5.89  0.  0.
   591  5.90  0.  0.
   592  5.91  0.  0.
   593  5.92  0.  0.
   594  5.93  0.  0.
   595  5.94  0.  0.
   596  5.95  0.  0.
   597  5.96  0.  0.
   598  5.97  0.  0.
   599  5.98  0.  0.
   600  5.99  0.  0.
   1                         2.6343884051424E+00  5.9750871367061E-01
     1  0.0000000000000E+00 -4.2675660893998E-08  5.1274519186073E-08
     2  1.0000000000000E-02 -1.3538204740305E-03  2.0873903972111E-03
     3  2.0000000000000E-02 -5.3702527727100E-03  8.2960392026114E-03
     4  3.0000000000000E-02 -1.1915317317225E-02  1.8466699816298E-02
     5  4.0000000000000E-02 -2.0769381508850E-02  3.2338331886212E-02
     6  5.0000000000000E-02 -3.1632569583848E-02  4.9554548745330E-02
     7  6.0000000000000E-02 -4.4132158138437E-02  6.9672429320411E-02
     8  7.0000000000000E-02 -5.7831783941625E-02  9.2173485937134E-02
     9  8.0000000000000E-02 -7.2242247978083E-02  1.1647652817194E-01
    10  9.0000000000000E-02 -8.6833661922035E-02  1.4195211760674E-01
    11  1.0000000000000E-01 -1.0104865130269E-01  1.6793827007670E-01
    12  1.1000000000000E-01 -1.1431630421851E-01  1.9375703165390E-01
    13  1.2000000000000E-01 -1.2606653618114E-01  2.1873153289148E-01
    14  1.3000000000000E-01 -1.3574453095019E-01  2.4220311328059E-01
    15  1.4000000000000E-01 -1.4282491431640E-01  2.6354810475455E-01
    16  1.5000000000000E-01 -1.4682532278756E-01  2.8219386950754E-01
    17  1.6000000000000E-01 -1.4731904193419E-01  2.9763370325537E-01
    18  1.7000000000000E-01 -1.4394640948997E-01  3.0944024001898E-01
    19  1.8000000000000E-01 -1.3642470573348E-01  3.1727702801322E-01
    20  1.9000000000000E-01 -1.2455628760174E-01  3.2090798753461E-01
    21  2.0000000000000E-01 -1.0823476265011E-01  3.2020450994449E-01
    22  2.1000000000000E-01 -8.7449043496744E-02  3.1515001086008E-01
    23  2.2000000000000E-01 -6.2285171777931E-02  3.0584180928110E-01
    24  2.3000000000000E-01 -3.2925851808001E-02  2.9249026627343E-01
    25  2.4000000000000E-01  3.5231306574860E-04  2.7541518060001E-01
    26  2.5000000000000E-01  3.7183835189996E-02  2.5503950288524E-01
    27  2.6000000000000E-01  7.7121509727953E-02  2.3188049305511E-01
    28  2.7000000000000E-01  1.1964558499215E-01  2.0653850646434E-01
    29  2.8000000000000E-01  1.6417473942147E-01  1.7968365090409E-01
    30  2.9000000000000E-01  2.1007862546437E-01  1.5204060826209E-01
    31  3.0000000000000E-01  2.5669170266619E-01  1.2437195977510E-01
    32  3.1000000000000E-01  3.0332805039104E-01  9.7460391502989E-02
    33  3.2000000000000E-01  3.4929682559225E-01  7.2090185960482E-02
    34  3.3000000000000E-01  3.9391801348583E-01  4.9028426045778E-02
    35  3.4000000000000E-01  4.3653810931912E-01  2.9006347985795E-02
    36  3.5000000000000E-01  4.7654536792969E-01  1.2701280670719E-02
    37  3.6000000000000E-01  5.1338426454063E-01  7.1959939183027E-04
    38  3.7000000000000E-01  5.4656882514088E-01 -6.4188972318996E-03
    39  3.8000000000000E-01  5.7569450756901E-01 -8.2948070871690E-03
    40  3.9000000000000E-01  6.0044834459843E-01 -4.6007987679834E-03
    41  4.0000000000000E-01  6.2061709728123E-01  4.8491564460390E-03
    42  4.1000000000000E-01  6.3609320976597E-01  2.0113238458143E-02
    43  4.2000000000000E-01  6.4687840483824E-01  4.1118102697393E-02
    44  4.3000000000000E-01  6.5308481150136E-01  6.7658195823610E-02
    45  4.4000000000000E-01  6.5493357088129E-01  9.9398116595940E-02
    46  4.5000000000000E-01  6.5275092339348E-01  1.3587800675900E-01
    47  4.6000000000000E-01  6.4696183719680E-01  1.7652188752746E-01
    48  4.7000000000000E-01  6.3808129420539E-01  2.2064878920648E-01
    49  4.8000000000000E-01  6.2670340407116E-01  2.6748645621176E-01
    50  4.9000000000000E-01  6.1348856736076E-01  3.1618734873809E-01
    51  5.0000000000000E-01  5.9914895547154E-01  3.6584660697662E-01
    52  5.1000000000000E-01  5.8443261559086E-01  4.1552159538957E-01
    53  5.2000000000000E-01  5.7010654324872E-01  4.6425260426404E-01
    54  5.3000000000000E-01  5.5693909192768E-01  5.1108425456020E-01
    55  5.4000000000000E-01  5.4568210811555E-01  5.5508713072619E-01
    56  5.5000000000000E-01  5.3705319062626E-01  5.9537915524206E-01
    57  5.6000000000000E-01  5.3171847466710E-01  6.3114621852216E-01
    58  5.7000000000000E-01  5.3027633388184E-01  6.6166158855658E-01
    59  5.8000000000000E-01  5.3324237753090E-01  6.8630364617481E-01
    60  5.9000000000000E-01  5.4103609535811E-01  7.0457152369733E-01
    61  6.0000000000000E-01  5.5396947000567E-01  7.1609826639842E-01
    62  6.1000000000000E-01  5.7223783672318E-01  7.2066118681058E-01
    63  6.2000000000000E-01  5.9591322339003E-01  7.1818914042568E-01
    64  6.3000000000000E-01  6.2494035150223E-01  7.0876651657719E-01
    65  6.4000000000000E-01  6.5913542186649E-01  6.9263380884565E-01
    66  6.5000000000000E-01  6.9818774850492E-01  6.7018470371355E-01
    67  6.6000000000000E-01  7.4166424199673E-01  6.4195970280480E-01
    68  6.7000000000000E-01  7.8901668051880E-01  6.0863637120913E-01
    69  6.8000000000000E-01  8.3959164456764E-01  5.7101638042314E-01
    70  6.9000000000000E-01  8.9264293112558E-01  5.3000958765026E-01
    71  7.0000000000000E-01  9.4734620621322E-01  4.8661546195139E-01
    72  7.1000000000000E-01  1.0028156026223E+00  4.4190223047245E-01
    73  7.2000000000000E-01  1.0581219233375E+00  3.9698417325016E-01
    74  7.3000000000000E-01  1.1123120717981E+00  3.5299754162303E-01
    75  7.4000000000000E-01  1.1644292986506E+00  3.1107561193829E-01
    76  7.5000000000000E-01  1.2135338317611E+00  2.7232341213507E-01
    77  7.6000000000000E-01  1.2587234425833E+00  2.3779267322018E-01
    78  7.7000000000000E-01  1.2991534978949E+00  2.0845756019068E-01
    79  7.8000000000000E-01  1.3340560516112E+00  1.8519172741333E-01
    80  7.9000000000000E-01  1.3627575468359E+00  1.6874722191775E-01
    81  8.0000000000000E-01  1.3846947232706E+00  1.5973572483428E-01
    82  8.1000000000000E-01  1.3994283591412E+00  1.5861257689911E-01
    83  8.2000000000000E-01  1.4066545192545E+00  1.6566397939893E-01
    84  8.3000000000000E-01  1.4062130308499E+00  1.8099769820128E-01
    85  8.4000000000000E-01  1.3980929655426E+00  2.0453752689230E-01
    86  8.5000000000000E-01  1.3824349677207E+00  2.3602168698173E-01
    87  8.6000000000000E-01  1.3595303359668E+00  2.7500526024957E-01
    88  8.7000000000000E-01  1.3298168330471E+00  3.2086666233390E-01
    89  8.8000000000000E-01  1.2938712702857E+00  3.7281807941369E-01
    90  8.9000000000000E-01  1.2523989822246E+00  4.2991970318780E-01
    91  9.0000000000000E-01  1.2062203758503E+00  4.9109751516140E-01
    92  9.1000000000000E-01  1.1562548038658E+00  5.5516429136052E-01
    93  9.2000000000000E-01  1.1035020720636E+00  6.2084342476584E-01
    94  9.3000000000000E-01  1.0490219454778E+00  6.8679509663641E-01
    95  9.4000000000000E-01  9.9391206542179E-01  7.5164427099442E-01
    96  9.5000000000000E-01  9.3928472867584E-01  8.1400994016045E-01
    97  9.6000000000000E-01  8.8624301004867E-01  8.7253501450224E-01
    98  9.7000000000000E-01  8.3585672957168E-01  9.2591622733492E-01
    99  9.8000000000000E-01  7.8913877516292E-01  9.7293341681611E-01
   100  9.9000000000000E-01  7.4702229042308E-01  1.0124775510358E+00
   101  1.0000000000000E+00  7.1033922519756E-01  1.0435768803879E+00
   102  1.0100000000000E+00  6.7980072381137E-01  1.0654206324887E+00
   103  1.0200000000000E+00  6.5597979285618E-01  1.0773797088300E+00
   104  1.0300000000000E+00  6.3929664763717E-01  1.0790238982905E+00
   105  1.0400000000000E+00  6.3000708469009E-01  1.0701351895072E+00
   106  1.0500000000000E+00  6.2819416824455E-01  1.0507168405347E+00
   107  1.0600000000000E+00  6.3376345215441E-01  1.0209979488917E+00
   108  1.0700000000000E+00  6.4644188711599E-01  9.8143335613784E-01
   109  1.0800000000000E+00  6.6578048744417E-01  9.3269881664244E-01
   110  1.0900000000000E+00  6.9116075352573E-01  8.7568145862835E-01
   111  1.1000000000000E+00  7.2180476749064E-01  8.1146566416412E-01
   112  1.1100000000000E+00  7.5678880159649E-01  7.4131459232749E-01
   113  1.1200000000000E+00  7.9506020363828E-01  6.6664766336629E-01
   114  1.1300000000000E+00  8.3545725239366E-01  5.8901441006289E-01
   115  1.1400000000000E+00  8.7673161067168E-01  5.1006518321001E-01
   116  1.1500000000000E+00  9.1757294504542E-01  4.3151926977020E-01
   117  1.1600000000000E+00  9.5663523135842E-01  3.5513104301879E-01
   118  1.1700000000000E+00  9.9256422449305E-01  2.8265481266425E-01
   119  1.1800000000000E+00  1.0240255408372E+00  2.1580907819413E-01
   120  1.1900000000000E+00  1.0497327828833E+00  1.5624090989572E-01
   121  1.2000000000000E+00  1.0684751280986E+00  1.0549118840504E-01
   122  1.2100000000000E+00  1.0791438088227E+00  6.4961424974308E-02
   123  1.2200000000000E+00  1.0807569263920E+00  3.5882861133237E-02
   124  1.2300000000000E+00  1.0724820708753E+00  1.9288508147968E-02
   125  1.2400000000000E+00  1.0536562572382E+00  1.5988734347713E-02
   126  1.2500000000000E+00  1.0238027383035E+00  2.6550943457857E-02
   127  1.2600000000000E+00  9.8264431449272E-01  5.1283809620795E-02