Si    ONCVPSP-4.0.1  r_core=   1.60630   1.71555   1.91059
     14.0000      4.0000      250925    zatom,zion,pspd
     8   -1012   2     4   600     0    pspcod,pspxc,lmax,lloc,mmax,r2well
  5.99000000  4.00000000  0.00000000    rchrg fchrg qchrg
     2     2     2     0    nproj
     3     1           extension_switch
     3     4     0    nprojso
   0                        -6.5423178995138E+00  2.2893667292999E+00
     1  0.0000000000000E+00 -1.2977296903749E-08  5.8679795814087E-09
     2  1.0000000000000E-02  7.4222072083485E-02 -4.4427610525242E-03
     3  2.0000000000000E-02  1.4803585967457E-01 -8.7044924177228E-03
     4  3.0000000000000E-02  2.2104010121241E-01 -1.2607471441262E-02
     5  4.0000000000000E-02  2.9284742691784E-01 -1.5980518602469E-02
     6  5.0000000000000E-02  3.6309092291183E-01 -1.8662093300664E-02
     7  6.0000000000000E-02  4.3143024673921E-01 -2.0503183011953E-02
     8  7.0000000000000E-02  4.9755716042702E-01 -2.1369924017911E-02
     9  8.0000000000000E-02  5.6120036018398E-01 -2.1145897775539E-02
    10  9.0000000000000E-02  6.2212949752327E-01 -1.9734054089431E-02
    11  1.0000000000000E-01  6.8015830461678E-01 -1.7058220407746E-02
    12  1.1000000000000E-01  7.3514675666880E-01 -1.3064165615401E-02
    13  1.2000000000000E-01  7.8700222558610E-01 -7.7201964437197E-03
    14  1.3000000000000E-01  8.3567960174595E-01 -1.0172748429100E-03
    15  1.4000000000000E-01  8.8118038372311E-01  7.0313448507725E-03
    16  1.5000000000000E-01  9.2355075892021E-01  1.6390949606512E-02
    17  1.6000000000000E-01  9.6287872064123E-01  2.7006652587876E-02
    18  1.7000000000000E-01  9.9929028875176E-01  3.8805099689190E-02
    19  1.8000000000000E-01  1.0329449212021E+00  5.1696558922727E-02
    20  1.9000000000000E-01  1.0640302219004E+00  6.5577345458192E-02
    21  2.0000000000000E-01  1.0927560663049E+00  8.0332527743120E-02
    22  2.1000000000000E-01  1.1193482793038E+00  9.5838853951290E-02
    23  2.2000000000000E-01  1.1440420101621E+00  1.1196783315219E-01
    24  2.3000000000000E-01  1.1670749563190E+00  1.2858890217577E-01
    25  2.4000000000000E-01  1.1886805914342E+00  1.4557260723949E-01
    26  2.5000000000000E-01  1.2090815532453E+00  1.6279372905266E-01
    27  2.6000000000000E-01  1.2284833434728E+00  1.8013428132616E-01
    28  2.7000000000000E-01  1.2470684852826E+00  1.9748631536948E-01
    29  2.8000000000000E-01  1.2649912738137E+00  2.1475446769349E-01
    30  2.9000000000000E-01  1.2823732422233E+00  2.3185819316709E-01
    31  3.0000000000000E-01  1.2992994498717E+00  2.4873363317651E-01
    32  3.1000000000000E-01  1.3158156810029E+00  2.6533507626096E-01
    33  3.2000000000000E-01  1.3319266219887E+00  2.8163597767233E-01
    34  3.3000000000000E-01  1.3475950633127E+00  2.9762951403635E-01
    35  3.4000000000000E-01  1.3627421494842E+00  3.1332865956702E-01
    36  3.5000000000000E-01  1.3772486764735E+00  3.2876578088067E-01
    37  3.6000000000000E-01  1.3909574125884E+00  3.4399175814150E-01
    38  3.7000000000000E-01  1.4036763954771E+00  3.5907465081149E-01
    39  3.8000000000000E-01  1.4151831356755E+00  3.7409793644588E-01
    40  3.9000000000000E-01  1.4252296363006E+00  3.8915836054548E-01
    41  4.0000000000000E-01  1.4335481196078E+00  4.0436344424038E-01
    42  4.1000000000000E-01  1.4398573345864E+00  4.1982870434122E-01
    43  4.2000000000000E-01  1.4438693059632E+00  4.3567464688297E-01
    44  4.3000000000000E-01  1.4452963742106E+00  4.5202360055417E-01
    45  4.4000000000000E-01  1.4438583686889E+00  4.6899646023371E-01
    46  4.5000000000000E-01  1.4392897520509E+00  4.8670941315962E-01
    47  4.6000000000000E-01  1.4313465736225E+00  5.0527072097508E-01
    48  4.7000000000000E-01  1.4198130726584E+00  5.2477763001554E-01
    49  4.8000000000000E-01  1.4045077791120E+00  5.4531347973162E-01
    50  4.9000000000000E-01  1.3852889697168E+00  5.6694507513442E-01
    51  5.0000000000000E-01  1.3620593505487E+00  5.8972038368512E-01
    52  5.1000000000000E-01  1.3347698535435E+00  6.1366661024353E-01
    53  5.2000000000000E-01  1.3034224533377E+00  6.3878869568441E-01
    54  5.3000000000000E-01  1.2680719318814E+00  6.6506827575674E-01
    55  5.4000000000000E-01  1.2288265410834E+00  6.9246312689118E-01
    56  5.5000000000000E-01  1.1858475378009E+00  7.2090711516884E-01
    57  5.6000000000000E-01  1.1393475902553E+00  7.5031065377386E-01
    58  5.7000000000000E-01  1.0895880798996E+00  7.8056166320048E-01
    59  5.8000000000000E-01  1.0368753473338E+00  8.1152701751060E-01
    60  5.9000000000000E-01  9.8155595452347E-01  8.4305444927997E-01
    61  6.0000000000000E-01  9.2401105779209E-01  8.7497487576230E-01
    62  6.1000000000000E-01  8.6465000634111E-01  9.0710509946252E-01
    63  6.2000000000000E-01  8.0390329893809E-01  9.3925082794899E-01
    64  6.3000000000000E-01  7.4221504650313E-01  9.7120995053451E-01
    65  6.4000000000000E-01  6.8003510026393E-01  1.0027760035789E+00
    66  6.5000000000000E-01  6.1781101366294E-01  1.0337417517436E+00
    67  6.6000000000000E-01  5.5598001107566E-01  1.0639028096629E+00
    68  6.7000000000000E-01  4.9496113751039E-01  1.0930612272570E+00
    69  6.8000000000000E-01  4.3514776075629E-01  1.1210289623291E+00
    70  6.9000000000000E-01  3.7690059096466E-01  1.1476311661645E+00
    71  7.0000000000000E-01  3.2054137250570E-01  1.1727092115396E+00
    72  7.1000000000000E-01  2.6634738933614E-01  1.1961233977881E+00
    73  7.2000000000000E-01  2.1454690831789E-01  1.2177552742454E+00
    74  7.3000000000000E-01  1.6531566528981E-01  1.2375095313653E+00
    75  7.4000000000000E-01  1.1877447662185E-01  1.2553154179099E+00
    76  7.5000000000000E-01  7.4988034941019E-02  1.2711276526610E+00
    77  7.6000000000000E-01  3.3964922219292E-02  1.2849268098720E+00
    78  7.7000000000000E-01 -4.3411529978166E-03  1.2967191689517E+00
    79  7.8000000000000E-01 -4.0028914198530E-02  1.3065360303973E+00
    80  7.9000000000000E-01 -7.3245917843746E-02  1.3144325115274E+00
    81  8.0000000000000E-01 -1.0418386883964E-01  1.3204858468590E+00
    82  8.1000000000000E-01 -1.3307294707319E-01  1.3247932287832E+00
    83  8.2000000000000E-01 -1.6017526395139E-01  1.3274692342759E+00
    84  8.3000000000000E-01 -1.8577758787986E-01  1.3286428925292E+00
    85  8.4000000000000E-01 -2.1018349474512E-01  1.3284544563897E+00
    86  8.5000000000000E-01 -2.3370511333364E-01  1.3270519471700E+00
    87  8.6000000000000E-01 -2.5665464590766E-01  1.3245875476130E+00
    88  8.7000000000000E-01 -2.7933585061218E-01  1.3212139214089E+00
    89  8.8000000000000E-01 -3.0203567484317E-01  1.3170805396140E+00
    90  8.9000000000000E-01 -3.2501622708086E-01  1.3123300945413E+00
    91  9.0000000000000E-01 -3.4850726898892E-01  1.3070950801855E+00
    92  9.1000000000000E-01 -3.7269939989255E-01  1.3014946150164E+00
    93  9.2000000000000E-01 -3.9773809225710E-01  1.2956315781026E+00
    94  9.3000000000000E-01 -4.2371871975193E-01  1.2895901231024E+00
    95  9.4000000000000E-01 -4.5068269924921E-01  1.2834336268065E+00
    96  9.5000000000000E-01 -4.7861484507474E-01  1.2772031198135E+00
    97  9.6000000000000E-01 -5.0744200848183E-01  1.2709162367354E+00
    98  9.7000000000000E-01 -5.3703304818022E-01  1.2645667123011E+00
    99  9.8000000000000E-01 -5.6720014938856E-01  1.2581244380632E+00
   100  9.9000000000000E-01 -5.9770147990038E-01  1.2515360823804E+00
   101  1.0000000000000E+00 -6.2824514264959E-01  1.2447262641914E+00
   102  1.0100000000000E+00 -6.5849435588436E-01  1.2375992590781E+00
   103  1.0200000000000E+00 -6.8807376490509E-01  1.2300412045001E+00
   104  1.0300000000000E+00 -7.1657676396777E-01  1.2219227601076E+00
   105  1.0400000000000E+00 -7.4357368397401E-01  1.2131021689532E+00
   106  1.0500000000000E+00 -7.6862068147677E-01  1.2034286564457E+00
   107  1.0600000000000E+00 -7.9126914773284E-01  1.1927460962044E+00
   108  1.0700000000000E+00 -8.1107544347043E-01  1.1808968657670E+00
   109  1.0800000000000E+00 -8.2761075597340E-01  1.1677258105101E+00
   110  1.0900000000000E+00 -8.4047087025369E-01  1.1530842312564E+00
   111  1.1000000000000E+00 -8.4928564562123E-01  1.1368338099527E+00
   112  1.1100000000000E+00 -8.5372799291439E-01  1.1188503885231E+00
   113  1.1200000000000E+00 -8.5352215595119E-01  1.0990275185367E+00
   114  1.1300000000000E+00 -8.4845111329434E-01  1.0772797036223E+00
   115  1.1400000000000E+00 -8.3836293291331E-01  1.0535452625438E+00
   116  1.1500000000000E+00 -8.2317593250388E-01  1.0277887483850E+00
   117  1.1600000000000E+00 -8.0288252162904E-01  1.0000028682352E+00
   118  1.1700000000000E+00 -7.7755162810078E-01  9.7020985794823E-01
   119  1.1800000000000E+00 -7.4732963943128E-01  9.3846227770049E-01
   120  1.1900000000000E+00 -7.1243982044511E-01  9.0484320608359E-01
   121  1.2000000000000E+00 -6.7318019920135E-01  8.6946582289161E-01
   122  1.2100000000000E+00 -6.2991994516523E-01  8.3247238359549E-01
   123  1.2200000000000E+00 -5.8309429478234E-01  7.9403260119017E-01
   124  1.2300000000000E+00 -5.3319811015208E-01  7.5434146362051E-01
   125  1.2400000000000E+00 -4.8077818540771E-01  7.1361652694378E-01
   126  1.2500000000000E+00 -4.2642444205546E-01  6.7209473550311E-01
   127  1.2600000000000E+00 -3.7076017865465E-01  6.3002883056675E-01
   128  1.2700000000000E+00 -3.1443156087810E-01  5.8768341772918E-01
   129  1.2800000000000E+00 -2.5809655504942E-01  5.4533077081382E-01
   130  1.2900000000000E+00 -2.0241352125245E-01  5.0324645587252E-01
   131  1.3000000000000E+00 -1.4802969064703E-01  4.6170486296340E-01
   132  1.3100000000000E+00 -9.5569755662181E-02  4.2097473568296E-01
   133  1.3200000000000E+00 -4.5624801056390E-02  3.8131478883705E-01
   134  1.3300000000000E+00  1.2582015611890E-03  3.4296950313990E-01
   135  1.3400000000000E+00  4.4586123092315E-02  3.0616518249804E-01
   136  1.3500000000000E+00  8.3928431979329E-02  2.7110635427230E-01
   137  1.3600000000000E+00  1.1892479523388E-01  2.3797258606537E-01
   138  1.3700000000000E+00  1.4929136816457E-01  2.0691578416366E-01
   139  1.3800000000000E+00  1.7482564109410E-01  1.7805802900235E-01
   140  1.3900000000000E+00  1.9540973996540E-01  1.5148999200481E-01
   141  1.4000000000000E+00  2.1101210843721E-01  1.2726996623213E-01
   142  1.4100000000000E+00  2.2168753144247E-01  1.0542353063719E-01
   143  1.4200000000000E+00  2.2757549356753E-01  8.5943854611567E-02
   144  1.4300000000000E+00  2.2889689909471E-01  6.8792636308311E-02
   145  1.4400000000000E+00  2.2594921394390E-01  5.3901654997219E-02
   146  1.4500000000000E+00  2.1910012170521E-01  4.1174905001583E-02
   147  1.4600000000000E+00  2.0877981635353E-01  3.0491266627970E-02
   148  1.4700000000000E+00  1.9547208218439E-01  2.1707658294187E-02
   149  1.4800000000000E+00  1.7970433648405E-01  1.4662603998264E-02
   150  1.4900000000000E+00  1.6203683190057E-01  9.1801415766478E-03
   151  1.5000000000000E+00  1.4305123066897E-01  5.0739905806067E-03
   152  1.5100000000000E+00  1.2333880445614E-01  2.1518863147095E-03
   153  1.5200000000000E+00  1.0348836849405E-01  2.2002048286992E-04
   154  1.5300000000000E+00  8.4075266181202E-02 -9.1276508208612E-04
   155  1.5400000000000E+00  6.5652162236817E-02 -1.4311909655800E-03
   156  1.5500000000000E+00  4.8728554299737E-02 -1.5071794720914E-03
   157  1.5600000000000E+00  3.3766005746714E-02 -1.2974244471039E-03
   158  1.5700000000000E+00  2.1170872979746E-02 -9.4040994628190E-04
   159  1.5800000000000E+00  1.1288149616291E-02 -5.5341944742932E-04
   160  1.5900000000000E+00  4.3677055647509E-03 -2.2846087601055E-04
   161  1.6000000000000E+00  7.1193641316300E-04 -3.8756105675697E-05
   162  1.6100000000000E+00 -7.5808850569546E-05  4.2465977777502E-06
   163  1.6200000000000E+00  2.2780304621970E-05 -1.2651264581454E-06
   164  1.63  0.  0.
   165  1.64  0.  0.
   166  1.65  0.  0.
   167  1.66  0.  0.
   168  1.67  0.  0.
   169  1.68  0.  0.
   170  1.69  0.  0.
   171  1.70  0.  0.
   172  1.71  0.  0.
   173  1.72  0.  0.
   174  1.73  0.  0.
   175  1.74  0.  0.
   176  1.75  0.  0.
   177  1.76  0.  0.
   178  1.77  0.  0.
   179  1.78  0.  0.
   180  1.79  0.  0.
   181  1.80  0.  0.
   182  1.81  0.  0.
   183  1.82  0.  0.
   184  1.83  0.  0.
   185  1.84  0.  0.
   186  1.85  0.  0.
   187  1.86  0.  0.
   188  1.87  0.  0.
   189  1.88  0.  0.
   190  1.89  0.  0.
   191  1.90  0.  0.
   192  1.91  0.  0.
   193  1.92  0.  0.
   194  1.93  0.  0.
   195  1.94  0.  0.
   196  1.95  0.  0.
   197  1.96  0.  0.
   198  1.97  0.  0.
   199  1.98  0.  0.
   200  1.99  0.  0.
   201  2.00  0.  0.
   202  2.01  0.  0.
   203  2.02  0.  0.
   204  2.03  0.  0.
   205  2.04  0.  0.
   206  2.05  0.  0.
   207  2.06  0.  0.
   208  2.07  0.  0.
   209  2.08  0.  0.
   210  2.09  0.  0.
   211  2.10  0.  0.
   212  2.11  0.  0.
   213  2.12  0.  0.
   214  2.13  0.  0.
   215  2.14  0.  0.
   216  2.15  0.  0.
   217  2.16  0.  0.
   218  2.17  0.  0.
   219  2.18  0.  0.
   220  2.19  0.  0.
   221  2.20  0.  0.
   222  2.21  0.  0.
   223  2.22  0.  0.
   224  2.23  0.  0.
   225  2.24  0.  0.
   226  2.25  0.  0.
   227  2.26  0.  0.
   228  2.27  0.  0.
   229  2.28  0.  0.
   230  2.29  0.  0.
   231  2.30  0.  0.
   232  2.31  0.  0.
   233  2.32  0.  0.
   234  2.33  0.  0.
   235  2.34  0.  0.
   236  2.35  0.  0.
   237  2.36  0.  0.
   238  2.37  0.  0.
   239  2.38  0.  0.
   240  2.39  0.  0.
   241  2.40  0.  0.
   242  2.41  0.  0.
   243  2.42  0.  0.
   244  2.43  0.  0.
   245  2.44  0.  0.
   246  2.45  0.  0.
   247  2.46  0.  0.
   248  2.47  0.  0.
   249  2.48  0.  0.
   250  2.49  0.  0.
   251  2.50  0.  0.
   252  2.51  0.  0.
   253  2.52  0.  0.
   254  2.53  0.  0.
   255  2.54  0.  0.
   256  2.55  0.  0.
   257  2.56  0.  0.
   258  2.57  0.  0.
   259  2.58  0.  0.
   260  2.59  0.  0.
   261  2.60  0.  0.
   262  2.61  0.  0.
   263  2.62  0.  0.
   264  2.63  0.  0.
   265  2.64  0.  0.
   266  2.65  0.  0.
   267  2.66  0.  0.
   268  2.67  0.  0.
   269  2.68  0.  0.
   270  2.69  0.  0.
   271  2.70  0.  0.
   272  2.71  0.  0.
   273  2.72  0.  0.
   274  2.73  0.  0.
   275  2.74  0.  0.
   276  2.75  0.  0.
   277  2.76  0.  0.
   278  2.77  0.  0.
   279  2.78  0.  0.
   280  2.79  0.  0.
   281  2.80  0.  0.
   282  2.81  0.  0.
   283  2.82  0.  0.
   284  2.83  0.  0.
   285  2.84  0.  0.
   286  2.85  0.  0.
   287  2.86  0.  0.
   288  2.87  0.  0.
   289  2.88  0.  0.
   290  2.89  0.  0.
   291  2.90  0.  0.
   292  2.91  0.  0.
   293  2.92  0.  0.
   294  2.93  0.  0.
   295  2.94  0.  0.
   296  2.95  0.  0.
   297  2.96  0.  0.
   298  2.97  0.  0.
   299  2.98  0.  0.
   300  2.99  0.  0.
   301  3.00  0.  0.
   302  3.01  0.  0.
   303  3.02  0.  0.
   304  3.03  0.  0.
   305  3.04  0.  0.
   306  3.05  0.  0.
   307  3.06  0.  0.
   308  3.07  0.  0.
   309  3.08  0.  0.
   310  3.09  0.  0.
   311  3.10  0.  0.
   312  3.11  0.  0.
   313  3.12  0.  0.
   314  3.13  0.  0.
   315  3.14  0.  0.
   316  3.15  0.  0.
   317  3.16  0.  0.
   318  3.17  0.  0.
   319  3.18  0.  0.
   320  3.19  0.  0.
   321  3.20  0.  0.
   322  3.21  0.  0.
   323  3.22  0.  0.
   324  3.23  0.  0.
   325  3.24  0.  0.
   326  3.25  0.  0.
   327  3.26  0.  0.
   328  3.27  0.  0.
   329  3.28  0.  0.
   330  3.29  0.  0.
   331  3.30  0.  0.
   332  3.31  0.  0.
   333  3.32  0.  0.
   334  3.33  0.  0.
   335  3.34  0.  0.
   336  3.35  0.  0.
   337  3.36  0.  0.
   338  3.37  0.  0.
   339  3.38  0.  0.
   340  3.39  0.  0.
   341  3.40  0.  0.
   342  3.41  0.  0.
   343  3.42  0.  0.
   344  3.43  0.  0.
   345  3.44  0.  0.
   346  3.45  0.  0.
   347  3.46  0.  0.
   348  3.47  0.  0.
   349  3.48  0.  0.
   350  3.49  0.  0.
   351  3.50  0.  0.
   352  3.51  0.  0.
   353  3.52  0.  0.
   354  3.53  0.  0.
   355  3.54  0.  0.
   356  3.55  0.  0.
   357  3.56  0.  0.
   358  3.57  0.  0.
   359  3.58  0.  0.
   360  3.59  0.  0.
   361  3.60  0.  0.
   362  3.61  0.  0.
   363  3.62  0.  0.
   364  3.63  0.  0.
   365  3.64  0.  0.
   366  3.65  0.  0.
   367  3.66  0.  0.
   368  3.67  0.  0.
   369  3.68  0.  0.
   370  3.69  0.  0.
   371  3.70  0.  0.
   372  3.71  0.  0.
   373  3.72  0.  0.
   374  3.73  0.  0.
   375  3.74  0.  0.
   376  3.75  0.  0.
   377  3.76  0.  0.
   378  3.77  0.  0.
   379  3.78  0.  0.
   380  3.79  0.  0.
   381  3.80  0.  0.
   382  3.81  0.  0.
   383  3.82  0.  0.
   384  3.83  0.  0.
   385  3.84  0.  0.
   386  3.85  0.  0.
   387  3.86  0.  0.
   388  3.87  0.  0.
   389  3.88  0.  0.
   390  3.89  0.  0.
   391  3.90  0.  0.
   392  3.91  0.  0.
   393  3.92  0.  0.
   394  3.93  0.  0.
   395  3.94  0.  0.
   396  3.95  0.  0.
   397  3.96  0.  0.
   398  3.97  0.  0.
   399  3.98  0.  0.
   400  3.99  0.  0.
   401  4.00  0.  0.
   402  4.01  0.  0.
   403  4.02  0.  0.
   404  4.03  0.  0.
   405  4.04  0.  0.
   406  4.05  0.  0.
   407  4.06  0.  0.
   408  4.07  0.  0.
   409  4.08  0.  0.
   410  4.09  0.  0.
   411  4.10  0.  0.
   412  4.11  0.  0.
   413  4.12  0.  0.
   414  4.13  0.  0.
   415  4.14  0.  0.
   416  4.15  0.  0.
   417  4.16  0.  0.
   418  4.17  0.  0.
   419  4.18  0.  0.
   420  4.19  0.  0.
   421  4.20  0.  0.
   422  4.21  0.  0.
   423  4.22  0.  0.
   424  4.23  0.  0.
   425  4.24  0.  0.
   426  4.25  0.  0.
   427  4.26  0.  0.
   428  4.27  0.  0.
   429  4.28  0.  0.
   430  4.29  0.  0.
   431  4.30  0.  0.
   432  4.31  0.  0.
   433  4.32  0.  0.
   434  4.33  0.  0.
   435  4.34  0.  0.
   436  4.35  0.  0.
   437  4.36  0.  0.
   438  4.37  0.  0.
   439  4.38  0.  0.
   440  4.39  0.  0.
   441  4.40  0.  0.
   442  4.41  0.  0.
   443  4.42  0.  0.
   444  4.43  0.  0.
   445  4.44  0.  0.
   446  4.45  0.  0.
   447  4.46  0.  0.
   448  4.47  0.  0.
   449  4.48  0.  0.
   450  4.49  0.  0.
   451  4.50  0.  0.
   452  4.51  0.  0.
   453  4.52  0.  0.
   454  4.53  0.  0.
   455  4.54  0.  0.
   456  4.55  0.  0.
   457  4.56  0.  0.
   458  4.57  0.  0.
   459  4.58  0.  0.
   460  4.59  0.  0.
   461  4.60  0.  0.
   462  4.61  0.  0.
   463  4.62  0.  0.
   464  4.63  0.  0.
   465  4.64  0.  0.
   466  4.65  0.  0.
   467  4.66  0.  0.
   468  4.67  0.  0.
   469  4.68  0.  0.
   470  4.69  0.  0.
   471  4.70  0.  0.
   472  4.71  0.  0.
   473  4.72  0.  0.
   474  4.73  0.  0.
   475  4.74  0.  0.
   476  4.75  0.  0.
   477  4.76  0.  0.
   478  4.77  0.  0.
   479  4.78  0.  0.
   480  4.79  0.  0.
   481  4.80  0.  0.
   482  4.81  0.  0.
   483  4.82  0.  0.
   484  4.83  0.  0.
   485  4.84  0.  0.
   486  4.85  0.  0.
   487  4.86  0.  0.
   488  4.87  0.  0.
   489  4.88  0.  0.
   490  4.89  0.  0.
   491  4.90  0.  0.
   492  4.91  0.  0.
   493  4.92  0.  0.
   494  4.93  0.  0.
   495  4.94  0.  0.
   496  4.95  0.  0.
   497  4.96  0.  0.
   498  4.97  0.  0.
   499  4.98  0.  0.
   500  4.99  0.  0.
   501  5.00  0.  0.
   502  5.01  0.  0.
   503  5.02  0.  0.
   504  5.03  0.  0.
   505  5.04  0.  0.
   506  5.05  0.  0.
   507  5.06  0.  0.
   508  5.07  0.  0.
   509  5.08  0.  0.
   510  5.09  0.  0.
   511  5.10  0.  0.
   512  5.11  0.  0.
   513  5.12  0.  0.
   514  5.13  0.  0.
   515  5.14  0.  0.
   516  5.15  0.  0.
   517  5.16  0.  0.
   518  5.17  0.  0.
   519  5.18  0.  0.
   520  5.19  0.  0.
   521  5.20  0.  0.
   522  5.21  0.  0.
   523  5.22  0.  0.
   524  5.23  0.  0.
   525  5.24  0.  0.
   526  5.25  0.  0.
   527  5.26  0.  0.
   528  5.27  0.  0.
   529  5.28  0.  0.
   530  5.29  0.  0.
   531  5.30  0.  0.
   532  5.31  0.  0.
   533  5.32  0.  0.
   534  5.33  0.  0.
   535  5.34  0.  0.
   536  5.35  0.  0.
   537  5.36  0.  0.
   538  5.37  0.  0.
   539  5.38  0.  0.
   540  5.39  0.  0.
   541  5.40  0.  0.
   542  5.41  0.  0.
   543  5.42  0.  0.
   544  5.43  0.  0.
   545  5.44  0.  0.
   546  5.45  0.  0.
   547  5.46  0.  0.
   548  5.47  0.  0.
   549  5.48  0.  0.
   550  5.49  0.  0.
   551  5.50  0.  0.
   552  5.51  0.  0.
   553  5.52  0.  0.
   554  5.53  0.  0.
   555  5.54  0.  0.
   556  5.55  0.  0.
   557  5.56  0.  0.
   558  5.57  0.  0.
   559  5.58  0.  0.
   560  5.59  0.  0.
   561  5.60  0.  0.
   562  5.61  0.  0.
   563  5.62  0.  0.
   564  5.63  0.  0.
   565  5.64  0.  0.
   566  5.65  0.  0.
   567  5.66  0.  0.
   568  5.67  0.  0.
   569  5.68  0.  0.
   570  5.69  0.  0.
   571  5.70  0.  0.
   572  5.71  0.  0.
   573  5.72  0.  0.
   574  5.73  0.  0.
   575  5.74  0.  0.
   576  5.75  0.  0.
   577  5.76  0.  0.
   578  5.77  0.  0.
   579  5.78  0.  0.
   580  5.79  0.  0.
   581  5.80  0.  0.
   582  5.81  0.  0.
   583  5.82  0.  0.
   584  5.83  0.  0.
   585  5.84  0.  0.
   586  5.85  0.  0.
   587  5.86  0.  0.
   588  5.87  0.  0.
   589  5.88  0.  0.
   590  5.89  0.  0.
   591  5.90  0.  0.
   592  5.91  0.  0.
   593  5.92  0.  0.
   594  5.93  0.  0.
   595  5.94  0.  0.
   596  5.95  0.  0.
   597  5.96  0.  0.
   598  5.97  0.  0.
   599  5.98  0.  0.
   600  5.99  0.  0.
   1                         2.6350013874372E+00  5.9772824708343E-01
     1  0.0000000000000E+00 -4.2686279622117E-08  5.1269771775275E-08
     2  1.0000000000000E-02 -1.3543539204321E-03  2.0873389241877E-03
     3  2.0000000000000E-02 -5.3723750342385E-03  8.2958381441674E-03
     4  3.0000000000000E-02 -1.1920049467071E-02  1.8466265439264E-02
     5  4.0000000000000E-02 -2.0777688376824E-02  3.2337604019940E-02
     6  5.0000000000000E-02 -3.1645339159778E-02  4.9553499370474E-02
     7  6.0000000000000E-02 -4.4150182822740E-02  6.9671070344743E-02
     8  7.0000000000000E-02 -5.7855744095652E-02  9.2171875958744E-02
     9  8.0000000000000E-02 -7.2272698172860E-02  1.1647477805364E-01
    10  9.0000000000000E-02 -8.6871020220580E-02  1.4195039471305E-01
    11  1.0000000000000E-01 -1.0109319183967E-01  1.6793680105580E-01
    12  1.1000000000000E-01 -1.1436815326324E-01  1.9375610368083E-01
    13  1.2000000000000E-01 -1.2612567178763E-01  2.1873149332463E-01
    14  1.3000000000000E-01 -1.3581078621289E-01  2.4220436772046E-01
    15  1.4000000000000E-01 -1.4289798416462E-01  2.6355111353138E-01
    16  1.5000000000000E-01 -1.4690477416699E-01  2.8219914266108E-01
    17  1.6000000000000E-01 -1.4740432714292E-01  2.9764179410551E-01
    18  1.7000000000000E-01 -1.4403688235977E-01  3.0945173745974E-01
    19  1.8000000000000E-01 -1.3651964027842E-01  3.1729254769259E-01
    20  1.9000000000000E-01 -1.2465489869484E-01  3.2092816210989E-01
    21  2.0000000000000E-01 -1.0833622823826E-01  3.2022997862532E-01
    22  2.1000000000000E-01 -8.7552527824271E-02  3.1518140846916E-01
    23  2.2000000000000E-01 -6.2389849061463E-02  3.0587975507537E-01
    24  2.3000000000000E-01 -3.3030929790761E-02  2.9253535277552E-01
    25  2.4000000000000E-01  2.4757025381450E-04  2.7546796269156E-01
    26  2.5000000000000E-01  3.7080085427987E-02  2.5510048740916E-01
    27  2.6000000000000E-01  7.7019313092485E-02  2.3195012916441E-01
    28  2.7000000000000E-01  1.1954538623769E-01  2.0661717693959E-01
    29  2.8000000000000E-01  1.6407685320229E-01  1.7977166464135E-01
    30  2.9000000000000E-01  2.0998322468739E-01  1.5213819410813E-01
    31  3.0000000000000E-01  2.5659881029442E-01  1.2447926185749E-01
    32  3.1000000000000E-01  3.0323753493921E-01  9.7577466170055E-02
    33  3.2000000000000E-01  3.4920840047238E-01  7.2217000410760E-02
    34  3.3000000000000E-01  3.9383124027173E-01  4.9164858689109E-02
    35  3.4000000000000E-01  4.3645240490825E-01  2.9152190539854E-02
    36  3.5000000000000E-01  4.7646001548916E-01  1.2856241957885E-02
    37  3.6000000000000E-01  5.1329842803490E-01  8.8331076314546E-04
    38  3.7000000000000E-01  5.4648156715261E-01 -6.2468749556544E-03
    39  3.8000000000000E-01  5.7560481004492E-01 -8.1149753017702E-03
    40  3.9000000000000E-01  6.0035513207902E-01 -4.4137115752274E-03
    41  4.0000000000000E-01  6.2051926211066E-01  5.0429027421979E-03
    42  4.1000000000000E-01  6.3598963872583E-01  2.0313016622149E-02
    43  4.2000000000000E-01  6.4676800660885E-01  4.1323266354411E-02
    44  4.3000000000000E-01  6.5296654432747E-01  6.7868091515838E-02
    45  4.4000000000000E-01  6.5480646980557E-01  9.9612095837944E-02
    46  4.5000000000000E-01  6.5261412642281E-01  1.3609543782585E-01
    47  4.6000000000000E-01  6.4681460978168E-01  1.7674216671401E-01
    48  4.7000000000000E-01  6.3792305144286E-01  2.2087135130678E-01
    49  4.8000000000000E-01  6.2653373008509E-01  2.6771078398354E-01
    50  4.9000000000000E-01  6.1330723136969E-01  3.1641298113895E-01
    51  5.0000000000000E-01  5.9895592412247E-01  3.6607314598479E-01
    52  5.1000000000000E-01  5.8422806121586E-01  4.1574871125284E-01
    53  5.2000000000000E-01  5.6989084778811E-01  4.6448003905465E-01
    54  5.3000000000000E-01  5.5671284635767E-01  5.1131182395099E-01
    55  5.4000000000000E-01  5.4544610731674E-01  5.5531472394226E-01
    56  5.5000000000000E-01  5.3680842373084E-01  5.9560673318311E-01
    57  5.6000000000000E-01  5.3146611102427E-01  6.3137381009144E-01
    58  5.7000000000000E-01  5.3001770488076E-01  6.6188928527275E-01
    59  5.8000000000000E-01  5.3297895461637E-01  6.8653159518200E-01
    60  5.9000000000000E-01  5.4076946466353E-01  7.0479991932521E-01
    61  6.0000000000000E-01  5.5370130410913E-01  7.1632734045783E-01
    62  6.1000000000000E-01  5.7196986410330E-01  7.2089119783945E-01
    63  6.2000000000000E-01  5.9564719621717E-01  7.1842036212544E-01
    64  6.3000000000000E-01  6.2467801244654E-01  7.0899922569955E-01
    65  6.4000000000000E-01  6.5887847063512E-01  6.9286827280398E-01
    66  6.5000000000000E-01  6.9793780883656E-01  6.7042116820153E-01
    67  6.6000000000000E-01  7.4142282984161E-01  6.4219837970713E-01
    68  6.7000000000000E-01  7.8878517411574E-01  6.0887742708512E-01
    69  6.8000000000000E-01  8.3937125709784E-01  5.7125992583378E-01
    70  6.9000000000000E-01  8.9243468657516E-01  5.3025566758313E-01
    71  7.0000000000000E-01  9.4715091901441E-01  4.8686404757576E-01
    72  7.1000000000000E-01  1.0026338615678E+00  4.4215321242994E-01
    73  7.2000000000000E-01  1.0579540801748E+00  3.9723735665442E-01
    74  7.3000000000000E-01  1.1121582348150E+00  3.5325264290592E-01
    75  7.4000000000000E-01  1.1642893314540E+00  3.1133225764113E-01
    76  7.5000000000000E-01  1.2134073573443E+00  2.7258113970191E-01
    77  7.6000000000000E-01  1.2586098526596E+00  2.3805093380684E-01
    78  7.7000000000000E-01  1.2990519673595E+00  2.0871572345982E-01
    79  7.8000000000000E-01  1.3339655578807E+00  1.8544908824213E-01
    80  7.9000000000000E-01  1.3626768937024E+00  1.6900300890300E-01
    81  8.0000000000000E-01  1.3846225688056E+00  1.5998911043942E-01
    82  8.1000000000000E-01  1.3993632470877E+00  1.5886268905098E-01
    83  8.2000000000000E-01  1.4065949132627E+00  1.6590991430895E-01
    84  8.3000000000000E-01  1.4061573508403E+00  1.8123853415740E-01
    85  8.4000000000000E-01  1.3980396254231E+00  2.0477233874466E-01
    86  8.5000000000000E-01  1.3823824136456E+00  2.3624956102775E-01
    87  8.6000000000000E-01  1.3594770843003E+00  2.7522530921276E-01
    88  8.7000000000000E-01  1.3297615071887E+00  3.2107804012598E-01
    89  8.8000000000000E-01  1.2938126355284E+00  3.7301999537129E-01
    90  8.9000000000000E-01  1.2523359778463E+00  4.3011143548343E-01
    91  9.0000000000000E-01  1.2061521436878E+00  4.9127842310326E-01
    92  9.1000000000000E-01  1.1561807126861E+00  5.5533382631656E-01
    93  9.2000000000000E-01  1.1034217371272E+00  6.2100113947446E-01
    94  9.3000000000000E-01  1.0489352427850E+00  6.8694065269805E-01
    95  9.4000000000000E-01  9.9381914023887E-01  7.5177744437481E-01
    96  9.5000000000000E-01  9.3918599805648E-01  8.1413062457694E-01
    97  9.6000000000000E-01  8.8613915919075E-01  8.7264322260773E-01
    98  9.7000000000000E-01  8.3574870197938E-01  9.2601208965961E-01
    99  9.8000000000000E-01  7.8902775671722E-01  9.7301717847389E-01
   100  9.9000000000000E-01  7.4690968759604E-01  1.0125495662487E+00
   101  1.0000000000000E+00  7.1022663777475E-01  1.0436376049285E+00
   102  1.0100000000000E+00  6.7968991260996E-01  1.0654706141834E+00
   103  1.0200000000000E+00  6.5587264304081E-01  1.0774195763095E+00
   104  1.0300000000000E+00  6.3919512833902E-01  1.0790543482088E+00
   105  1.0400000000000E+00  6.2991320572415E-01  1.0701569724868E+00
   106  1.0500000000000E+00  6.2810993479454E-01  1.0507307461212E+00
   107  1.0600000000000E+00  6.3369081835141E-01  1.0210047898253E+00
   108  1.0700000000000E+00  6.4638270947506E-01  9.8143395226403E-01
   109  1.0800000000000E+00  6.6573647914156E-01  9.3269397879356E-01
   110  1.0900000000000E+00  6.9113344049712E-01  8.7567197281171E-01
   111  1.1000000000000E+00  7.2179544730819E-01  8.1145227638567E-01
   112  1.1100000000000E+00  7.5679850603953E-01  7.4129799437016E-01
   113  1.1200000000000E+00  7.9508966580961E-01  6.6662847982311E-01
   114  1.1300000000000E+00  8.3550687915222E-01  5.8899318690077E-01
   115  1.1400000000000E+00  8.7680146105384E-01  5.1004237810940E-01
   116  1.1500000000000E+00  9.1766271523343E-01  4.3149524445006E-01
   117  1.1600000000000E+00  9.5674424662785E-01  3.5510605771589E-01
   118  1.1700000000000E+00  9.9269143843367E-01  2.8262902289168E-01
   119  1.1800000000000E+00  1.0241695419967E+00  2.1578253385662E-01
   120  1.1900000000000E+00  1.0498918088335E+00  1.5621355679085E-01
   121  1.2000000000000E+00  1.0686470867709E+00  1.0546287208901E-01
   122  1.2100000000000E+00  1.0793263068106E+00  6.4931896921610E-02
   123  1.2200000000000E+00  1.0809473037712E+00  3.5851787070761E-02
   124  1.2300000000000E+00  1.0726774419541E+00  1.9255478397780E-02
   125  1.2400000000000E+00  1.0538535565214E+00  1.5953275969429E-02
   126  1.2500000000000E+00  1.0239987708406E+00  2.6512533942403E-02
   127  1.2600000000000E+00  9.8283580967850E-01  5.1241891852964E-02