Ca    ONCVPSP-4.0.1  r_core=   1.45424   1.45424   1.85846
     20.0000     10.0000      250217    zatom,zion,pspd
     8       2   2     4   400     0    pspcod,pspxc,lmax,lloc,mmax,r2well
  3.99000000  6.00000000  0.00000000    rchrg fchrg qchrg
     2     2     2     0    nproj
     3     1           extension_switch
     4     3     0    nprojso
   0                         9.9353011794666E+00  9.3487424038743E-01
     1  0.0000000000000E+00  7.0797201434658E-10 -2.4741058923805E-09
     2  1.0000000000000E-02  6.8566556691913E-02 -3.1602289882641E-02
     3  2.0000000000000E-02  1.3701646441266E-01 -6.3103425293700E-02
     4  3.0000000000000E-02  2.0523298049174E-01 -9.4401496981708E-02
     5  4.0000000000000E-02  2.7309918296570E-01 -1.2539311397516E-01
     6  5.0000000000000E-02  3.4049790100932E-01 -1.5597273166842E-01
     7  6.0000000000000E-02  4.0731166894114E-01 -1.8603206082722E-01
     8  7.0000000000000E-02  4.7342271080849E-01 -2.1545958150331E-01
     9  8.0000000000000E-02  5.3871296184921E-01 -2.4414018337370E-01
    10  9.0000000000000E-02  6.0306413227083E-01 -2.7195495102986E-01
    11  1.0000000000000E-01  6.6635781780059E-01 -2.9878110930045E-01
    12  1.1000000000000E-01  7.2847566036342E-01 -3.2449213987342E-01
    13  1.2000000000000E-01  7.8929956106142E-01 -3.4895807637243E-01
    14  1.3000000000000E-01  8.4871194638419E-01 -3.7204598072855E-01
    15  1.4000000000000E-01  9.0659608729954E-01 -3.9362059926625E-01
    16  1.5000000000000E-01  9.6283646958740E-01 -4.1354519248921E-01
    17  1.6000000000000E-01  1.0173192125121E+00 -4.3168252820603E-01
    18  1.7000000000000E-01  1.0699325317084E+00 -4.4789602347424E-01
    19  1.8000000000000E-01  1.1205672410091E+00 -4.6205101695662E-01
    20  1.9000000000000E-01  1.1691172868946E+00 -4.7401614976511E-01
    21  2.0000000000000E-01  1.2154803083161E+00 -4.8366482979496E-01
    22  2.1000000000000E-01  1.2595582138597E+00 -4.9087675199623E-01
    23  2.2000000000000E-01  1.3012577675909E+00 -4.9553944505299E-01
    24  2.3000000000000E-01  1.3404911744678E+00 -4.9754981359177E-01
    25  2.4000000000000E-01  1.3771766559425E+00 -4.9681564435348E-01
    26  2.5000000000000E-01  1.4112390062931E+00 -4.9325704476332E-01
    27  2.6000000000000E-01  1.4426101203482E+00 -4.8680778302336E-01
    28  2.7000000000000E-01  1.4712294835761E+00 -4.7741650022964E-01
    29  2.8000000000000E-01  1.4970446160119E+00 -4.6504776705427E-01
    30  2.9000000000000E-01  1.5200114621757E+00 -4.4968296019850E-01
    31  3.0000000000000E-01  1.5400947199806E+00 -4.3132093706402E-01
    32  3.1000000000000E-01  1.5572681026270E+00 -4.0997849084333E-01
    33  3.2000000000000E-01  1.5715145286065E+00 -3.8569057242198E-01
    34  3.3000000000000E-01  1.5828262361735E+00 -3.5851027003026E-01
    35  3.4000000000000E-01  1.5912048199632E+00 -3.2850854238594E-01
    36  3.5000000000000E-01  1.5966611888060E+00 -2.9577370603406E-01
    37  3.6000000000000E-01  1.5992154451951E+00 -2.6041068260882E-01
    38  3.7000000000000E-01  1.5988966882620E+00 -2.2254001671009E-01
    39  3.8000000000000E-01  1.5957427434891E+00 -1.8229667989594E-01
    40  3.9000000000000E-01  1.5897998236980E+00 -1.3982868083769E-01
    41  4.0000000000000E-01  1.5811221270806E+00 -9.5295505864414E-02
    42  4.1000000000000E-01  1.5697713791489E+00 -4.8866417846310E-02
    43  4.2000000000000E-01  1.5558163264572E+00 -7.1864454344174E-04
    44  4.3000000000000E-01  1.5393321907635E+00  4.8964509894937E-02
    45  4.4000000000000E-01  1.5204000929399E+00  9.9995594720483E-02
    46  4.5000000000000E-01  1.4991064563846E+00  1.5218494696240E-01
    47  4.6000000000000E-01  1.4755423999379E+00  2.0534259331204E-01
    48  4.7000000000000E-01  1.4498031303370E+00  2.5928008284779E-01
    49  4.8000000000000E-01  1.4219873440709E+00  3.1381221513246E-01
    50  4.9000000000000E-01  1.3921966481110E+00  3.6875863019002E-01
    51  5.0000000000000E-01  1.3605350084061E+00  4.2394522958921E-01
    52  5.1000000000000E-01  1.3271082342511E+00  4.7920540127874E-01
    53  5.2000000000000E-01  1.2920235056815E+00  5.3438102487399E-01
    54  5.3000000000000E-01  1.2553889499341E+00  5.8932323870970E-01
    55  5.4000000000000E-01  1.2173132717644E+00  6.4389295505792E-01
    56  5.5000000000000E-01  1.1779054410507E+00  6.9796111536731E-01
    57  5.6000000000000E-01  1.1372744396789E+00  7.5140868309531E-01
    58  5.7000000000000E-01  1.0955290682080E+00  8.0412637756484E-01
    59  5.8000000000000E-01  1.0527778113076E+00  8.5601415815801E-01
    60  5.9000000000000E-01  1.0091287594638E+00  9.0698047393715E-01
    61  6.0000000000000E-01  9.6468958299703E-01  9.5694129933356E-01
    62  6.1000000000000E-01  9.1956755306717E-01  1.0058189817454E+00
    63  6.2000000000000E-01  8.7386960307778E-01  1.0535409316211E+00
    64  6.3000000000000E-01  8.2770242276935E-01  1.1000381897634E+00
    65  6.4000000000000E-01  7.8117257633380E-01  1.1452439100777E+00
    66  6.5000000000000E-01  7.3438663511498E-01  1.1890917987115E+00
    67  6.6000000000000E-01  6.8745131490025E-01  1.2315145524262E+00
    68  6.7000000000000E-01  6.4047360747475E-01  1.2724423400468E+00
    69  6.8000000000000E-01  5.9356089601158E-01  1.3118013709087E+00
    70  6.9000000000000E-01  5.4682104401666E-01  1.3495125933491E+00
    71  7.0000000000000E-01  5.0036244793639E-01  1.3854905644669E+00
    72  7.1000000000000E-01  4.5429404416643E-01  1.4196425296165E+00
    73  7.2000000000000E-01  4.0872526206310E-01  1.4518677464541E+00
    74  7.3000000000000E-01  3.6376591563965E-01  1.4820570838625E+00
    75  7.4000000000000E-01  3.1952602791132E-01  1.5100929208327E+00
    76  7.5000000000000E-01  2.7611558331157E-01  1.5358493644541E+00
    77  7.6000000000000E-01  2.3364420520998E-01  1.5591927996808E+00
    78  7.7000000000000E-01  1.9222075729031E-01  1.5799827766114E+00
    79  7.8000000000000E-01  1.5195286935985E-01  1.5980732337796E+00
    80  7.9000000000000E-01  1.1294639002334E-01  1.6133140485432E+00
    81  8.0000000000000E-01  7.5304770528405E-02  1.6255528982267E+00
    82  8.1000000000000E-01  3.9128385934350E-02  1.6346374083697E+00
    83  8.2000000000000E-01  4.5138015353526E-03  1.6404175574100E+00
    84  8.3000000000000E-01 -2.8447005857910E-02  1.6427483005281E+00
    85  8.4000000000000E-01 -5.9667460643589E-02  1.6414923693592E+00
    86  8.5000000000000E-01 -8.9067222673119E-02  1.6365231989488E+00
    87  8.6000000000000E-01 -1.1657302938378E-01  1.6277279288325E+00
    88  8.7000000000000E-01 -1.4211953128310E-01  1.6150104215569E+00
    89  8.8000000000000E-01 -1.6565010560622E-01  1.5982942394168E+00
    90  8.9000000000000E-01 -1.8711763260635E-01  1.5775255187491E+00
    91  9.0000000000000E-01 -2.0648521887433E-01  1.5526756808306E+00
    92  9.1000000000000E-01 -2.2372685232279E-01  1.5237439193242E+00
    93  9.2000000000000E-01 -2.3882797401858E-01  1.4907594063021E+00
    94  9.3000000000000E-01 -2.5178595289838E-01  1.4537831621350E+00
    95  9.4000000000000E-01 -2.6261045054860E-01  1.4129095389344E+00
    96  9.5000000000000E-01 -2.7132366465615E-01  1.3682672727095E+00
    97  9.6000000000000E-01 -2.7796044141984E-01  1.3200200658656E+00
    98  9.7000000000000E-01 -2.8256824912629E-01  1.2683666690279E+00
    99  9.8000000000000E-01 -2.8520700720820E-01  1.2135404392907E+00
   100  9.9000000000000E-01 -2.8594876737990E-01  1.1558083607411E+00
   101  1.0000000000000E+00 -2.8487724584554E-01  1.0954695223181E+00
   102  1.0100000000000E+00 -2.8208720805414E-01  1.0328530575823E+00
   103  1.0200000000000E+00 -2.7768370999228E-01  9.6831556062026E-01
   104  1.0300000000000E+00 -2.7178120250632E-01  9.0223800190160E-01
   105  1.0400000000000E+00 -2.6450250758780E-01  8.3502217725316E-01
   106  1.0500000000000E+00 -2.5597767789213E-01  7.6708673206671E-01
   107  1.0600000000000E+00 -2.4634275294211E-01  6.9886281119813E-01
   108  1.0700000000000E+00 -2.3573842745203E-01  6.3078939260020E-01
   109  1.0800000000000E+00 -2.2430864895836E-01  5.6330836941281E-01
   110  1.0900000000000E+00 -2.1219916341387E-01  4.9685945084014E-01
   111  1.1000000000000E+00 -1.9955602857117E-01  4.3187495658976E-01
   112  1.1100000000000E+00 -1.8652411581430E-01  3.6877458280187E-01
   113  1.1200000000000E+00 -1.7324562157723E-01  3.0796021919573E-01
   114  1.1300000000000E+00 -1.5985860959835E-01  2.4981089754224E-01
   115  1.1400000000000E+00 -1.4649560499502E-01  1.9467795051362E-01
   116  1.1500000000000E+00 -1.3328226049761E-01  1.4288045744962E-01
   117  1.1600000000000E+00 -1.2033611416988E-01  9.4701049660454E-02
   118  1.1700000000000E+00 -1.0776545656738E-01  5.0382142582002E-02
   119  1.1800000000000E+00 -9.5668323576914E-02  1.0122655517634E-02
   120  1.1900000000000E+00 -8.4131629158355E-02 -2.5924728071292E-02
   121  1.2000000000000E+00 -7.3230449905054E-02 -5.7655715618861E-02
   122  1.2100000000000E+00 -6.3027470807592E-02 -8.5015941458999E-02
   123  1.2200000000000E+00 -5.3572598853910E-02 -1.0800185993883E-01
   124  1.2300000000000E+00 -4.4902748224385E-02 -1.2666098281234E-01
   125  1.2400000000000E+00 -3.7041797843967E-02 -1.4109145955837E-01
   126  1.2500000000000E+00 -3.0000719017653E-02 -1.5144101088133E-01
   127  1.2600000000000E+00 -2.3777867860772E-02 -1.5790523717863E-01
   128  1.2700000000000E+00 -1.8359434254433E-02 -1.6072533514571E-01
   129  1.2800000000000E+00 -1.3720036216277E-02 -1.6018526652848E-01
   130  1.2900000000000E+00 -9.8234458846389E-03 -1.5660843331477E-01
   131  1.3000000000000E+00 -6.6234330138410E-03 -1.5035391168697E-01
   132  1.3100000000000E+00 -4.0646937904615E-03 -1.4181238882201E-01
   133  1.3200000000000E+00 -2.0844104596086E-03 -1.3139893981641E-01
   134  1.3300000000000E+00 -6.1523998086349E-04 -1.1953869881131E-01
   135  1.3400000000000E+00  4.1244179920717E-04 -1.0665689673146E-01
   136  1.3500000000000E+00  1.0691331672516E-03 -9.3173374655055E-02
   137  1.3600000000000E+00  1.4232619517275E-03 -7.9489498474956E-02
   138  1.3700000000000E+00  1.5438385258459E-03 -6.6002753309619E-02
   139  1.3800000000000E+00  1.4290953617589E-03 -5.2755925237016E-02
   140  1.3900000000000E+00  1.2384495546808E-03 -4.0594767904137E-02
   141  1.4000000000000E+00  9.7568175005606E-04 -2.9589977552056E-02
   142  1.4100000000000E+00  6.9443691902591E-04 -2.0040405781836E-02
   143  1.4200000000000E+00  4.3265202124622E-04 -1.2168257568780E-02
   144  1.4300000000000E+00  2.1984964207108E-04 -6.1565464586905E-03
   145  1.4400000000000E+00  7.4697267575279E-05 -2.1261544972223E-03
   146  1.4500000000000E+00  7.6375069841835E-06 -2.2633427130903E-04
   147  1.4600000000000E+00 -9.2046915802373E-07  2.7823455192591E-05
   148  1.4700000000000E+00  2.0790719775579E-07 -6.1447948022143E-06
   149  1.48  0.  0.
   150  1.49  0.  0.
   151  1.50  0.  0.
   152  1.51  0.  0.
   153  1.52  0.  0.
   154  1.53  0.  0.
   155  1.54  0.  0.
   156  1.55  0.  0.
   157  1.56  0.  0.
   158  1.57  0.  0.
   159  1.58  0.  0.
   160  1.59  0.  0.
   161  1.60  0.  0.
   162  1.61  0.  0.
   163  1.62  0.  0.
   164  1.63  0.  0.
   165  1.64  0.  0.
   166  1.65  0.  0.
   167  1.66  0.  0.
   168  1.67  0.  0.
   169  1.68  0.  0.
   170  1.69  0.  0.
   171  1.70  0.  0.
   172  1.71  0.  0.
   173  1.72  0.  0.
   174  1.73  0.  0.
   175  1.74  0.  0.
   176  1.75  0.  0.
   177  1.76  0.  0.
   178  1.77  0.  0.
   179  1.78  0.  0.
   180  1.79  0.  0.
   181  1.80  0.  0.
   182  1.81  0.  0.
   183  1.82  0.  0.
   184  1.83  0.  0.
   185  1.84  0.  0.
   186  1.85  0.  0.
   187  1.86  0.  0.
   188  1.87  0.  0.
   189  1.88  0.  0.
   190  1.89  0.  0.
   191  1.90  0.  0.
   192  1.91  0.  0.
   193  1.92  0.  0.
   194  1.93  0.  0.
   195  1.94  0.  0.
   196  1.95  0.  0.
   197  1.96  0.  0.
   198  1.97  0.  0.
   199  1.98  0.  0.
   200  1.99  0.  0.
   201  2.00  0.  0.
   202  2.01  0.  0.
   203  2.02  0.  0.
   204  2.03  0.  0.
   205  2.04  0.  0.
   206  2.05  0.  0.
   207  2.06  0.  0.
   208  2.07  0.  0.
   209  2.08  0.  0.
   210  2.09  0.  0.
   211  2.10  0.  0.
   212  2.11  0.  0.
   213  2.12  0.  0.
   214  2.13  0.  0.
   215  2.14  0.  0.
   216  2.15  0.  0.
   217  2.16  0.  0.
   218  2.17  0.  0.
   219  2.18  0.  0.
   220  2.19  0.  0.
   221  2.20  0.  0.
   222  2.21  0.  0.
   223  2.22  0.  0.
   224  2.23  0.  0.
   225  2.24  0.  0.
   226  2.25  0.  0.
   227  2.26  0.  0.
   228  2.27  0.  0.
   229  2.28  0.  0.
   230  2.29  0.  0.
   231  2.30  0.  0.
   232  2.31  0.  0.
   233  2.32  0.  0.
   234  2.33  0.  0.
   235  2.34  0.  0.
   236  2.35  0.  0.
   237  2.36  0.  0.
   238  2.37  0.  0.
   239  2.38  0.  0.
   240  2.39  0.  0.
   241  2.40  0.  0.
   242  2.41  0.  0.
   243  2.42  0.  0.
   244  2.43  0.  0.
   245  2.44  0.  0.
   246  2.45  0.  0.
   247  2.46  0.  0.
   248  2.47  0.  0.
   249  2.48  0.  0.
   250  2.49  0.  0.
   251  2.50  0.  0.
   252  2.51  0.  0.
   253  2.52  0.  0.
   254  2.53  0.  0.
   255  2.54  0.  0.
   256  2.55  0.  0.
   257  2.56  0.  0.
   258  2.57  0.  0.
   259  2.58  0.  0.
   260  2.59  0.  0.
   261  2.60  0.  0.
   262  2.61  0.  0.
   263  2.62  0.  0.
   264  2.63  0.  0.
   265  2.64  0.  0.
   266  2.65  0.  0.
   267  2.66  0.  0.
   268  2.67  0.  0.
   269  2.68  0.  0.
   270  2.69  0.  0.
   271  2.70  0.  0.
   272  2.71  0.  0.
   273  2.72  0.  0.
   274  2.73  0.  0.
   275  2.74  0.  0.
   276  2.75  0.  0.
   277  2.76  0.  0.
   278  2.77  0.  0.
   279  2.78  0.  0.
   280  2.79  0.  0.
   281  2.80  0.  0.
   282  2.81  0.  0.
   283  2.82  0.  0.
   284  2.83  0.  0.
   285  2.84  0.  0.
   286  2.85  0.  0.
   287  2.86  0.  0.
   288  2.87  0.  0.
   289  2.88  0.  0.
   290  2.89  0.  0.
   291  2.90  0.  0.
   292  2.91  0.  0.
   293  2.92  0.  0.
   294  2.93  0.  0.
   295  2.94  0.  0.
   296  2.95  0.  0.
   297  2.96  0.  0.
   298  2.97  0.  0.
   299  2.98  0.  0.
   300  2.99  0.  0.
   301  3.00  0.  0.
   302  3.01  0.  0.
   303  3.02  0.  0.
   304  3.03  0.  0.
   305  3.04  0.  0.
   306  3.05  0.  0.
   307  3.06  0.  0.
   308  3.07  0.  0.
   309  3.08  0.  0.
   310  3.09  0.  0.
   311  3.10  0.  0.
   312  3.11  0.  0.
   313  3.12  0.  0.
   314  3.13  0.  0.
   315  3.14  0.  0.
   316  3.15  0.  0.
   317  3.16  0.  0.
   318  3.17  0.  0.
   319  3.18  0.  0.
   320  3.19  0.  0.
   321  3.20  0.  0.
   322  3.21  0.  0.
   323  3.22  0.  0.
   324  3.23  0.  0.
   325  3.24  0.  0.
   326  3.25  0.  0.
   327  3.26  0.  0.
   328  3.27  0.  0.
   329  3.28  0.  0.
   330  3.29  0.  0.
   331  3.30  0.  0.
   332  3.31  0.  0.
   333  3.32  0.  0.
   334  3.33  0.  0.
   335  3.34  0.  0.
   336  3.35  0.  0.
   337  3.36  0.  0.
   338  3.37  0.  0.
   339  3.38  0.  0.
   340  3.39  0.  0.
   341  3.40  0.  0.
   342  3.41  0.  0.
   343  3.42  0.  0.
   344  3.43  0.  0.
   345  3.44  0.  0.
   346  3.45  0.  0.
   347  3.46  0.  0.
   348  3.47  0.  0.
   349  3.48  0.  0.
   350  3.49  0.  0.
   351  3.50  0.  0.
   352  3.51  0.  0.
   353  3.52  0.  0.
   354  3.53  0.  0.
   355  3.54  0.  0.
   356  3.55  0.  0.
   357  3.56  0.  0.
   358  3.57  0.  0.
   359  3.58  0.  0.
   360  3.59  0.  0.
   361  3.60  0.  0.
   362  3.61  0.  0.
   363  3.62  0.  0.
   364  3.63  0.  0.
   365  3.64  0.  0.
   366  3.65  0.  0.
   367  3.66  0.  0.
   368  3.67  0.  0.
   369  3.68  0.  0.
   370  3.69  0.  0.
   371  3.70  0.  0.
   372  3.71  0.  0.
   373  3.72  0.  0.
   374  3.73  0.  0.
   375  3.74  0.  0.
   376  3.75  0.  0.
   377  3.76  0.  0.
   378  3.77  0.  0.
   379  3.78  0.  0.
   380  3.79  0.  0.
   381  3.80  0.  0.
   382  3.81  0.  0.
   383  3.82  0.  0.
   384  3.83  0.  0.
   385  3.84  0.  0.
   386  3.85  0.  0.
   387  3.86  0.  0.
   388  3.87  0.  0.
   389  3.88  0.  0.
   390  3.89  0.  0.
   391  3.90  0.  0.
   392  3.91  0.  0.
   393  3.92  0.  0.
   394  3.93  0.  0.
   395  3.94  0.  0.
   396  3.95  0.  0.
   397  3.96  0.  0.
   398  3.97  0.  0.
   399  3.98  0.  0.
   400  3.99  0.  0.
   1                         2.9255901701835E+00  4.2959813364817E-01
     1  0.0000000000000E+00 -4.9324934137118E-09  1.1467914264041E-08
     2  1.0000000000000E-02  1.6373702232602E-03 -4.8588817041493E-04
     3  2.0000000000000E-02  6.5463114533140E-03 -1.9469713590280E-03
     4  3.0000000000000E-02  1.4717223923449E-02 -4.3932651360081E-03
     5  4.0000000000000E-02  2.6133806282691E-02 -7.8406677596464E-03
     6  5.0000000000000E-02  4.0772613704613E-02 -1.2309793585079E-02
     7  6.0000000000000E-02  5.8602460391517E-02 -1.7824389063191E-02
     8  7.0000000000000E-02  7.9583686967278E-02 -2.4409379016311E-02
     9  8.0000000000000E-02  1.0366731818466E-01 -3.2088602345245E-02
    10  9.0000000000000E-02  1.3079414064444E-01 -4.0882306245761E-02
    11  1.0000000000000E-01  1.6089373372069E-01 -5.0804476127735E-02
    12  1.1000000000000E-01  1.9388348951456E-01 -6.1860084518955E-02
    13  1.2000000000000E-01  2.2966765934519E-01 -7.4042346128025E-02
    14  1.3000000000000E-01  2.6813646497971E-01 -8.7330067823541E-02
    15  1.4000000000000E-01  3.0916531247972E-01 -1.0168518150271E-01
    16  1.5000000000000E-01  3.5261414519790E-01 -1.1705054467387E-01
    17  1.6000000000000E-01  3.9832697012018E-01 -1.3334808812666E-01
    18  1.7000000000000E-01  4.4613158846466E-01 -1.5047738242964E-01
    19  1.8000000000000E-01  4.9583955729191E-01 -1.6831468535421E-01
    20  1.9000000000000E-01  5.4724640394617E-01 -1.8671252090200E-01
    21  2.0000000000000E-01  6.0013210954840E-01 -2.0549982768373E-01
    22  2.1000000000000E-01  6.5426187163156E-01 -2.2448270027345E-01
    23  2.2000000000000E-01  7.0938714949215E-01 -2.4344573218906E-01
    24  2.3000000000000E-01  7.6524698908518E-01 -2.6215395369584E-01
    25  2.4000000000000E-01  8.2156961747795E-01 -2.8035534208109E-01
    26  2.5000000000000E-01  8.7807429016527E-01 -2.9778386679442E-01
    27  2.6000000000000E-01  9.3447336810276E-01 -3.1416301727691E-01
    28  2.7000000000000E-01  9.9047459529530E-01 -3.2920974778864E-01
    29  2.8000000000000E-01  1.0457835423366E+00 -3.4263876143907E-01
    30  2.9000000000000E-01  1.1001061765732E+00 -3.5416704525080E-01
    31  3.0000000000000E-01  1.1531515156853E+00 -3.6351855972467E-01
    32  3.1000000000000E-01  1.2046343185411E+00 -3.7042898026173E-01
    33  3.2000000000000E-01  1.2542777652761E+00 -3.7465038411565E-01
    34  3.3000000000000E-01  1.3018160777315E+00 -3.7595577542569E-01
    35  3.4000000000000E-01  1.3469970316870E+00 -3.7414334237978E-01
    36  3.5000000000000E-01  1.3895843137602E+00 -3.6904034468042E-01
    37  3.6000000000000E-01  1.4293596783794E+00 -3.6050653617181E-01
    38  3.7000000000000E-01  1.4661248638465E+00 -3.4843703660757E-01
    39  3.8000000000000E-01  1.4997032310953E+00 -3.3276457790961E-01
    40  3.9000000000000E-01  1.5299410942372E+00 -3.1346106364517E-01
    41  4.0000000000000E-01  1.5567087182479E+00 -2.9053839553562E-01
    42  4.1000000000000E-01  1.5799009660435E+00 -2.6404853726619E-01
    43  4.2000000000000E-01  1.5994375845682E+00 -2.3408280331180E-01
    44  4.3000000000000E-01  1.6152631272056E+00 -2.0077037852177E-01
    45  4.4000000000000E-01  1.6273465176440E+00 -1.6427609238906E-01
    46  4.5000000000000E-01  1.6356802681008E+00 -1.2479748982906E-01
    47  4.6000000000000E-01  1.6402793723499E+00 -8.2561257473331E-02
    48  4.7000000000000E-01  1.6411799011223E+00 -3.7819080518692E-02
    49  4.8000000000000E-01  1.6384373339976E+00  9.1569803426019E-03
    50  4.9000000000000E-01  1.6321246676970E+00  5.8079489822056E-02
    51  5.0000000000000E-01  1.6223303455996E+00  1.0865090436504E-01
    52  5.1000000000000E-01  1.6091560571991E+00  1.6056898374211E-01
    53  5.2000000000000E-01  1.5927144589914E+00  2.1353222272401E-01
    54  5.3000000000000E-01  1.5731268698689E+00  2.6724517558338E-01
    55  5.4000000000000E-01  1.5505209944357E+00  3.2142354711135E-01
    56  5.5000000000000E-01  1.5250287267312E+00  3.7579892783149E-01
    57  5.6000000000000E-01  1.4967840846654E+00  4.3012305809242E-01
    58  5.7000000000000E-01  1.4659213220731E+00  4.8417151560345E-01
    59  5.8000000000000E-01  1.4325732607381E+00  5.3774673355635E-01
    60  5.9000000000000E-01  1.3968698791390E+00  5.9068027149418E-01
    61  6.0000000000000E-01  1.3589371881280E+00  6.4283427822800E-01
    62  6.1000000000000E-01  1.3188964164313E+00  6.9410210498907E-01
    63  6.2000000000000E-01  1.2768635209161E+00  7.4440804721904E-01
    64  6.3000000000000E-01  1.2329490281811E+00  7.9370621448341E-01
    65  6.4000000000000E-01  1.1872582054067E+00  8.4197854945829E-01
    66  6.5000000000000E-01  1.1398915497266E+00  8.8923203828342E-01
    67  6.6000000000000E-01  1.0909455768877E+00  9.3549517528677E-01
    68  6.7000000000000E-01  1.0405138818331E+00  9.8081376466522E-01
    69  6.8000000000000E-01  9.8868843628979E-01  1.0252461596688E+00
    70  6.9000000000000E-01  9.3556108164637E-01  1.0688580557272E+00
    71  7.0000000000000E-01  8.8122516954496E-01  1.1117169673672E+00
    72  7.1000000000000E-01  8.2577729784053E-01  1.1538865293305E+00
    73  7.2000000000000E-01  7.6931908602502E-01  1.1954207697228E+00
    74  7.3000000000000E-01  7.1195893198194E-01  1.2363585070611E+00
    75  7.4000000000000E-01  6.5381369109977E-01  1.2767180235911E+00
    76  7.5000000000000E-01  5.9501021937317E-01  1.3164921641359E+00
    77  7.6000000000000E-01  5.3568672416790E-01  1.3556440030199E+00
    78  7.7000000000000E-01  4.7599386979455E-01  1.3941032113681E+00
    79  7.8000000000000E-01  4.1609558986785E-01  1.4317632435011E+00
    80  7.9000000000000E-01  3.5616956453334E-01  1.4684794444555E+00
    81  8.0000000000000E-01  2.9640732789660E-01  1.5040681612172E+00
    82  8.1000000000000E-01  2.3701397924436E-01  1.5383069184285E+00
    83  8.2000000000000E-01  1.7820748072202E-01  1.5709356956042E+00
    84  8.3000000000000E-01  1.2021753383339E-01  1.6016593177587E+00
    85  8.4000000000000E-01  6.3284037237399E-02  1.6301509453673E+00
    86  8.5000000000000E-01  7.6551386066355E-03  1.6560566233357E+00
    87  8.6000000000000E-01 -4.6415096453124E-02  1.6790008227315E+00
    88  8.7000000000000E-01 -9.8669365482803E-02  1.6985928840358E+00
    89  8.8000000000000E-01 -1.4885011789872E-01  1.7144342471875E+00
    90  8.9000000000000E-01 -1.9670280036397E-01  1.7261263322879E+00
    91  9.0000000000000E-01 -2.4197930010972E-01  1.7332789160235E+00
    92  9.1000000000000E-01 -2.8444152098953E-01  1.7355188331272E+00
    93  9.2000000000000E-01 -3.2386502185774E-01  1.7324988199527E+00
    94  9.3000000000000E-01 -3.6004264314625E-01  1.7239063088105E+00
    95  9.4000000000000E-01 -3.9278804538253E-01  1.7094719773720E+00
    96  9.5000000000000E-01 -4.2193908292241E-01  1.6889778573699E+00
    97  9.6000000000000E-01 -4.4736093740388E-01  1.6622648110663E+00
    98  9.7000000000000E-01 -4.6894893836386E-01  1.6292391925287E+00
    99  9.8000000000000E-01 -4.8663100306305E-01  1.5898785235177E+00
   100  9.9000000000000E-01 -5.0036963375910E-01  1.5442360305448E+00
   101  1.0000000000000E+00 -5.1016341834595E-01  1.4924439101078E+00
   102  1.0100000000000E+00 -5.1604798928149E-01  1.4347152128334E+00
   103  1.0200000000000E+00 -5.1809640589595E-01  1.3713442638434E+00
   104  1.0300000000000E+00 -5.1641893628584E-01  1.3027055655120E+00
   105  1.0400000000000E+00 -5.1116222682260E-01  1.2292511593201E+00
   106  1.0500000000000E+00 -5.0250785961096E-01  1.1515064551337E+00
   107  1.0600000000000E+00 -4.9067031073340E-01  1.0700645682091E+00
   108  1.0700000000000E+00 -4.7589433454024E-01  9.8557923586329E-01
   109  1.0800000000000E+00 -4.5845181135844E-01  8.9875641645267E-01
   110  1.0900000000000E+00 -4.3863810745356E-01  8.1034470220994E-01
   111  1.1000000000000E+00 -4.1676800670999E-01  7.2112470415281E-01
   112  1.1100000000000E+00 -3.9317128298708E-01  6.3189759092299E-01
   113  1.1200000000000E+00 -3.6818799027976E-01  5.4347298358459E-01
   114  1.1300000000000E+00 -3.4216355445632E-01  4.5665642459613E-01
   115  1.1400000000000E+00 -3.1544375529344E-01  3.7223665095581E-01
   116  1.1500000000000E+00 -2.8836969066639E-01  2.9097290862615E-01
   117  1.1600000000000E+00 -2.6127281598073E-01  2.1358254754006E-01
   118  1.1700000000000E+00 -2.3447015120554E-01  1.4072913367042E-01
   119  1.1800000000000E+00 -2.0825974518650E-01  7.3011306829042E-02
   120  1.1900000000000E+00 -1.8291648231594E-01  1.0952600151422E-02
   121  1.2000000000000E+00 -1.5868831017495E-01 -4.5007580213139E-02
   122  1.2100000000000E+00 -1.3579295862822E-01 -9.4521638352491E-02
   123  1.2200000000000E+00 -1.1441521107440E-01 -1.3733998374707E-01
   124  1.2300000000000E+00 -9.4704777510308E-02 -1.7331561627667E-01
   125  1.2400000000000E+00 -7.6774806797544E-02 -2.0240701107228E-01
   126  1.2500000000000E+00 -6.0701062383006E-02 -2.2467924738515E-01
   127  1.2600000000000E+00 -4.6521772043015E-02 -2.4030336113061E-01
   128  1.2700000000000E+00 -3.4238148077709E-02 -2.4955393733925E-01
   129  1.2800000000000E+00 -2.3815560327957E-02 -2.5280499500182E-01
   130  1.2900000000000E+00 -1.5185330558993E-02 -2.5052425242244E-01
   131  1.3000000000000E+00 -8.2471079112352E-03 -2.4326587690277E-01
   132  1.3100000000000E+00 -2.8717401070016E-03 -2.3166198951165E-01
   133  1.3200000000000E+00  1.0942655026739E-03 -2.1640835147450E-01
   134  1.3300000000000E+00  3.8210829600944E-03 -1.9823804042523E-01
   135  1.3400000000000E+00  5.4892166716355E-03 -1.7790185847887E-01
   136  1.3500000000000E+00  6.2846992655181E-03 -1.5615558558075E-01
   137  1.3600000000000E+00  6.3910126190322E-03 -1.3373483877534E-01
   138  1.3700000000000E+00  5.9924233336263E-03 -1.1137369088538E-01
   139  1.3800000000000E+00  5.1253302623679E-03 -8.9242864726227E-02
   140  1.3900000000000E+00  4.1483998680432E-03 -6.8776680790372E-02
   141  1.4000000000000E+00  3.0926258640558E-03 -5.0163993679206E-02
   142  1.4100000000000E+00  2.0922694560537E-03 -3.3964376482258E-02
   143  1.4200000000000E+00  1.2391127588753E-03 -2.0597413560426E-02
   144  1.4300000000000E+00  5.9594324126067E-04 -1.0399321971815E-02
   145  1.4400000000000E+00  1.9009600463645E-04 -3.5822791569738E-03
   146  1.4500000000000E+00  1.8192417018241E-05 -3.8390416208267E-04
   147  1.4600000000000E+00 -1.9022473149683E-06  4.5065976371015E-05
   148  1.4700000000000E+00  4.5987046744273E-07 -1.0072018749554E-05
   149  1.48  0.  0.
   150  1.49  0.  0.
   151  1.50  0.  0.
   152  1.51  0.  0.
   153  1.52  0.  0.
   154  1.53  0.  0.
   155  1.54  0.  0.
   156  1.55  0.  0.
   157  1.56  0.  0.
   158  1.57  0.  0.
   159  1.58  0.  0.
   160  1.59  0.  0.
   161  1.60  0.  0.
   162  1.61  0.  0.
   163  1.62  0.  0.
   164  1.63  0.  0.
   165  1.64  0.  0.
   166  1.65  0.  0.
   167  1.66  0.  0.
   168  1.67  0.  0.
   169  1.68  0.  0.
   170  1.69  0.  0.
   171  1.70  0.  0.
   172  1.71  0.  0.
   173  1.72  0.  0.
   174  1.73  0.  0.
   175  1.74  0.  0.
   176  1.75  0.  0.
   177  1.76  0.  0.
   178  1.77  0.  0.
   179  1.78  0.  0.
   180  1.79  0.  0.
   181  1.80  0.  0.
   182  1.81  0.  0.
   183  1.82  0.  0.
   184  1.83  0.  0.
   185  1.84  0.  0.
   186  1.85  0.  0.
   187  1.86  0.  0.
   188  1.87  0.  0.
   189  1.88  0.  0.
   190  1.89  0.  0.
   191  1.90  0.  0.
   192  1.91  0.  0.
   193  1.92  0.  0.
   194  1.93  0.  0.
   195  1.94  0.  0.
   196  1.95  0.  0.
   197  1.96  0.  0.
   198  1.97  0.  0.
   199  1.98  0.  0.
   200  1.99  0.  0.
   201  2.00  0.  0.
   202  2.01  0.  0.
   203  2.02  0.  0.
   204  2.03  0.  0.
   205  2.04  0.  0.
   206  2.05  0.  0.
   207  2.06  0.  0.
   208  2.07  0.  0.
   209  2.08  0.  0.
   210  2.09  0.  0.
   211  2.10  0.  0.
   212  2.11  0.  0.
   213  2.12  0.  0.
   214  2.13  0.  0.
   215  2.14  0.  0.
   216  2.15  0.  0.
   217  2.16  0.  0.
   218  2.17  0.  0.
   219  2.18  0.  0.
   220  2.19  0.  0.
   221  2.20  0.  0.
   222  2.21  0.  0.
   223  2.22  0.  0.
   224  2.23  0.  0.
   225  2.24  0.  0.
   226  2.25  0.  0.
   227  2.26  0.  0.
   228  2.27  0.  0.
   229  2.28  0.  0.
   230  2.29  0.  0.
   231  2.30  0.  0.
   232  2.31  0.  0.
   233  2.32  0.  0.
   234  2.33  0.  0.
   235  2.34  0.  0.
   236  2.35  0.  0.
   237  2.36  0.  0.
   238  2.37  0.  0.
   239  2.38  0.  0.
   240  2.39  0.  0.
   241  2.40  0.  0.
   242  2.41  0.  0.
   243  2.42  0.  0.
   244  2.43  0.  0.
   245  2.44  0.  0.
   246  2.45  0.  0.
   247  2.46  0.  0.
   248  2.47  0.  0.
   249  2.48  0.  0.
   250  2.49  0.  0.
   251  2.50  0.  0.
   252  2.51  0.  0.
   253  2.52  0.  0.
   254  2.53  0.  0.
   255  2.54  0.  0.
   256  2.55  0.  0.
   257  2.56  0.  0.
   258  2.57  0.  0.
   259  2.58  0.  0.
   260  2.59  0.  0.
   261  2.60  0.  0.
   262  2.61  0.  0.
   263  2.62  0.  0.
   264  2.63  0.  0.
   265  2.64  0.  0.
   266  2.65  0.  0.
   267  2.66  0.  0.
   268  2.67  0.  0.
   269  2.68  0.  0.
   270  2.69  0.  0.
   271  2.70  0.  0.
   272  2.71  0.  0.
   273  2.72  0.  0.
   274  2.73  0.  0.
   275  2.74  0.  0.
   276  2.75  0.  0.
   277  2.76  0.  0.
   278  2.77  0.  0.
   279  2.78  0.  0.
   280  2.79  0.  0.
   281  2.80  0.  0.
   282  2.81  0.  0.
   283  2.82  0.  0.
   284  2.83  0.  0.
   285  2.84  0.  0.
   286  2.85  0.  0.
   287  2.86  0.  0.
   288  2.87  0.  0.
   289  2.88  0.  0.
   290  2.89  0.  0.
   291  2.90  0.  0.
   292  2.91  0.  0.
   293  2.92  0.  0.
   294  2.93  0.  0.
   295  2.94  0.  0.
   296  2.95  0.  0.
   297  2.96  0.  0.
   298  2.97  0.  0.
   299  2.98  0.  0.
   300  2.99  0.  0.
   301  3.00  0.  0.
   302  3.01  0.  0.
   303  3.02  0.  0.
   304  3.03  0.  0.
   305  3.04  0.  0.
   306  3.05  0.  0.
   307  3.06  0.  0.
   308  3.07  0.  0.
   309  3.08  0.  0.
   310  3.09  0.  0.
   311  3.10  0.  0.
   312  3.11  0.  0.
   313  3.12  0.  0.
   314  3.13  0.  0.