Ca    ONCVPSP-4.0.1  r_core=   1.45424   1.45424   1.85846
     20.0000     10.0000      231019    zatom,zion,pspd
     8       2   2     4   400     0    pspcod,pspxc,lmax,lloc,mmax,r2well
  3.99000000  6.00000000  0.00000000    rchrg fchrg qchrg
     2     2     2     0     0    nproj
     1     1           extension_switch
   0                         9.9349548183889E+00  9.3504506508364E-01
     1  0.0000000000000E+00  7.0862071765987E-10 -2.4760491157405E-09
     2  1.0000000000000E-02  6.8572317609881E-02 -3.1597835753971E-02
     3  2.0000000000000E-02  1.3702797190744E-01 -6.3094549347823E-02
     4  3.0000000000000E-02  2.0525020562768E-01 -9.4388262852033E-02
     5  4.0000000000000E-02  2.7312208171368E-01 -1.2537561466150E-01
     6  5.0000000000000E-02  3.4052641351716E-01 -1.5595108666192E-01
     7  6.0000000000000E-02  4.0734571859579E-01 -1.8600641238415E-01
     8  7.0000000000000E-02  4.7346220311882E-01 -2.1543009015679E-01
     9  8.0000000000000E-02  5.3875778318447E-01 -2.4410702279091E-01
    10  9.0000000000000E-02  6.0311414849479E-01 -2.7191830233867E-01
    11  1.0000000000000E-01  6.6641287284598E-01 -2.9874115502295E-01
    12  1.1000000000000E-01  7.2853557479453E-01 -3.2444905761461E-01
    13  1.2000000000000E-01  7.8936413067491E-01 -3.4891203241970E-01
    14  1.3000000000000E-01  8.4878094089940E-01 -3.7199712372176E-01
    15  1.4000000000000E-01  9.0666924918960E-01 -3.9356905409861E-01
    16  1.5000000000000E-01  9.6291351310102E-01 -4.1349105459653E-01
    17  1.6000000000000E-01  1.0173998229338E+00 -4.3162585839543E-01
    18  1.7000000000000E-01  1.0700163649015E+00 -4.4783684343343E-01
    19  1.8000000000000E-01  1.1206539232804E+00 -4.6198930557231E-01
    20  1.9000000000000E-01  1.1692064152161E+00 -4.7395184036313E-01
    21  2.0000000000000E-01  1.2155714509305E+00 -4.8359780839613E-01
    22  2.1000000000000E-01  1.2596509112903E+00 -4.9080685666146E-01
    23  2.2000000000000E-01  1.3013515340698E+00 -4.9546646636886E-01
    24  2.3000000000000E-01  1.3405854997861E+00 -4.9747349632318E-01
    25  2.4000000000000E-01  1.3772710077196E+00 -4.9673569026642E-01
    26  2.5000000000000E-01  1.4113328326528E+00 -4.9317311659466E-01
    27  2.6000000000000E-01  1.4427028529810E+00 -4.8671950955025E-01
    28  2.7000000000000E-01  1.4713205411587E+00 -4.7732348236681E-01
    29  2.8000000000000E-01  1.4971334079481E+00 -4.6494958488400E-01
    30  2.9000000000000E-01  1.5200973926146E+00 -4.4957918081763E-01
    31  3.0000000000000E-01  1.5401771920618E+00 -4.3121112311192E-01
    32  3.1000000000000E-01  1.5573465228980E+00 -4.0986220955914E-01
    33  3.2000000000000E-01  1.5715883115507E+00 -3.8556740506508E-01
    34  3.3000000000000E-01  1.5828948087876E+00 -3.5837982148754E-01
    35  3.4000000000000E-01  1.5912676263153E+00 -3.2837045078255E-01
    36  3.5000000000000E-01  1.5967176945104E+00 -2.9562765216072E-01
    37  3.6000000000000E-01  1.5992651417353E+00 -2.6025639897946E-01
    38  3.7000000000000E-01  1.5989390970984E+00 -2.2237729606742E-01
    39  3.8000000000000E-01  1.5957774198884E+00 -1.8212538299083E-01
    40  3.9000000000000E-01  1.5898263602273E+00 -1.3964874331945E-01
    41  4.0000000000000E-01  1.5811401567128E+00 -9.5106944134419E-02
    42  4.1000000000000E-01  1.5697805779342E+00 -4.8669333745021E-02
    43  4.2000000000000E-01  1.5558164157197E+00 -5.1322876237170E-04
    44  4.3000000000000E-01  1.5393229387942E+00  4.9177975761943E-02
    45  4.4000000000000E-01  1.5203813161621E+00  1.0021673754674E-01
    46  4.5000000000000E-01  1.4990780199792E+00  1.5241330291204E-01
    47  4.6000000000000E-01  1.4755042179251E+00  2.0557761012360E-01
    48  4.7000000000000E-01  1.4497551651206E+00  2.5952112355530E-01
    49  4.8000000000000E-01  1.4219296054597E+00  3.1405856317394E-01
    50  4.9000000000000E-01  1.3921291918436E+00  3.6900949582595E-01
    51  5.0000000000000E-01  1.3604579342115E+00  4.2419975752784E-01
    52  5.1000000000000E-01  1.3270216834871E+00  4.7946267938109E-01
    53  5.2000000000000E-01  1.2919276586007E+00  5.3464009378965E-01
    54  5.3000000000000E-01  1.2552840226324E+00  5.8958310227576E-01
    55  5.4000000000000E-01  1.2171995128722E+00  6.4415259127774E-01
    56  5.5000000000000E-01  1.1777831282334E+00  6.9821948777358E-01
    57  5.6000000000000E-01  1.1371438760127E+00  7.5166475229376E-01
    58  5.7000000000000E-01  1.0953905785011E+00  8.0437911275026E-01
    59  5.8000000000000E-01  1.0526317384352E+00  8.5626254839480E-01
    60  5.9000000000000E-01  1.0089754607854E+00  9.0722353899977E-01
    61  6.0000000000000E-01  9.6452942692029E-01  9.5717809991130E-01
    62  6.1000000000000E-01  9.1940091581936E-01  1.0060486288273E+00
    63  6.2000000000000E-01  8.7369686574049E-01  1.0537625948931E+00
    64  6.3000000000000E-01  8.2752396862492E-01  1.1002511048696E+00
    65  6.4000000000000E-01  7.8098878856501E-01  1.1454473846191E+00
    66  6.5000000000000E-01  7.3419789489063E-01  1.1892852168823E+00
    67  6.6000000000000E-01  6.8725799987046E-01  1.2316973782135E+00
    68  6.7000000000000E-01  6.4027609068964E-01  1.2726141189502E+00
    69  6.8000000000000E-01  5.9335954526742E-01  1.3119617301651E+00
    70  6.9000000000000E-01  5.4661622162306E-01  1.3496612406806E+00
    71  7.0000000000000E-01  5.0015451088829E-01  1.3856272853965E+00
    72  7.1000000000000E-01  4.5408334469474E-01  1.4197671834311E+00
    73  7.2000000000000E-01  4.0851214852865E-01  1.4519802609174E+00
    74  7.3000000000000E-01  3.6355073372661E-01  1.4821574488116E+00
    75  7.4000000000000E-01  3.1930912206864E-01  1.5101811808112E+00
    76  7.5000000000000E-01  2.7589729838433E-01  1.5359256105591E+00
    77  7.6000000000000E-01  2.3342488819742E-01  1.5592571608166E+00
    78  7.7000000000000E-01  1.9200075916312E-01  1.5800354103561E+00
    79  7.8000000000000E-01  1.5173254686694E-01  1.5981143170801E+00
    80  7.9000000000000E-01  1.1272610741733E-01  1.6133437684586E+00
    81  8.0000000000000E-01  7.5084901139506E-02  1.6255714429406E+00
    82  8.1000000000000E-01  3.8909313524677E-02  1.6346449586875E+00
    83  8.2000000000000E-01  4.2959213692177E-03  1.6404142789457E+00
    84  8.3000000000000E-01 -2.8663286286789E-02  1.6427343367765E+00
    85  8.4000000000000E-01 -5.9881721280470E-02  1.6414678358255E+00
    86  8.5000000000000E-01 -8.9279031010842E-02  1.6364881784908E+00
    87  8.6000000000000E-01 -1.1678194104701E-01  1.6276824683431E+00
    88  8.7000000000000E-01 -1.4232509111367E-01  1.6149545300855E+00
    89  8.8000000000000E-01 -1.6585184926414E-01  1.5982278878009E+00
    90  8.9000000000000E-01 -1.8731508868965E-01  1.5774486407897E+00
    91  9.0000000000000E-01 -2.0667791154897E-01  1.5525881760164E+00
    92  9.1000000000000E-01 -2.2391430444226E-01  1.5236456570706E+00
    93  9.2000000000000E-01 -2.3900971070074E-01  1.4906502316404E+00
    94  9.3000000000000E-01 -2.5196150551586E-01  1.4536629027513E+00
    95  9.4000000000000E-01 -2.6277936107825E-01  1.4127780134262E+00
    96  9.5000000000000E-01 -2.7148549032311E-01  1.3681242998997E+00
    97  9.6000000000000E-01 -2.7811475956285E-01  1.3198654749848E+00
    98  9.7000000000000E-01 -2.8271466220333E-01  1.2682003105535E+00
    99  9.8000000000000E-01 -2.8534514785528E-01  1.2133621962121E+00
   100  9.9000000000000E-01 -2.8607830343130E-01  1.1556181600042E+00
   101  1.0000000000000E+00 -2.8499788522078E-01  1.0952673461927E+00
   102  1.0100000000000E+00 -2.8219870341609E-01  1.0326389546898E+00
   103  1.0200000000000E+00 -2.7778586308133E-01  9.6808965636196E-01
   104  1.0300000000000E+00 -2.7187386805837E-01  9.0200050802736E-01
   105  1.0400000000000E+00 -2.6458559674825E-01  8.3477340032750E-01
   106  1.0500000000000E+00 -2.5605116104429E-01  7.6682708059997E-01
   107  1.0600000000000E+00 -2.4640666187661E-01  6.9859280123350E-01
   108  1.0700000000000E+00 -2.3579285681320E-01  6.3050965157153E-01
   109  1.0800000000000E+00 -2.2435375691479E-01  5.6301963811814E-01
   110  1.0900000000000E+00 -2.1223517151244E-01  4.9656258340816E-01
   111  1.1000000000000E+00 -1.9958322074724E-01  4.3157091835316E-01
   112  1.1100000000000E+00 -1.8654283654479E-01  3.6846444602899E-01
   113  1.1200000000000E+00 -1.7325627317792E-01  3.0764515667314E-01
   114  1.1300000000000E+00 -1.5986164868156E-01  2.4949217404072E-01
   115  1.1400000000000E+00 -1.4649153811885E-01  1.9435691221217E-01
   116  1.1500000000000E+00 -1.3327163905224E-01  1.4255851943175E-01
   117  1.1600000000000E+00 -1.2031952856058E-01  9.4379681636658E-02
   118  1.1700000000000E+00 -1.0774352976702E-01  5.0062853028907E-02
   119  1.1800000000000E+00 -9.5641704132689E-02  9.8069744583915E-03
   120  1.1900000000000E+00 -8.4100983748243E-02 -2.6235267390705E-02
   121  1.2000000000000E+00 -7.3196455548641E-02 -5.7959595876364E-02
   122  1.2100000000000E+00 -6.2990806843232E-02 -8.5311680924009E-02
   123  1.2200000000000E+00 -5.3533938799737E-02 -1.0828803234225E-01
   124  1.2300000000000E+00 -4.4862751644104E-02 -1.2693623709014E-01
   125  1.2400000000000E+00 -3.7001102339727E-02 -1.4135453913499E-01
   126  1.2500000000000E+00 -2.9959932471423E-02 -1.5169077216071E-01
   127  1.2600000000000E+00 -2.3737561042722E-02 -1.5814066691759E-01
   128  1.2700000000000E+00 -1.8320133911613E-02 -1.6094556639789E-01
   129  1.2800000000000E+00 -1.3682218747750E-02 -1.6038959286581E-01
   130  1.2900000000000E+00 -9.7875317000338E-03 -1.5679632105791E-01
   131  1.3000000000000E+00 -6.5897816621164E-03 -1.5052500990464E-01
   132  1.3100000000000E+00 -4.0335999284173E-03 -1.4196653689772E-01
   133  1.3200000000000E+00 -2.0561009055130E-03 -1.3153617223553E-01
   134  1.3300000000000E+00 -5.8987233282087E-04 -1.1965924667605E-01
   135  1.3400000000000E+00  4.3477926183947E-04 -1.0676118632490E-01
   136  1.3500000000000E+00  1.0884205461418E-03 -9.3262023140183E-02
   137  1.3600000000000E+00  1.4395457619739E-03 -7.9563308720037E-02
   138  1.3700000000000E+00  1.5572287220279E-03 -6.6062700785743E-02
   139  1.3800000000000E+00  1.4397593493664E-03 -5.2803221425149E-02
   140  1.3900000000000E+00  1.2466005425347E-03 -4.0630598523063E-02
   141  1.4000000000000E+00  9.8159121029726E-04 -2.9615767961181E-02
   142  1.4100000000000E+00  6.9841931137357E-04 -2.0057685763150E-02
   143  1.4200000000000E+00  4.3505864247006E-04 -1.2178655697969E-02
   144  1.4300000000000E+00  2.2106088176700E-04 -6.1617667890026E-03
   145  1.4400000000000E+00  7.5110585244418E-05 -2.1279380202569E-03
   146  1.4500000000000E+00  7.6754439415378E-06 -2.2650648665690E-04
   147  1.4600000000000E+00 -9.2790944460740E-07  2.7852611193049E-05
   148  1.4700000000000E+00  2.0941743208084E-07 -6.1508503578812E-06
   149  1.48 -0.  0.
   150  1.49  0.  0.
   151  1.50  0.  0.
   152  1.51  0.  0.
   153  1.52  0.  0.
   154  1.53  0.  0.
   155  1.54  0.  0.
   156  1.55  0.  0.
   157  1.56  0.  0.
   158  1.57  0.  0.
   159  1.58  0.  0.
   160  1.59  0.  0.
   161  1.60  0.  0.
   162  1.61  0.  0.
   163  1.62  0.  0.
   164  1.63  0.  0.
   165  1.64  0.  0.
   166  1.65  0.  0.
   167  1.66  0.  0.
   168  1.67  0.  0.
   169  1.68  0.  0.
   170  1.69  0.  0.
   171  1.70  0.  0.
   172  1.71  0.  0.
   173  1.72  0.  0.
   174  1.73  0.  0.
   175  1.74  0.  0.
   176  1.75  0.  0.
   177  1.76  0.  0.
   178  1.77  0.  0.
   179  1.78  0.  0.
   180  1.79  0.  0.
   181  1.80  0.  0.
   182  1.81  0.  0.
   183  1.82  0.  0.
   184  1.83  0.  0.
   185  1.84  0.  0.
   186  1.85  0.  0.
   187  1.86  0.  0.
   188  1.87  0.  0.
   189  1.88  0.  0.
   190  1.89  0.  0.
   191  1.90  0.  0.
   192  1.91  0.  0.
   193  1.92  0.  0.
   194  1.93  0.  0.
   195  1.94  0.  0.
   196  1.95  0.  0.
   197  1.96  0.  0.
   198  1.97  0.  0.
   199  1.98  0.  0.
   200  1.99  0.  0.
   201  2.00  0.  0.
   202  2.01  0.  0.
   203  2.02  0.  0.
   204  2.03  0.  0.
   205  2.04  0.  0.
   206  2.05  0.  0.
   207  2.06  0.  0.
   208  2.07  0.  0.
   209  2.08  0.  0.
   210  2.09  0.  0.
   211  2.10  0.  0.
   212  2.11  0.  0.
   213  2.12  0.  0.
   214  2.13  0.  0.
   215  2.14  0.  0.
   216  2.15  0.  0.
   217  2.16  0.  0.
   218  2.17  0.  0.
   219  2.18  0.  0.
   220  2.19  0.  0.
   221  2.20  0.  0.
   222  2.21  0.  0.
   223  2.22  0.  0.
   224  2.23  0.  0.
   225  2.24  0.  0.
   226  2.25  0.  0.
   227  2.26  0.  0.
   228  2.27  0.  0.
   229  2.28  0.  0.
   230  2.29  0.  0.
   231  2.30  0.  0.
   232  2.31  0.  0.
   233  2.32  0.  0.
   234  2.33  0.  0.
   235  2.34  0.  0.
   236  2.35  0.  0.
   237  2.36  0.  0.
   238  2.37  0.  0.
   239  2.38  0.  0.
   240  2.39  0.  0.
   241  2.40  0.  0.
   242  2.41  0.  0.
   243  2.42  0.  0.
   244  2.43  0.  0.
   245  2.44  0.  0.
   246  2.45  0.  0.
   247  2.46  0.  0.
   248  2.47  0.  0.
   249  2.48  0.  0.
   250  2.49  0.  0.
   251  2.50  0.  0.
   252  2.51  0.  0.
   253  2.52  0.  0.
   254  2.53  0.  0.
   255  2.54  0.  0.
   256  2.55  0.  0.
   257  2.56  0.  0.
   258  2.57  0.  0.
   259  2.58  0.  0.
   260  2.59  0.  0.
   261  2.60  0.  0.
   262  2.61  0.  0.
   263  2.62  0.  0.
   264  2.63  0.  0.
   265  2.64  0.  0.
   266  2.65  0.  0.
   267  2.66  0.  0.
   268  2.67  0.  0.
   269  2.68  0.  0.
   270  2.69  0.  0.
   271  2.70  0.  0.
   272  2.71  0.  0.
   273  2.72  0.  0.
   274  2.73  0.  0.
   275  2.74  0.  0.
   276  2.75  0.  0.
   277  2.76  0.  0.
   278  2.77  0.  0.
   279  2.78  0.  0.
   280  2.79  0.  0.
   281  2.80  0.  0.
   282  2.81  0.  0.
   283  2.82  0.  0.
   284  2.83  0.  0.
   285  2.84  0.  0.
   286  2.85  0.  0.
   287  2.86  0.  0.
   288  2.87  0.  0.
   289  2.88  0.  0.
   290  2.89  0.  0.
   291  2.90  0.  0.
   292  2.91  0.  0.
   293  2.92  0.  0.
   294  2.93  0.  0.
   295  2.94  0.  0.
   296  2.95  0.  0.
   297  2.96  0.  0.
   298  2.97  0.  0.
   299  2.98  0.  0.
   300  2.99  0.  0.
   301  3.00  0.  0.
   302  3.01  0.  0.
   303  3.02  0.  0.
   304  3.03  0.  0.
   305  3.04  0.  0.
   306  3.05  0.  0.
   307  3.06  0.  0.
   308  3.07  0.  0.
   309  3.08  0.  0.
   310  3.09  0.  0.
   311  3.10  0.  0.
   312  3.11  0.  0.
   313  3.12  0.  0.
   314  3.13  0.  0.
   315  3.14  0.  0.
   316  3.15  0.  0.
   317  3.16  0.  0.
   318  3.17  0.  0.
   319  3.18  0.  0.
   320  3.19  0.  0.
   321  3.20  0.  0.
   322  3.21  0.  0.
   323  3.22  0.  0.
   324  3.23  0.  0.
   325  3.24  0.  0.
   326  3.25  0.  0.
   327  3.26  0.  0.
   328  3.27  0.  0.
   329  3.28  0.  0.
   330  3.29  0.  0.
   331  3.30  0.  0.
   332  3.31  0.  0.
   333  3.32  0.  0.
   334  3.33  0.  0.
   335  3.34  0.  0.
   336  3.35  0.  0.
   337  3.36  0.  0.
   338  3.37  0.  0.
   339  3.38  0.  0.
   340  3.39  0.  0.
   341  3.40  0.  0.
   342  3.41  0.  0.
   343  3.42  0.  0.
   344  3.43  0.  0.
   345  3.44  0.  0.
   346  3.45  0.  0.
   347  3.46  0.  0.
   348  3.47  0.  0.
   349  3.48  0.  0.
   350  3.49  0.  0.
   351  3.50  0.  0.
   352  3.51  0.  0.
   353  3.52  0.  0.
   354  3.53  0.  0.
   355  3.54  0.  0.
   356  3.55  0.  0.
   357  3.56  0.  0.
   358  3.57  0.  0.
   359  3.58  0.  0.
   360  3.59  0.  0.
   361  3.60  0.  0.
   362  3.61  0.  0.
   363  3.62  0.  0.
   364  3.63  0.  0.
   365  3.64  0.  0.
   366  3.65  0.  0.
   367  3.66  0.  0.
   368  3.67  0.  0.
   369  3.68  0.  0.
   370  3.69  0.  0.
   371  3.70  0.  0.
   372  3.71  0.  0.
   373  3.72  0.  0.
   374  3.73  0.  0.
   375  3.74  0.  0.
   376  3.75  0.  0.
   377  3.76  0.  0.
   378  3.77  0.  0.
   379  3.78  0.  0.
   380  3.79  0.  0.
   381  3.80  0.  0.
   382  3.81  0.  0.
   383  3.82  0.  0.
   384  3.83  0.  0.
   385  3.84  0.  0.
   386  3.85  0.  0.
   387  3.86  0.  0.
   388  3.87  0.  0.
   389  3.88  0.  0.
   390  3.89  0.  0.
   391  3.90  0.  0.
   392  3.91  0.  0.
   393  3.92  0.  0.
   394  3.93  0.  0.
   395  3.94  0.  0.
   396  3.95  0.  0.
   397  3.96  0.  0.
   398  3.97  0.  0.
   399  3.98  0.  0.
   400  3.99  0.  0.
   1                         2.9243581252472E+00  4.2930267476317E-01
     1  0.0000000000000E+00 -4.9295212217748E-09  1.1458559566468E-08
     2  1.0000000000000E-02  1.6376884307730E-03 -4.8610012437960E-04
     3  2.0000000000000E-02  6.5475789971210E-03 -1.9478083243614E-03
     4  3.0000000000000E-02  1.4720056167799E-02 -4.3951078745288E-03
     5  4.0000000000000E-02  2.6138792629578E-02 -7.8438440545399E-03
     6  5.0000000000000E-02  4.0780307857712E-02 -1.2314558810275E-02
     7  6.0000000000000E-02  5.8613371253817E-02 -1.7830908468678E-02
     8  7.0000000000000E-02  7.9598270332156E-02 -2.4417712156781E-02
     9  8.0000000000000E-02  1.0368596936486E-01 -3.2098690033953E-02
    10  9.0000000000000E-02  1.3081718816518E-01 -4.0893960361908E-02
    11  1.0000000000000E-01  1.6092143418245E-01 -5.0817372544978E-02
    12  1.1000000000000E-01  1.9391602370892E-01 -6.1873759356594E-02
    13  1.2000000000000E-01  2.2970512968246E-01 -7.4056195454916E-02
    14  1.3000000000000E-01  2.6817889426222E-01 -8.7343350871690E-02
    15  1.4000000000000E-01  3.0921264402875E-01 -1.0169702737178E-01
    16  1.5000000000000E-01  3.5266624431654E-01 -1.1705996243289E-01
    17  1.6000000000000E-01  3.9838362684870E-01 -1.3335398014580E-01
    18  1.7000000000000E-01  4.4619252156093E-01 -1.5047856070441E-01
    19  1.8000000000000E-01  4.9590441934630E-01 -1.6830989051933E-01
    20  1.9000000000000E-01  5.4731478751909E-01 -1.8670044357189E-01
    21  2.0000000000000E-01  6.0020355420017E-01 -2.0547913170478E-01
    22  2.1000000000000E-01  6.5433587169808E-01 -2.2445204742899E-01
    23  2.2000000000000E-01  7.0946316244656E-01 -2.4340380786313E-01
    24  2.3000000000000E-01  7.6532444431628E-01 -2.6209949297715E-01
    25  2.4000000000000E-01  8.2164792530918E-01 -2.8028715577453E-01
    26  2.5000000000000E-01  8.7815285093569E-01 -2.9770086680381E-01
    27  2.6000000000000E-01  9.3455158113172E-01 -3.1406424083040E-01
    28  2.7000000000000E-01  9.9055186755720E-01 -3.2909437999663E-01
    29  2.8000000000000E-01  1.0458592966795E+00 -3.4250615570336E-01
    30  2.9000000000000E-01  1.1001798593267E+00 -3.5401674108217E-01
    31  3.0000000000000E-01  1.1532226035157E+00 -3.6335029757456E-01
    32  3.1000000000000E-01  1.2047023244315E+00 -3.7024271302937E-01
    33  3.2000000000000E-01  1.2543422435254E+00 -3.7444628505533E-01
    34  3.3000000000000E-01  1.3018766278894E+00 -3.7573424224808E-01
    35  3.4000000000000E-01  1.3470533013649E+00 -3.7390499741432E-01
    36  3.5000000000000E-01  1.3896360002802E+00 -3.6878603104283E-01
    37  3.6000000000000E-01  1.4294065292521E+00 -3.6023730995808E-01
    38  3.7000000000000E-01  1.4661666760877E+00 -3.4815415521415E-01
    39  3.8000000000000E-01  1.4997398494211E+00 -3.3246948465538E-01
    40  3.9000000000000E-01  1.5299724081973E+00 -3.1315536894385E-01
    41  4.0000000000000E-01  1.5567346583805E+00 -2.9022385493573E-01
    42  4.1000000000000E-01  1.5799214991551E+00 -2.6372702673782E-01
    43  4.2000000000000E-01  1.5994527082595E+00 -2.3375629221475E-01
    44  4.3000000000000E-01  1.6152728637811E+00 -2.0044090073630E-01
    45  4.4000000000000E-01  1.6273509075554E+00 -1.6394571612805E-01
    46  4.5000000000000E-01  1.6356793630826E+00 -1.2446828667773E-01
    47  4.6000000000000E-01  1.6402732284131E+00 -8.2235271219886E-02
    48  4.7000000000000E-01  1.6411685715763E+00 -3.7498296344906E-02
    49  4.8000000000000E-01  1.6384208626658E+00  9.4706657463275E-03
    50  4.9000000000000E-01  1.6321030824914E+00  5.8384296668792E-02
    51  5.0000000000000E-01  1.6223036526105E+00  1.0894519618848E-01
    52  5.1000000000000E-01  1.6091242354451E+00  1.6085129133304E-01
    53  5.2000000000000E-01  1.5926774559616E+00  2.1380126514626E-01
    54  5.3000000000000E-01  1.5730845979735E+00  2.6749987788339E-01
    55  5.4000000000000E-01  1.5504733284609E+00  3.2166305439707E-01
    56  5.5000000000000E-01  1.5249755023749E+00  3.7602261546370E-01
    57  5.6000000000000E-01  1.4967250982079E+00  4.3033053780415E-01
    58  5.7000000000000E-01  1.4658563312113E+00  4.8436263743885E-01
    59  5.8000000000000E-01  1.4325019865920E+00  5.3792158359761E-01
    60  5.9000000000000E-01  1.3967920094097E+00  5.9083916542353E-01
    61  6.0000000000000E-01  1.3588523813673E+00  6.4297775084846E-01
    62  6.1000000000000E-01  1.3188043073570E+00  6.9423089590175E-01
    63  6.2000000000000E-01  1.2767637266850E+00  7.4452308292527E-01
    64  6.3000000000000E-01  1.2328411555147E+00  7.9380858724462E-01
    65  6.4000000000000E-01  1.1871418584417E+00  8.4206949330497E-01
    66  6.5000000000000E-01  1.1397663384512E+00  8.8931290261536E-01
    67  6.6000000000000E-01  1.0908111260080E+00  9.3556739654857E-01
    68  6.7000000000000E-01  1.0403698399066E+00  9.8087883661437E-01
    69  6.8000000000000E-01  9.8853448495479E-01  1.0253056027763E+00
    70  6.9000000000000E-01  9.3539694477228E-01  1.0689133862636E+00
    71  7.0000000000000E-01  8.8105062212920E-01  1.1117696667297E+00
    72  7.1000000000000E-01  8.2559217448016E-01  1.1539380141587E+00
    73  7.2000000000000E-01  7.6912328879763E-01  1.1954723633327E+00
    74  7.3000000000000E-01  7.1175243757995E-01  1.2364114126996E+00
    75  7.4000000000000E-01  6.5359655707449E-01  1.2767732999775E+00
    76  7.5000000000000E-01  5.9478258935973E-01  1.3165507037115E+00
    77  7.6000000000000E-01  5.3544883198022E-01  1.3557065132738E+00
    78  7.7000000000000E-01  4.7574604229791E-01  1.3941701995534E+00
    79  7.8000000000000E-01  4.1583824855849E-01  1.4318350049870E+00
    80  7.9000000000000E-01  3.5590322577615E-01  1.4685560548994E+00
    81  8.0000000000000E-01  2.9613260179507E-01  1.5041494726678E+00
    82  8.1000000000000E-01  2.3673156714048E-01  1.5383925594030E+00
    83  8.2000000000000E-01  1.7791817134691E-01  1.5710250751119E+00
    84  8.3000000000000E-01  1.1992219815203E-01  1.6017516331748E+00
    85  8.4000000000000E-01  6.2983622052996E-02  1.6302451939954E+00
    86  8.5000000000000E-01  7.3506590101786E-03  1.6561516174355E+00
    87  8.6000000000000E-01 -4.6722565683484E-02  1.6790952077326E+00
    88  8.7000000000000E-01 -9.8978699411395E-02  1.6986851596059E+00
    89  8.8000000000000E-01 -1.4916015175521E-01  1.7145227907829E+00
    90  8.9000000000000E-01 -1.9701234051190E-01  1.7262094247747E+00
    91  9.0000000000000E-01 -2.4228713550380E-01  1.7333547689313E+00
    92  9.1000000000000E-01 -2.8474643495847E-01  1.7355856170784E+00
    93  9.2000000000000E-01 -3.2416580404583E-01  1.7325546937969E+00
    94  9.3000000000000E-01 -3.6033810144616E-01  1.7239494489918E+00
    95  9.4000000000000E-01 -3.9307701769430E-01  1.7095006070635E+00
    96  9.5000000000000E-01 -4.2222044857809E-01  1.6889902749212E+00
    97  9.6000000000000E-01 -4.4763362810540E-01  1.6622594173328E+00
    98  9.7000000000000E-01 -4.6921194849099E-01  1.6292145166779E+00
    99  9.8000000000000E-01 -4.8688339922081E-01  1.5898332469429E+00
   100  9.9000000000000E-01 -5.0061056344776E-01  1.5441690085550E+00
   101  1.0000000000000E+00 -5.1039211765212E-01  1.4923541911064E+00
   102  1.0100000000000E+00 -5.1626378950571E-01  1.4346020547467E+00
   103  1.0200000000000E+00 -5.1829873904947E-01  1.3712071476067E+00
   104  1.0300000000000E+00 -5.1660733940766E-01  1.3025442054743E+00
   105  1.0400000000000E+00 -5.1133634508582E-01  1.2290655104782E+00
   106  1.0500000000000E+00 -5.0266744820577E-01  1.1512967171561E+00
   107  1.0600000000000E+00 -4.9081523553137E-01  1.0698311862601E+00
   108  1.0700000000000E+00 -4.7602457156148E-01  9.8532289828245E-01
   109  1.0800000000000E+00 -4.5856744507861E-01  8.9847804938699E-01
   110  1.0900000000000E+00 -4.3873932800186E-01  8.1004546133520E-01
   111  1.1000000000000E+00 -4.1685510602196E-01  7.2080596365368E-01
   112  1.1100000000000E+00 -3.9324464998650E-01  6.3156092992948E-01
   113  1.1200000000000E+00 -3.6824810517304E-01  5.4312017028506E-01
   114  1.1300000000000E+00 -3.4221098222904E-01  4.5628939826411E-01
   115  1.1400000000000E+00 -3.1547913850354E-01  3.7185750213804E-01
   116  1.1500000000000E+00 -2.8839374163078E-01  2.9058385774410E-01
   117  1.1600000000000E+00 -2.6128630845219E-01  2.1318592215608E-01
   118  1.1700000000000E+00 -2.3447391163501E-01  1.4032734466235E-01
   119  1.1800000000000E+00 -2.0825464366193E-01  7.2606823705167E-02
   120  1.1900000000000E+00 -1.8290342326297E-01  1.0547925720351E-02
   121  1.2000000000000E+00 -1.5866822289743E-01 -4.5409935624919E-02
   122  1.2100000000000E+00 -1.3576678775702E-01 -9.4919182968024E-02
   123  1.2200000000000E+00 -1.1438390698303E-01 -1.3773027055270E-01
   124  1.2300000000000E+00 -9.4669286743933E-02 -1.7369626927535E-01
   125  1.2400000000000E+00 -7.6736062549354E-02 -2.0277575150281E-01
   126  1.2500000000000E+00 -6.0659975038916E-02 -2.2503391986902E-01
   127  1.2600000000000E+00 -4.6479219801566E-02 -2.4064195974352E-01
   128  1.2700000000000E+00 -3.4194967638163E-02 -2.4987463164039E-01
   129  1.2800000000000E+00 -2.3772537625277E-02 -2.5310615608963E-01
   130  1.2900000000000E+00 -1.5143191510418E-02 -2.5080447912012E-01
   131  1.3000000000000E+00 -8.2065091299497E-03 -2.4352402219350E-01
   132  1.3100000000000E+00 -2.8332594954783E-03 -2.3189718748222E-01
   133  1.3200000000000E+00  1.1301371466583E-03 -2.1662004065040E-01
   134  1.3300000000000E+00  3.8539463501438E-03 -1.9842597318751E-01
   135  1.3400000000000E+00  5.5187660977843E-03 -1.7806610310945E-01
   136  1.3500000000000E+00  6.3107241113927E-03 -1.5629652741667E-01
   137  1.3600000000000E+00  6.4133958040996E-03 -1.3385317235785E-01
   138  1.3700000000000E+00  6.0111459616004E-03 -1.1147043269841E-01
   139  1.3800000000000E+00  5.1403587678834E-03 -8.9318986998979E-02
   140  1.3900000000000E+00  4.1599729768217E-03 -6.8834015946214E-02
   141  1.4000000000000E+00  3.1010452965622E-03 -5.0204587841893E-02
   142  1.4100000000000E+00  2.0979224369502E-03 -3.3990549457612E-02
   143  1.4200000000000E+00  1.2424391382715E-03 -2.0611676460078E-02
   144  1.4300000000000E+00  5.9744644592577E-04 -1.0404402515543E-02
   145  1.4400000000000E+00  1.9034756676461E-04 -3.5811978436158E-03
   146  1.4500000000000E+00  1.7787479995536E-05 -3.7934773909468E-04
   147  1.4600000000000E+00 -2.0520984163517E-06  4.6559141852041E-05
   148  1.4700000000000E+00  4.8341614270955E-07 -1.0303522697193E-05
   149  1.48 -0.  0.
   150  1.49  0.  0.
   151  1.50  0.  0.
   152  1.51  0.  0.
   153  1.52  0.  0.
   154  1.53  0.  0.
   155  1.54  0.  0.
   156  1.55  0.  0.
   157  1.56  0.  0.
   158  1.57  0.  0.
   159  1.58  0.  0.
   160  1.59  0.  0.
   161  1.60  0.  0.
   162  1.61  0.  0.
   163  1.62  0.  0.
   164  1.63  0.  0.
   165  1.64  0.  0.
   166  1.65  0.  0.
   167  1.66  0.  0.
   168  1.67  0.  0.
   169  1.68  0.  0.
   170  1.69  0.  0.
   171  1.70  0.  0.
   172  1.71  0.  0.
   173  1.72  0.  0.
   174  1.73  0.  0.
   175  1.74  0.  0.
   176  1.75  0.  0.
   177  1.76  0.  0.
   178  1.77  0.  0.
   179  1.78  0.  0.
   180  1.79  0.  0.
   181  1.80  0.  0.
   182  1.81  0.  0.
   183  1.82  0.  0.
   184  1.83  0.  0.
   185  1.84  0.  0.
   186  1.85  0.  0.
   187  1.86  0.  0.
   188  1.87  0.  0.
   189  1.88  0.  0.
   190  1.89  0.  0.
   191  1.90  0.  0.
   192  1.91  0.  0.
   193  1.92  0.  0.
   194  1.93  0.  0.
   195  1.94  0.  0.
   196  1.95  0.  0.
   197  1.96  0.  0.
   198  1.97  0.  0.
   199  1.98  0.  0.
   200  1.99  0.  0.
   201  2.00  0.  0.
   202  2.01  0.  0.
   203  2.02  0.  0.
   204  2.03  0.  0.
   205  2.04  0.  0.
   206  2.05  0.  0.
   207  2.06  0.  0.
   208  2.07  0.  0.
   209  2.08  0.  0.
   210  2.09  0.  0.
   211  2.10  0.  0.
   212  2.11  0.  0.
   213  2.12  0.  0.
   214  2.13  0.  0.
   215  2.14  0.  0.
   216  2.15  0.  0.
   217  2.16  0.  0.
   218  2.17  0.  0.
   219  2.18  0.  0.
   220  2.19  0.  0.
   221  2.20  0.  0.
   222  2.21  0.  0.
   223  2.22  0.  0.
   224  2.23  0.  0.
   225  2.24  0.  0.
   226  2.25  0.  0.
   227  2.26  0.  0.
   228  2.27  0.  0.
   229  2.28  0.  0.
   230  2.29  0.  0.
   231  2.30  0.  0.
   232  2.31  0.  0.
   233  2.32  0.  0.
   234  2.33  0.  0.
   235  2.34  0.  0.
   236  2.35  0.  0.
   237  2.36  0.  0.
   238  2.37  0.  0.
   239  2.38  0.  0.
   240  2.39  0.  0.
   241  2.40  0.  0.
   242  2.41  0.  0.
   243  2.42  0.  0.
   244  2.43  0.  0.
   245  2.44  0.  0.
   246  2.45  0.  0.
   247  2.46  0.  0.
   248  2.47  0.  0.
   249  2.48  0.  0.
   250  2.49  0.  0.
   251  2.50  0.  0.
   252  2.51  0.  0.
   253  2.52  0.  0.
   254  2.53  0.  0.
   255  2.54  0.  0.
   256  2.55  0.  0.
   257  2.56  0.  0.
   258  2.57  0.  0.
   259  2.58  0.  0.
   260  2.59  0.  0.
   261  2.60  0.  0.
   262  2.61  0.  0.
   263  2.62  0.  0.
   264  2.63  0.  0.
   265  2.64  0.  0.
   266  2.65  0.  0.
   267  2.66  0.  0.
   268  2.67  0.  0.
   269  2.68  0.  0.
   270  2.69  0.  0.
   271  2.70  0.  0.
   272  2.71  0.  0.
   273  2.72  0.  0.
   274  2.73  0.  0.
   275  2.74  0.  0.
   276  2.75  0.  0.
   277  2.76  0.  0.
   278  2.77  0.  0.
   279  2.78  0.  0.
   280  2.79  0.  0.
   281  2.80  0.  0.
   282  2.81  0.  0.
   283  2.82  0.  0.
   284  2.83  0.  0.
   285  2.84  0.  0.
   286  2.85  0.  0.
   287  2.86  0.  0.
   288  2.87  0.  0.
   289  2.88  0.  0.
   290  2.89  0.  0.
   291  2.90  0.  0.
   292  2.91  0.  0.
   293  2.92  0.  0.
   294  2.93  0.  0.
   295  2.94  0.  0.
   296  2.95  0.  0.
   297  2.96  0.  0.
   298  2.97  0.  0.
   299  2.98  0.  0.
   300  2.99  0.  0.
   301  3.00  0.  0.
   302  3.01  0.  0.
   303  3.02  0.  0.
   304  3.03  0.  0.
   305  3.04  0.  0.
   306  3.05  0.  0.
   307  3.06  0.  0.
   308  3.07  0.  0.
   309  3.08  0.  0.
   310  3.09  0.  0.
   311  3.10  0.  0.
   312  3.11  0.  0.
   313  3.12  0.  0.
   314  3.13  0.  0.
   315  3.14  0.  0.