Ca    ONCVPSP-4.0.1  r_core=   1.45424   1.45424   1.85846
     20.0000     10.0000      250925    zatom,zion,pspd
     8   -1012   2     4   400     0    pspcod,pspxc,lmax,lloc,mmax,r2well
  3.99000000  6.00000000  0.00000000    rchrg fchrg qchrg
     2     2     2     0    nproj
     3     1           extension_switch
     4     3     0    nprojso
   0                         9.9364656577083E+00  9.3526701364619E-01
     1  0.0000000000000E+00  7.0723848999421E-10 -2.4705807954994E-09
     2  1.0000000000000E-02  6.8571295701520E-02 -3.1611700485690E-02
     3  2.0000000000000E-02  1.3702591145551E-01 -6.3122145318628E-02
     4  3.0000000000000E-02  2.0524707400907E-01 -9.4429325819070E-02
     5  4.0000000000000E-02  2.7311783159596E-01 -1.2542975505308E-01
     6  5.0000000000000E-02  3.4052098473695E-01 -1.5601779755245E-01
     7  6.0000000000000E-02  4.0733904059028E-01 -1.8608507983799E-01
     8  7.0000000000000E-02  4.7345419785022E-01 -2.1552000570128E-01
     9  8.0000000000000E-02  5.3874836848435E-01 -2.4420739772921E-01
    10  9.0000000000000E-02  6.0310324174451E-01 -2.7202828356966E-01
    11  1.0000000000000E-01  6.6640039490050E-01 -2.9885984199996E-01
    12  1.1000000000000E-01  7.2852145404963E-01 -3.2457552004701E-01
    13  1.2000000000000E-01  7.8934830717355E-01 -3.4904532830311E-01
    14  1.3000000000000E-01  8.4876337037030E-01 -3.7213631727340E-01
    15  1.4000000000000E-01  9.0664990691143E-01 -3.9371323317499E-01
    16  1.5000000000000E-01  9.6289239748805E-01 -4.1363934718068E-01
    17  1.6000000000000E-01  1.0173769587439E+00 -4.3177744776087E-01
    18  1.7000000000000E-01  1.0699918059743E+00 -4.4799098162078E-01
    19  1.8000000000000E-01  1.1206277547238E+00 -4.6214532485196E-01
    20  1.9000000000000E-01  1.1691787549692E+00 -4.7410916240257E-01
    21  2.0000000000000E-01  1.2155424506457E+00 -4.8375595090247E-01
    22  2.1000000000000E-01  1.2596207564909E+00 -4.9096543732785E-01
    23  2.2000000000000E-01  1.3013204435562E+00 -4.9562520401508E-01
    24  2.3000000000000E-01  1.3405537242793E+00 -4.9763220918710E-01
    25  2.4000000000000E-01  1.3772388277480E+00 -4.9689429146922E-01
    26  2.5000000000000E-01  1.4113005557069E+00 -4.9333160687074E-01
    27  2.6000000000000E-01  1.4426708099753E+00 -4.8687796739892E-01
    28  2.7000000000000E-01  1.4712890822585E+00 -4.7748205184596E-01
    29  2.8000000000000E-01  1.4971028978331E+00 -4.6510846132598E-01
    30  2.9000000000000E-01  1.5200682052649E+00 -4.4973859480047E-01
    31  3.0000000000000E-01  1.5401497051658E+00 -4.3137132306707E-01
    32  3.1000000000000E-01  1.5573211119903E+00 -4.1002344343542E-01
    33  3.2000000000000E-01  1.5715653439979E+00 -3.8572990149893E-01
    34  3.3000000000000E-01  1.5828746377432E+00 -3.5854377095056E-01
    35  3.4000000000000E-01  1.5912505847727E+00 -3.2853598718736E-01
    36  3.5000000000000E-01  1.5967040895777E+00 -2.9579483540635E-01
    37  3.6000000000000E-01  1.5992552492585E+00 -2.6042519890576E-01
    38  3.7000000000000E-01  1.5989331567521E+00 -2.2254757826711E-01
    39  3.8000000000000E-01  1.5957756308462E+00 -1.8229689689475E-01
    40  3.9000000000000E-01  1.5898288775145E+00 -1.3982111292914E-01
    41  4.0000000000000E-01  1.5811470883315E+00 -9.5279661724568E-02
    42  4.1000000000000E-01  1.5697919828352E+00 -4.8841756798977E-02
    43  4.2000000000000E-01  1.5558323026822E+00 -6.8458033770882E-04
    44  4.3000000000000E-01  1.5393432662536E+00  4.9008603113698E-02
    45  4.4000000000000E-01  1.5204059930074E+00  1.0005037425789E-01
    46  4.5000000000000E-01  1.4991069073248E+00  1.5225109130560E-01
    47  4.6000000000000E-01  1.4755371318375E+00  2.0542078986071E-01
    48  4.7000000000000E-01  1.4497918802620E+00  2.5937101381513E-01
    49  4.8000000000000E-01  1.4219698595925E+00  3.1391654183457E-01
    50  4.9000000000000E-01  1.3921726911173E+00  3.6887697598928E-01
    51  5.0000000000000E-01  1.3605043591392E+00  4.2407816179864E-01
    52  5.1000000000000E-01  1.3270706955009E+00  4.7935341237143E-01
    53  5.2000000000000E-01  1.2919789070611E+00  5.3454451337244E-01
    54  5.3000000000000E-01  1.2553371521575E+00  5.8950249015262E-01
    55  5.4000000000000E-01  1.2172541708405E+00  6.4408812345874E-01
    56  5.5000000000000E-01  1.1778389723093E+00  6.9817220558547E-01
    57  5.6000000000000E-01  1.1372005815410E+00  7.5163553454070E-01
    58  5.7000000000000E-01  1.0954478456151E+00  8.0436864964563E-01
    59  5.8000000000000E-01  1.0526892987289E+00  8.5627131786356E-01
    60  5.9000000000000E-01  1.0090330834022E+00  9.0725178592014E-01
    61  6.0000000000000E-01  9.6458692392495E-01  9.5722581882000E-01
    62  6.1000000000000E-01  9.1945814672829E-01  1.0061155505574E+00
    63  6.2000000000000E-01  8.7375374110229E-01  1.0538481775467E+00
    64  6.3000000000000E-01  8.2758045256031E-01  1.1003545294514E+00
    65  6.4000000000000E-01  7.8104490019483E-01  1.1455675555725E+00
    66  6.5000000000000E-01  7.3425370860188E-01  1.1894207676771E+00
    67  6.6000000000000E-01  6.8731364439325E-01  1.2318466820401E+00
    68  6.7000000000000E-01  6.4033174698178E-01  1.2727753044722E+00
    69  6.8000000000000E-01  5.9341544322739E-01  1.3121327021842E+00
    70  6.9000000000000E-01  5.4667263567637E-01  1.3498397054647E+00
    71  7.0000000000000E-01  5.0021175451594E-01  1.3858107803270E+00
    72  7.1000000000000E-01  4.5414176399519E-01  1.4199531105306E+00
    73  7.2000000000000E-01  4.0857211492582E-01  1.4521659237343E+00
    74  7.3000000000000E-01  3.6361263595586E-01  1.4823400920591E+00
    75  7.4000000000000E-01  3.1937335758952E-01  1.5103580320948E+00
    76  7.5000000000000E-01  2.7596426438313E-01  1.5360939234664E+00
    77  7.6000000000000E-01  2.3349497235370E-01  1.5594142586063E+00
    78  7.7000000000000E-01  1.9207433036228E-01  1.5801787294516E+00
    79  7.8000000000000E-01  1.5180994604500E-01  1.5982414495629E+00
    80  7.9000000000000E-01  1.1280763872488E-01  1.6134525027590E+00
    81  8.0000000000000E-01  7.5170823608347E-02  1.6256598019418E+00
    82  8.1000000000000E-01  3.8999833414022E-02  1.6347112344937E+00
    83  8.2000000000000E-01  4.3911853574037E-03  1.6404570636168E+00
    84  8.3000000000000E-01 -2.8563196913091E-02  1.6427525483936E+00
    85  8.4000000000000E-01 -5.9776795305128E-02  1.6414607393327E+00
    86  8.5000000000000E-01 -8.9169330721196E-02  1.6364554008477E+00
    87  8.6000000000000E-01 -1.1666760433013E-01  1.6276240076246E+00
    88  8.7000000000000E-01 -1.4220633215035E-01  1.6148707582764E+00
    89  8.8000000000000E-01 -1.6572895778233E-01  1.5981195471497E+00
    90  8.9000000000000E-01 -1.8718842776738E-01  1.5773168337087E+00
    91  9.0000000000000E-01 -2.0654791398581E-01  1.5524343486395E+00
    92  9.1000000000000E-01 -2.2378146774775E-01  1.5234715767065E+00
    93  9.2000000000000E-01 -2.3887459077689E-01  1.4904579584799E+00
    94  9.3000000000000E-01 -2.5182470913864E-01  1.4534547563057E+00
    95  9.4000000000000E-01 -2.6264153730934E-01  1.4125565342860E+00
    96  9.5000000000000E-01 -2.7134732100698E-01  1.3678922075017E+00
    97  9.6000000000000E-01 -2.7797694908600E-01  1.3196256221675E+00
    98  9.7000000000000E-01 -2.8257792671066E-01  1.2679556357559E+00
    99  9.8000000000000E-01 -2.8521020413360E-01  1.2131156742328E+00
   100  9.9000000000000E-01 -2.8594585768079E-01  1.1553727522826E+00
   101  1.0000000000000E+00 -2.8486862194217E-01  1.0950259515995E+00
   102  1.0100000000000E+00 -2.8207327464392E-01  1.0324043618249E+00
   103  1.0200000000000E+00 -2.7766487819153E-01  9.6786449834417E-01
   104  1.0300000000000E+00 -2.7175788437208E-01  9.0178722073432E-01
   105  1.0400000000000E+00 -2.6447511114296E-01  8.3457418499213E-01
   106  1.0500000000000E+00 -2.5594660276800E-01  7.6664387160566E-01
   107  1.0600000000000E+00 -2.4630838674167E-01  6.9842723986536E-01
   108  1.0700000000000E+00 -2.3570114292337E-01  6.3036306638149E-01
   109  1.0800000000000E+00 -2.2426880205245E-01  5.6289303244773E-01
   110  1.0900000000000E+00 -2.1215709228383E-01  4.9645663048693E-01
   111  1.1000000000000E+00 -1.9951205355153E-01  4.3148596425406E-01
   112  1.1100000000000E+00 -1.8647854039932E-01  3.6840052061858E-01
   113  1.1200000000000E+00 -1.7319873439688E-01  3.0760199254542E-01
   114  1.1300000000000E+00 -1.5981068737009E-01  2.4946923327242E-01
   115  1.1400000000000E+00 -1.4644691640898E-01  1.9435342062641E-01
   116  1.1500000000000E+00 -1.3323307097249E-01  1.4257350791012E-01
   117  1.1600000000000E+00 -1.2028669139758E-01  9.4412033878429E-02
   118  1.1700000000000E+00 -1.0771607674661E-01  5.0111359023866E-02
   119  1.1800000000000E+00 -9.5619278219064E-02  9.8703888191510E-03
   120  1.1900000000000E+00 -8.4083232334481E-02 -2.6158163198064E-02
   121  1.2000000000000E+00 -7.3183045790419E-02 -5.7869928455204E-02
   122  1.2100000000000E+00 -6.2981441370078E-02 -8.5210418148519E-02
   123  1.2200000000000E+00 -5.3528371525378E-02 -1.0817591601561E-01
   124  1.2300000000000E+00 -4.4860803389521E-02 -1.2681371627056E-01
   125  1.2400000000000E+00 -3.7002675979700E-02 -1.4122170535175E-01
   126  1.2500000000000E+00 -2.9965027317686E-02 -1.5154729773160E-01
   127  1.2600000000000E+00 -2.3746286184370E-02 -1.5798574754617E-01
   128  1.2700000000000E+00 -1.8332720246150E-02 -1.6077786917436E-01
   129  1.2800000000000E+00 -1.3699029453779E-02 -1.6020721071948E-01
   130  1.2900000000000E+00 -9.8090709249890E-03 -1.5659673461410E-01
   131  1.3000000000000E+00 -6.6167012246253E-03 -1.5030505758839E-01
   132  1.3100000000000E+00 -4.0667038680934E-03 -1.4172239397497E-01
   133  1.3200000000000E+00 -2.0963476438159E-03 -1.3126334022745E-01
   134  1.3300000000000E+00 -6.3837410569789E-04 -1.1935255563962E-01
   135  1.3400000000000E+00  3.7675960086808E-04 -1.0641480888665E-01
   136  1.3500000000000E+00  1.0193464263441E-03 -9.2868862956681E-02
   137  1.3600000000000E+00  1.3588953199261E-03 -7.9121362978270E-02
   138  1.3700000000000E+00  1.4626283026811E-03 -6.5560889369825E-02
   139  1.3800000000000E+00  1.3940683074665E-03 -5.2552338323867E-02
   140  1.3900000000000E+00  1.2086737802421E-03 -4.0424804851346E-02
   141  1.4000000000000E+00  9.5489734194672E-04 -2.9471109949723E-02
   142  1.4100000000000E+00  6.8043968367460E-04 -1.9960557291734E-02
   143  1.4200000000000E+00  4.2420805480795E-04 -1.2120183458289E-02
   144  1.4300000000000E+00  2.1559350307860E-04 -6.1323606587353E-03
   145  1.4400000000000E+00  7.3228173239355E-05 -2.1178221942406E-03
   146  1.4500000000000E+00  7.4805702055568E-06 -2.2544596794238E-04
   147  1.4600000000000E+00 -9.0112982889873E-07  2.7714155505384E-05
   148  1.4700000000000E+00  2.0364756263768E-07 -6.1206974391274E-06
   149  1.48  0.  0.
   150  1.49  0.  0.
   151  1.50  0.  0.
   152  1.51  0.  0.
   153  1.52  0.  0.
   154  1.53  0.  0.
   155  1.54  0.  0.
   156  1.55  0.  0.
   157  1.56  0.  0.
   158  1.57  0.  0.
   159  1.58  0.  0.
   160  1.59  0.  0.
   161  1.60  0.  0.
   162  1.61  0.  0.
   163  1.62  0.  0.
   164  1.63  0.  0.
   165  1.64  0.  0.
   166  1.65  0.  0.
   167  1.66  0.  0.
   168  1.67  0.  0.
   169  1.68  0.  0.
   170  1.69  0.  0.
   171  1.70  0.  0.
   172  1.71  0.  0.
   173  1.72  0.  0.
   174  1.73  0.  0.
   175  1.74  0.  0.
   176  1.75  0.  0.
   177  1.76  0.  0.
   178  1.77  0.  0.
   179  1.78  0.  0.
   180  1.79  0.  0.
   181  1.80  0.  0.
   182  1.81  0.  0.
   183  1.82  0.  0.
   184  1.83  0.  0.
   185  1.84  0.  0.
   186  1.85  0.  0.
   187  1.86  0.  0.
   188  1.87  0.  0.
   189  1.88  0.  0.
   190  1.89  0.  0.
   191  1.90  0.  0.
   192  1.91  0.  0.
   193  1.92  0.  0.
   194  1.93  0.  0.
   195  1.94  0.  0.
   196  1.95  0.  0.
   197  1.96  0.  0.
   198  1.97  0.  0.
   199  1.98  0.  0.
   200  1.99  0.  0.
   201  2.00  0.  0.
   202  2.01  0.  0.
   203  2.02  0.  0.
   204  2.03  0.  0.
   205  2.04  0.  0.
   206  2.05  0.  0.
   207  2.06  0.  0.
   208  2.07  0.  0.
   209  2.08  0.  0.
   210  2.09  0.  0.
   211  2.10  0.  0.
   212  2.11  0.  0.
   213  2.12  0.  0.
   214  2.13  0.  0.
   215  2.14  0.  0.
   216  2.15  0.  0.
   217  2.16  0.  0.
   218  2.17  0.  0.
   219  2.18  0.  0.
   220  2.19  0.  0.
   221  2.20  0.  0.
   222  2.21  0.  0.
   223  2.22  0.  0.
   224  2.23  0.  0.
   225  2.24  0.  0.
   226  2.25  0.  0.
   227  2.26  0.  0.
   228  2.27  0.  0.
   229  2.28  0.  0.
   230  2.29  0.  0.
   231  2.30  0.  0.
   232  2.31  0.  0.
   233  2.32  0.  0.
   234  2.33  0.  0.
   235  2.34  0.  0.
   236  2.35  0.  0.
   237  2.36  0.  0.
   238  2.37  0.  0.
   239  2.38  0.  0.
   240  2.39  0.  0.
   241  2.40  0.  0.
   242  2.41  0.  0.
   243  2.42  0.  0.
   244  2.43  0.  0.
   245  2.44  0.  0.
   246  2.45  0.  0.
   247  2.46  0.  0.
   248  2.47  0.  0.
   249  2.48  0.  0.
   250  2.49  0.  0.
   251  2.50  0.  0.
   252  2.51  0.  0.
   253  2.52  0.  0.
   254  2.53  0.  0.
   255  2.54  0.  0.
   256  2.55  0.  0.
   257  2.56  0.  0.
   258  2.57  0.  0.
   259  2.58  0.  0.
   260  2.59  0.  0.
   261  2.60  0.  0.
   262  2.61  0.  0.
   263  2.62  0.  0.
   264  2.63  0.  0.
   265  2.64  0.  0.
   266  2.65  0.  0.
   267  2.66  0.  0.
   268  2.67  0.  0.
   269  2.68  0.  0.
   270  2.69  0.  0.
   271  2.70  0.  0.
   272  2.71  0.  0.
   273  2.72  0.  0.
   274  2.73  0.  0.
   275  2.74  0.  0.
   276  2.75  0.  0.
   277  2.76  0.  0.
   278  2.77  0.  0.
   279  2.78  0.  0.
   280  2.79  0.  0.
   281  2.80  0.  0.
   282  2.81  0.  0.
   283  2.82  0.  0.
   284  2.83  0.  0.
   285  2.84  0.  0.
   286  2.85  0.  0.
   287  2.86  0.  0.
   288  2.87  0.  0.
   289  2.88  0.  0.
   290  2.89  0.  0.
   291  2.90  0.  0.
   292  2.91  0.  0.
   293  2.92  0.  0.
   294  2.93  0.  0.
   295  2.94  0.  0.
   296  2.95  0.  0.
   297  2.96  0.  0.
   298  2.97  0.  0.
   299  2.98  0.  0.
   300  2.99  0.  0.
   301  3.00  0.  0.
   302  3.01  0.  0.
   303  3.02  0.  0.
   304  3.03  0.  0.
   305  3.04  0.  0.
   306  3.05  0.  0.
   307  3.06  0.  0.
   308  3.07  0.  0.
   309  3.08  0.  0.
   310  3.09  0.  0.
   311  3.10  0.  0.
   312  3.11  0.  0.
   313  3.12  0.  0.
   314  3.13  0.  0.
   315  3.14  0.  0.
   316  3.15  0.  0.
   317  3.16  0.  0.
   318  3.17  0.  0.
   319  3.18  0.  0.
   320  3.19  0.  0.
   321  3.20  0.  0.
   322  3.21  0.  0.
   323  3.22  0.  0.
   324  3.23  0.  0.
   325  3.24  0.  0.
   326  3.25  0.  0.
   327  3.26  0.  0.
   328  3.27  0.  0.
   329  3.28  0.  0.
   330  3.29  0.  0.
   331  3.30  0.  0.
   332  3.31  0.  0.
   333  3.32  0.  0.
   334  3.33  0.  0.
   335  3.34  0.  0.
   336  3.35  0.  0.
   337  3.36  0.  0.
   338  3.37  0.  0.
   339  3.38  0.  0.
   340  3.39  0.  0.
   341  3.40  0.  0.
   342  3.41  0.  0.
   343  3.42  0.  0.
   344  3.43  0.  0.
   345  3.44  0.  0.
   346  3.45  0.  0.
   347  3.46  0.  0.
   348  3.47  0.  0.
   349  3.48  0.  0.
   350  3.49  0.  0.
   351  3.50  0.  0.
   352  3.51  0.  0.
   353  3.52  0.  0.
   354  3.53  0.  0.
   355  3.54  0.  0.
   356  3.55  0.  0.
   357  3.56  0.  0.
   358  3.57  0.  0.
   359  3.58  0.  0.
   360  3.59  0.  0.
   361  3.60  0.  0.
   362  3.61  0.  0.
   363  3.62  0.  0.
   364  3.63  0.  0.
   365  3.64  0.  0.
   366  3.65  0.  0.
   367  3.66  0.  0.
   368  3.67  0.  0.
   369  3.68  0.  0.
   370  3.69  0.  0.
   371  3.70  0.  0.
   372  3.71  0.  0.
   373  3.72  0.  0.
   374  3.73  0.  0.
   375  3.74  0.  0.
   376  3.75  0.  0.
   377  3.76  0.  0.
   378  3.77  0.  0.
   379  3.78  0.  0.
   380  3.79  0.  0.
   381  3.80  0.  0.
   382  3.81  0.  0.
   383  3.82  0.  0.
   384  3.83  0.  0.
   385  3.84  0.  0.
   386  3.85  0.  0.
   387  3.86  0.  0.
   388  3.87  0.  0.
   389  3.88  0.  0.
   390  3.89  0.  0.
   391  3.90  0.  0.
   392  3.91  0.  0.
   393  3.92  0.  0.
   394  3.93  0.  0.
   395  3.94  0.  0.
   396  3.95  0.  0.
   397  3.96  0.  0.
   398  3.97  0.  0.
   399  3.98  0.  0.
   400  3.99  0.  0.
   1                         2.9259621886447E+00  4.2971607284888E-01
     1  0.0000000000000E+00 -4.9311448674372E-09  1.1463920354671E-08
     2  1.0000000000000E-02  1.6375472622808E-03 -4.8623340872754E-04
     3  2.0000000000000E-02  6.5470178873979E-03 -1.9483488253586E-03
     4  3.0000000000000E-02  1.4718806973471E-02 -4.3963514357808E-03
     5  4.0000000000000E-02  2.6136604712830E-02 -7.8461224437181E-03
     6  5.0000000000000E-02  4.0776954650712E-02 -1.2318252849596E-02
     7  6.0000000000000E-02  5.8608656393343E-02 -1.7836459950333E-02
     8  7.0000000000000E-02  7.9592033253011E-02 -2.4425634230239E-02
     9  8.0000000000000E-02  1.0367809024888E-01 -3.2109575777125E-02
    10  9.0000000000000E-02  1.3080759215265E-01 -4.0908489277899E-02
    11  1.0000000000000E-01  1.6091009476420E-01 -5.0836314761062E-02
    12  1.1000000000000E-01  1.9390296522998E-01 -6.1897977340015E-02
    13  1.2000000000000E-01  2.2969042890253E-01 -7.4086643103400E-02
    14  1.3000000000000E-01  2.6816268093264E-01 -8.7381069880879E-02
    15  1.4000000000000E-01  3.0919510046207E-01 -1.0174314083058E-01
    16  1.5000000000000E-01  3.5264760394048E-01 -1.1711566564700E-01
    17  1.6000000000000E-01  3.9836417175363E-01 -1.3342052874075E-01
    18  1.7000000000000E-01  4.4617257906649E-01 -1.5055725611109E-01
    19  1.8000000000000E-01  4.9588435762944E-01 -1.6840206299551E-01
    20  1.9000000000000E-01  5.4729501036242E-01 -1.8680743296387E-01
    21  2.0000000000000E-01  6.0018449493504E-01 -2.0560226620105E-01
    22  2.1000000000000E-01  6.5431798643155E-01 -2.2459262060339E-01
    23  2.2000000000000E-01  7.0944692267545E-01 -2.4356305434693E-01
    24  2.3000000000000E-01  7.6531032904346E-01 -2.6227856313760E-01
    25  2.4000000000000E-01  8.2163641278842E-01 -2.8048708981004E-01
    26  2.5000000000000E-01  8.7814441018011E-01 -2.9792256869327E-01
    27  2.6000000000000E-01  9.3454666332827E-01 -3.1430845259550E-01
    28  2.7000000000000E-01  9.9055089753407E-01 -3.2936165674984E-01
    29  2.8000000000000E-01  1.0458626645767E+00 -3.4279684196162E-01
    30  2.9000000000000E-01  1.1001879126193E+00 -3.5433094882537E-01
    31  3.0000000000000E-01  1.1532356395394E+00 -3.6368788651934E-01
    32  3.1000000000000E-01  1.2047205835518E+00 -3.7060327357193E-01
    33  3.2000000000000E-01  1.2543659030885E+00 -3.7482912431213E-01
    34  3.3000000000000E-01  1.3019057970818E+00 -3.7613837358993E-01
    35  3.4000000000000E-01  1.3470880170961E+00 -3.7432913384894E-01
    36  3.5000000000000E-01  1.3896762241906E+00 -3.6922858275194E-01
    37  3.6000000000000E-01  1.4294521459301E+00 -3.6069638624005E-01
    38  3.7000000000000E-01  1.4662174925650E+00 -3.4862757102111E-01
    39  3.8000000000000E-01  1.4997955959913E+00 -3.3295477184641E-01
    40  3.9000000000000E-01  1.5300327405866E+00 -3.1364979230341E-01
    41  4.0000000000000E-01  1.5567991612740E+00 -2.9072443293069E-01
    42  4.1000000000000E-01  1.5799896910607E+00 -2.6423055690806E-01
    43  4.2000000000000E-01  1.5995240476682E+00 -2.3425938101200E-01
    44  4.3000000000000E-01  1.6153467565597E+00 -2.0093999754642E-01
    45  4.4000000000000E-01  1.6274267154837E+00 -1.6443715113262E-01
    46  4.5000000000000E-01  1.6357564134274E+00 -1.2494831213535E-01
    47  4.6000000000000E-01  1.6403508244085E+00 -8.2700105674996E-02
    48  4.7000000000000E-01  1.6412460036613E+00 -3.7944171205635E-02
    49  4.8000000000000E-01  1.6384974203141E+00  9.0474578798268E-03
    50  4.9000000000000E-01  1.6321780664515E+00  5.7987352595822E-02
    51  5.0000000000000E-01  1.6223763873637E+00  1.0857795233202E-01
    52  5.1000000000000E-01  1.6091940816779E+00  1.6051697434199E-01
    53  5.2000000000000E-01  1.5927438228453E+00  2.1350284364174E-01
    54  5.3000000000000E-01  1.5731469550371E+00  2.6724001612468E-01
    55  5.4000000000000E-01  1.5505312168495E+00  3.2144406863842E-01
    56  5.5000000000000E-01  1.5250285452839E+00  3.7584643375728E-01
    57  5.6000000000000E-01  1.4967730102970E+00  4.3019866397425E-01
    58  5.7000000000000E-01  1.4658989268107E+00  4.8427611990918E-01
    59  5.8000000000000E-01  1.4325391865280E+00  5.3788098969844E-01
    60  5.9000000000000E-01  1.3968238462988E+00  5.9084456173655E-01
    61  6.0000000000000E-01  1.3588790032450E+00  6.4302869006770E-01
    62  6.1000000000000E-01  1.3188259795365E+00  6.9432641059884E-01
    63  6.2000000000000E-01  1.2767808317644E+00  7.4466168650731E-01
    64  6.3000000000000E-01  1.2328541914830E+00  7.9398828228563E-01
    65  6.4000000000000E-01  1.1871514348639E+00  8.4228778731796E-01
    66  6.5000000000000E-01  1.1397731707434E+00  8.8956683121362E-01
    67  6.6000000000000E-01  1.0908160278496E+00  9.3585355382426E-01
    68  6.7000000000000E-01  1.0403737138651E+00  9.8119341244058E-01
    69  6.8000000000000E-01  9.8853831143391E-01  1.0256444266194E+00
    70  6.9000000000000E-01  9.3540176942389E-01  1.0692719769765E+00
    71  7.0000000000000E-01  8.8105754189934E-01  1.1121432876863E+00
    72  7.1000000000000E-01  8.2560232248637E-01  1.1543217329882E+00
    73  7.2000000000000E-01  7.6913781825934E-01  1.1958611154196E+00
    74  7.3000000000000E-01  7.1177250504452E-01  1.2368000675364E+00
    75  7.4000000000000E-01  6.5362330519894E-01  1.2771567293884E+00
    76  7.5000000000000E-01  5.9481712952135E-01  1.3169238509174E+00
    77  7.6000000000000E-01  5.3549222699757E-01  1.3560644617313E+00
    78  7.7000000000000E-01  4.7579928954796E-01  1.3945082404851E+00
    79  7.8000000000000E-01  4.1590226377418E-01  1.4321487025219E+00
    80  7.9000000000000E-01  3.5597882780264E-01  1.4688413077608E+00
    81  8.0000000000000E-01  2.9622049857172E-01  1.5044025713868E+00
    82  8.1000000000000E-01  2.3683234315925E-01  1.5386102380927E+00
    83  8.2000000000000E-01  1.7803227681683E-01  1.5712045569127E+00
    84  8.3000000000000E-01  1.2004994007404E-01  1.6018906685753E+00
    85  8.4000000000000E-01  6.3125157379292E-02  1.6303420913403E+00
    86  8.5000000000000E-01  7.5059900290875E-03  1.6562052650571E+00
    87  8.6000000000000E-01 -4.6553593632961E-02  1.6791050872764E+00
    88  8.7000000000000E-01 -9.8796397830515E-02  1.6986513502668E+00
    89  8.8000000000000E-01 -1.4896498645830E-01  1.7144459643222E+00
    90  8.9000000000000E-01 -1.9680492669990E-01  1.7260908313472E+00
    91  9.0000000000000E-01 -2.4206823050046E-01  1.7331962139114E+00
    92  9.1000000000000E-01 -2.8451692871372E-01  1.7353894292366E+00
    93  9.2000000000000E-01 -3.2392670755264E-01  1.7323236853344E+00
    94  9.3000000000000E-01 -3.6009053325699E-01  1.7236868680926E+00
    95  9.4000000000000E-01 -3.9282218876017E-01  1.7092100837655E+00
    96  9.5000000000000E-01 -4.2195964566765E-01  1.6886757612373E+00
    97  9.6000000000000E-01 -4.4736819609063E-01  1.6619251226701E+00
    98  9.7000000000000E-01 -4.6894327181182E-01  1.6288648397007E+00
    99  9.8000000000000E-01 -4.8661288286074E-01  1.5894727051064E+00
   100  9.9000000000000E-01 -5.0033961376672E-01  1.5438021665956E+00
   101  1.0000000000000E+00 -5.1012212343150E-01  1.4919855898121E+00
   102  1.0100000000000E+00 -5.1599610356213E-01  1.4342361413437E+00
   103  1.0200000000000E+00 -5.1803466076974E-01  1.3708482090917E+00
   104  1.0300000000000E+00 -5.1634809854641E-01  1.3021963061854E+00
   105  1.0400000000000E+00 -5.1108308715000E-01  1.2287324351407E+00
   106  1.0500000000000E+00 -5.0242122172706E-01  1.1509819205604E+00
   107  1.0600000000000E+00 -4.9057698149816E-01  1.0695377506236E+00
   108  1.0700000000000E+00 -4.7579511524770E-01  9.8505349922778E-01
   109  1.0800000000000E+00 -4.5834749046719E-01  8.9823493132495E-01
   110  1.0900000000000E+00 -4.3852945495734E-01  8.0983042288529E-01
   111  1.1000000000000E+00 -4.1665577031964E-01  7.2062035356379E-01
   112  1.1100000000000E+00 -3.9305618625621E-01  6.3140565377536E-01
   113  1.1200000000000E+00 -3.6807073276444E-01  5.4299570804268E-01
   114  1.1300000000000E+00 -3.4204481395346E-01  4.5619583265573E-01
   115  1.1400000000000E+00 -3.1532419215572E-01  3.7179455746127E-01
   116  1.1500000000000E+00 -2.8824995414333E-01  2.9055094870497E-01
   117  1.1600000000000E+00 -2.6115355248747E-01  2.1318221204518E-01
   118  1.1700000000000E+00 -2.3435201437374E-01  1.4035181204305E-01
   119  1.1800000000000E+00 -2.0814340750694E-01  7.2658336625560E-02
   120  1.1900000000000E+00 -1.8280264814007E-01  1.0625322320742E-02
   121  1.2000000000000E+00 -1.5857772980481E-01 -4.5307761356804E-02
   122  1.2100000000000E+00 -1.3568644319054E-01 -9.4793191639084E-02
   123  1.2200000000000E+00 -1.1431364784707E-01 -1.3758118542210E-01
   124  1.2300000000000E+00 -9.4609145347775E-02 -1.7352448339133E-01
   125  1.2400000000000E+00 -7.6686191286626E-02 -2.0258123540155E-01
   126  1.2500000000000E+00 -6.0620670353305E-02 -2.2481613130787E-01
   127  1.2600000000000E+00 -4.6450945055465E-02 -2.4039975690258E-01
   128  1.2700000000000E+00 -3.4178374522224E-02 -2.4960619115917E-01
   129  1.2800000000000E+00 -2.3768485776036E-02 -2.5280889721022E-01
   130  1.2900000000000E+00 -1.5152766039060E-02 -2.5047499508751E-01
   131  1.3000000000000E+00 -8.2310358040162E-03 -2.4315801993696E-01
   132  1.3100000000000E+00 -2.8743173918518E-03 -2.3148943631000E-01
   133  1.3200000000000E+00  1.0707067997796E-03 -2.1616433558892E-01
   134  1.3300000000000E+00  3.7740381204858E-03 -1.9791512557562E-01
   135  1.3400000000000E+00  5.4160137047733E-03 -1.7749195140583E-01
   136  1.3500000000000E+00  6.1822430096742E-03 -1.5564894988084E-01
   137  1.3600000000000E+00  6.2584262676977E-03 -1.3313019137506E-01
   138  1.3700000000000E+00  5.8251539815401E-03 -1.1065565217100E-01
   139  1.3800000000000E+00  5.0529202705636E-03 -8.8907709965582E-02
   140  1.3900000000000E+00  4.0868102918245E-03 -6.8497938712647E-02
   141  1.4000000000000E+00  3.0495738800928E-03 -4.9969016964760E-02
   142  1.4100000000000E+00  2.0632459155059E-03 -3.3833486025899E-02
   143  1.4200000000000E+00  1.2215874034528E-03 -2.0518647034022E-02
   144  1.4300000000000E+00  5.8710197784855E-04 -1.0359711322678E-02
   145  1.4400000000000E+00  1.8704283641931E-04 -3.5686413424946E-03
   146  1.4500000000000E+00  1.7866661855195E-05 -3.8245506802586E-04
   147  1.4600000000000E+00 -1.8618012541018E-06  4.4885675275373E-05
   148  1.4700000000000E+00  4.5097791941471E-07 -1.0032360282435E-05
   149  1.48  0.  0.
   150  1.49  0.  0.
   151  1.50  0.  0.
   152  1.51  0.  0.
   153  1.52  0.  0.
   154  1.53  0.  0.
   155  1.54  0.  0.
   156  1.55  0.  0.
   157  1.56  0.  0.
   158  1.57  0.  0.
   159  1.58  0.  0.
   160  1.59  0.  0.
   161  1.60  0.  0.
   162  1.61  0.  0.
   163  1.62  0.  0.
   164  1.63  0.  0.
   165  1.64  0.  0.
   166  1.65  0.  0.
   167  1.66  0.  0.
   168  1.67  0.  0.
   169  1.68  0.  0.
   170  1.69  0.  0.
   171  1.70  0.  0.
   172  1.71  0.  0.
   173  1.72  0.  0.
   174  1.73  0.  0.
   175  1.74  0.  0.
   176  1.75  0.  0.
   177  1.76  0.  0.
   178  1.77  0.  0.
   179  1.78  0.  0.
   180  1.79  0.  0.
   181  1.80  0.  0.
   182  1.81  0.  0.
   183  1.82  0.  0.
   184  1.83  0.  0.
   185  1.84  0.  0.
   186  1.85  0.  0.
   187  1.86  0.  0.
   188  1.87  0.  0.
   189  1.88  0.  0.
   190  1.89  0.  0.
   191  1.90  0.  0.
   192  1.91  0.  0.
   193  1.92  0.  0.
   194  1.93  0.  0.
   195  1.94  0.  0.
   196  1.95  0.  0.
   197  1.96  0.  0.
   198  1.97  0.  0.
   199  1.98  0.  0.
   200  1.99  0.  0.
   201  2.00  0.  0.
   202  2.01  0.  0.
   203  2.02  0.  0.
   204  2.03  0.  0.
   205  2.04  0.  0.
   206  2.05  0.  0.
   207  2.06  0.  0.
   208  2.07  0.  0.
   209  2.08  0.  0.
   210  2.09  0.  0.
   211  2.10  0.  0.
   212  2.11  0.  0.
   213  2.12  0.  0.
   214  2.13  0.  0.
   215  2.14  0.  0.
   216  2.15  0.  0.
   217  2.16  0.  0.
   218  2.17  0.  0.
   219  2.18  0.  0.
   220  2.19  0.  0.
   221  2.20  0.  0.
   222  2.21  0.  0.
   223  2.22  0.  0.
   224  2.23  0.  0.
   225  2.24  0.  0.
   226  2.25  0.  0.
   227  2.26  0.  0.
   228  2.27  0.  0.
   229  2.28  0.  0.
   230  2.29  0.  0.
   231  2.30  0.  0.
   232  2.31  0.  0.
   233  2.32  0.  0.
   234  2.33  0.  0.
   235  2.34  0.  0.
   236  2.35  0.  0.
   237  2.36  0.  0.
   238  2.37  0.  0.
   239  2.38  0.  0.
   240  2.39  0.  0.
   241  2.40  0.  0.
   242  2.41  0.  0.
   243  2.42  0.  0.
   244  2.43  0.  0.
   245  2.44  0.  0.
   246  2.45  0.  0.
   247  2.46  0.  0.
   248  2.47  0.  0.
   249  2.48  0.  0.
   250  2.49  0.  0.
   251  2.50  0.  0.
   252  2.51  0.  0.
   253  2.52  0.  0.
   254  2.53  0.  0.
   255  2.54  0.  0.
   256  2.55  0.  0.
   257  2.56  0.  0.
   258  2.57  0.  0.
   259  2.58  0.  0.
   260  2.59  0.  0.
   261  2.60  0.  0.
   262  2.61  0.  0.
   263  2.62  0.  0.
   264  2.63  0.  0.
   265  2.64  0.  0.
   266  2.65  0.  0.
   267  2.66  0.  0.
   268  2.67  0.  0.
   269  2.68  0.  0.
   270  2.69  0.  0.
   271  2.70  0.  0.
   272  2.71  0.  0.
   273  2.72  0.  0.
   274  2.73  0.  0.
   275  2.74  0.  0.
   276  2.75  0.  0.
   277  2.76  0.  0.
   278  2.77  0.  0.
   279  2.78  0.  0.
   280  2.79  0.  0.
   281  2.80  0.  0.
   282  2.81  0.  0.
   283  2.82  0.  0.
   284  2.83  0.  0.
   285  2.84  0.  0.
   286  2.85  0.  0.
   287  2.86  0.  0.
   288  2.87  0.  0.
   289  2.88  0.  0.
   290  2.89  0.  0.
   291  2.90  0.  0.
   292  2.91  0.  0.
   293  2.92  0.  0.
   294  2.93  0.  0.
   295  2.94  0.  0.
   296  2.95  0.  0.
   297  2.96  0.  0.
   298  2.97  0.  0.
   299  2.98  0.  0.
   300  2.99  0.  0.
   301  3.00  0.  0.
   302  3.01  0.  0.
   303  3.02  0.  0.
   304  3.03  0.  0.
   305  3.04  0.  0.
   306  3.05  0.  0.
   307  3.06  0.  0.
   308  3.07  0.  0.
   309  3.08  0.  0.
   310  3.09  0.  0.
   311  3.10  0.  0.
   312  3.11  0.  0.
   313  3.12  0.  0.
   314  3.13  0.  0.