Cr    ONCVPSP-4.0.1  r_core=   1.30206   1.30206   1.70428
     24.0000     14.0000      231019    zatom,zion,pspd
     8       2   2     4   600     0    pspcod,pspxc,lmax,lloc,mmax,r2well
  5.99000000  5.00000000  0.00000000    rchrg fchrg qchrg
     2     2     2     0     0    nproj
     1     1           extension_switch
   0                         6.3625718666465E+00 -1.0643686085804E+00
     1  0.0000000000000E+00 -2.2858445136720E-09  3.3745693239773E-08
     2  1.0000000000000E-02  7.7893983851019E-02  5.3647583029678E-02
     3  2.0000000000000E-02  1.5559166851763E-01  1.0731209756754E-01
     4  3.0000000000000E-02  2.3289789073857E-01  1.6100085519213E-01
     5  4.0000000000000E-02  3.0961973712671E-01  2.1470224768303E-01
     6  5.0000000000000E-02  3.8556761478899E-01  2.6837707824147E-01
     7  6.0000000000000E-02  4.6055625846617E-01  3.2195081701060E-01
     8  7.0000000000000E-02  5.3440565581543E-01  3.7530704797295E-01
     9  8.0000000000000E-02  6.0694187474493E-01  4.2828234055697E-01
    10  9.0000000000000E-02  6.7799777944482E-01  4.8066273883054E-01
    11  1.0000000000000E-01  7.4741362486879E-01  5.3218201508210E-01
    12  1.1000000000000E-01  8.1503752281612E-01  5.8252178412775E-01
    13  1.2000000000000E-01  8.8072577635161E-01  6.3131352119589E-01
    14  1.3000000000000E-01  9.4434308297936E-01  6.7814247117342E-01
    15  1.4000000000000E-01  1.0057626106510E+00  7.2255338184270E-01
    16  1.5000000000000E-01  1.0648659542367E+00  7.6405793999736E-01
    17  1.6000000000000E-01  1.1215429834163E+00  8.0214373846904E-01
    18  1.7000000000000E-01  1.1756915959615E+00  8.3628455552571E-01
    19  1.8000000000000E-01  1.2272173929907E+00  8.6595168711267E-01
    20  1.9000000000000E-01  1.2760332949100E+00  8.9062603815115E-01
    21  2.0000000000000E-01  1.3220591183357E+00  9.0981065256892E-01
    22  2.1000000000000E-01  1.3652211352875E+00  9.2304334369625E-01
    23  2.2000000000000E-01  1.4054516362963E+00  9.2990907768043E-01
    24  2.3000000000000E-01  1.4426885187856E+00  9.3005176297900E-01
    25  2.4000000000000E-01  1.4768749211484E+00  9.2318510886724E-01
    26  2.5000000000000E-01  1.5079589213801E+00  9.0910223506554E-01
    27  2.6000000000000E-01  1.5358933169696E+00  8.8768374264181E-01
    28  2.7000000000000E-01  1.5606355000573E+00  8.5890399261393E-01
    29  2.8000000000000E-01  1.5821474386987E+00  8.2283538228915E-01
    30  2.9000000000000E-01  1.6003957715186E+00  7.7965045924769E-01
    31  3.0000000000000E-01  1.6153520191847E+00  7.2962176775012E-01
    32  3.1000000000000E-01  1.6269929120914E+00  6.7311938082106E-01
    33  3.2000000000000E-01  1.6353008295136E+00  6.1060613182222E-01
    34  3.3000000000000E-01  1.6402643414035E+00  5.4263062039873E-01
    35  3.4000000000000E-01  1.6418788400584E+00  4.6981812764738E-01
    36  3.5000000000000E-01  1.6401472452083E+00  3.9285963261770E-01
    37  3.6000000000000E-01  1.6350807627597E+00  3.1249917526845E-01
    38  3.7000000000000E-01  1.6266996745976E+00  2.2951985830723E-01
    39  3.8000000000000E-01  1.6150341345638E+00  1.4472882062203E-01
    40  3.9000000000000E-01  1.6001249440903E+00  5.8941547114506E-02
    41  4.0000000000000E-01  1.5820242800224E+00 -2.7034097286917E-02
    42  4.1000000000000E-01  1.5607963469562E+00 -1.1241370854909E-01
    43  4.2000000000000E-01  1.5365179269799E+00 -1.9645165573818E-01
    44  4.3000000000000E-01  1.5092788010311E+00 -2.7845546864419E-01
    45  4.4000000000000E-01  1.4791820181667E+00 -3.5779892325671E-01
    46  4.5000000000000E-01  1.4463439918362E+00 -4.3393347599149E-01
    47  4.6000000000000E-01  1.4108944057112E+00 -5.0639773561679E-01
    48  4.7000000000000E-01  1.3729759156676E+00 -5.7482470860309E-01
    49  4.8000000000000E-01  1.3327436390603E+00 -6.3894660803771E-01
    50  4.9000000000000E-01  1.2903644273642E+00 -6.9859707699779E-01
    51  5.0000000000000E-01  1.2460159234565E+00 -7.5371074288682E-01
    52  5.1000000000000E-01  1.1998854101707E+00 -8.0432008807589E-01
    53  5.2000000000000E-01  1.1521684621042E+00 -8.5054969252292E-01
    54  5.3000000000000E-01  1.1030674179012E+00 -8.9260797406836E-01
    55  5.4000000000000E-01  1.0527896951945E+00 -9.3077662001375E-01
    56  5.5000000000000E-01  1.0015459749623E+00 -9.6539796758893E-01
    57  5.6000000000000E-01  9.4954828610188E-01 -9.9686064929311E-01
    58  5.7000000000000E-01  8.9700802442771E-01 -1.0255838702590E+00
    59  5.8000000000000E-01  8.4413394297032E-01 -1.0520007273034E+00
    60  5.9000000000000E-01  7.9113015229002E-01 -1.0765410119580E+00
    61  6.0000000000000E-01  7.3819417046999E-01 -1.0996139615164E+00
    62  6.1000000000000E-01  6.8551506246396E-01 -1.1215914322539E+00
    63  6.2000000000000E-01  6.3327170752639E-01 -1.1427919670098E+00
    64  6.3000000000000E-01  5.8163123154638E-01 -1.1634662151282E+00
    65  6.4000000000000E-01  5.3074763826721E-01 -1.1837841364632E+00
    66  6.5000000000000E-01  4.8076066964871E-01 -1.2038243832562E+00
    67  6.6000000000000E-01  4.3179492109189E-01 -1.2235662049182E+00
    68  6.7000000000000E-01  3.8395923198756E-01 -1.2428841621776E+00
    69  6.8000000000000E-01  3.3734636618584E-01 -1.2615458699700E+00
    70  6.9000000000000E-01  2.9203299064115E-01 -1.2792129144160E+00
    71  7.0000000000000E-01  2.4807995381266E-01 -1.2954450099963E+00
    72  7.1000000000000E-01  2.0553285854735E-01 -1.3097073804905E+00
    73  7.2000000000000E-01  1.6442291730569E-01 -1.3213812634285E+00
    74  7.3000000000000E-01  1.2476807087350E-01 -1.3297773547798E+00
    75  7.4000000000000E-01  8.6574345303491E-02 -1.3341519304789E+00
    76  7.5000000000000E-01  4.9837415907874E-02 -1.3337253062168E+00
    77  7.6000000000000E-01  1.4544341830219E-02 -1.3277022286758E+00
    78  7.7000000000000E-01 -1.9324569799212E-02 -1.3152937318777E+00
    79  7.8000000000000E-01 -5.1793814751611E-02 -1.2957399432029E+00
    80  7.9000000000000E-01 -8.2890704893269E-02 -1.2683332863062E+00
    81  8.0000000000000E-01 -1.1264339250336E-01 -1.2324415037636E+00
    82  8.1000000000000E-01 -1.4107895495582E-01 -1.1875299116569E+00
    83  8.2000000000000E-01 -1.6822158826091E-01 -1.1331823019539E+00
    84  8.3000000000000E-01 -1.9409095604836E-01 -1.0691199266432E+00
    85  8.4000000000000E-01 -2.1870073751676E-01 -9.9521802993936E-01
    86  8.5000000000000E-01 -2.4205741372510E-01 -9.1151944096432E-01
    87  8.6000000000000E-01 -2.6415932644295E-01 -8.1824479823752E-01
    88  8.7000000000000E-01 -2.8499603771071E-01 -7.1579904787580E-01
    89  8.8000000000000E-01 -3.0454801141939E-01 -6.0477393809522E-01
    90  8.9000000000000E-01 -3.2278663075060E-01 -4.8594632164527E-01
    91  9.0000000000000E-01 -3.3967455738813E-01 -3.6027217318270E-01
    92  9.1000000000000E-01 -3.5516643020314E-01 -2.2887632811343E-01
    93  9.2000000000000E-01 -3.6920989281541E-01 -9.3038050773118E-02
    94  9.3000000000000E-01 -3.8174693123825E-01  4.5827359419700E-02
    95  9.4000000000000E-01 -3.9271549491920E-01  1.8619061745013E-01
    96  9.5000000000000E-01 -4.0205136708468E-01  3.2643375907780E-01
    97  9.6000000000000E-01 -4.0969024356410E-01  4.6487822063932E-01
    98  9.7000000000000E-01 -4.1556997337947E-01  5.9981513395755E-01
    99  9.8000000000000E-01 -4.1963290948867E-01  7.2953721489073E-01
   100  9.9000000000000E-01 -4.2182831429664E-01  8.5237157434455E-01
   101  1.0000000000000E+00 -4.2211476200089E-01  9.6671274562968E-01
   102  1.0100000000000E+00 -4.2046247859837E-01  1.0710552029657E+00
   103  1.0200000000000E+00 -4.1685556049349E-01  1.1640246433567E+00
   104  1.0300000000000E+00 -4.1129401413081E-01  1.2444073182758E+00
   105  1.0400000000000E+00 -4.0379556191871E-01  1.3111767325629E+00
   106  1.0500000000000E+00 -3.9439716385944E-01  1.3635170750681E+00
   107  1.0600000000000E+00 -3.8315620968169E-01  1.4008428080357E+00
   108  1.0700000000000E+00 -3.7015134278664E-01  1.4228139188577E+00
   109  1.0800000000000E+00 -3.5548288480163E-01  1.4293464266850E+00
   110  1.0900000000000E+00 -3.3927283788002E-01  1.4206178361642E+00
   111  1.1000000000000E+00 -3.2166445084930E-01  1.3970673383503E+00
   112  1.1100000000000E+00 -3.0282134474976E-01  1.3593906729006E+00
   113  1.1200000000000E+00 -2.8292620297958E-01  1.3085296830054E+00
   114  1.1300000000000E+00 -2.6217904095926E-01  1.2456567125926E+00
   115  1.1400000000000E+00 -2.4079507974597E-01  1.1721541116487E+00
   116  1.1500000000000E+00 -2.1900225711378E-01  1.0895892269339E+00
   117  1.1600000000000E+00 -1.9703841810393E-01  9.9968535985711E-01
   118  1.1700000000000E+00 -1.7514823469861E-01  9.0428926786129E-01
   119  1.1800000000000E+00 -1.5357991093510E-01  8.0533586848910E-01
   120  1.1900000000000E+00 -1.3258173528147E-01  7.0481087420792E-01
   121  1.2000000000000E+00 -1.1239854630036E-01  6.0471213930981E-01
   122  1.2100000000000E+00 -9.3268180450907E-02  5.0701053673215E-01
   123  1.2200000000000E+00 -7.5417972386710E-02  4.1361117980026E-01
   124  1.2300000000000E+00 -5.9061373737094E-02  3.2631596019948E-01
   125  1.2400000000000E+00 -4.4394784827646E-02  2.4678213205631E-01
   126  1.2500000000000E+00 -3.1594178225131E-02  1.7643774792883E-01
   127  1.2600000000000E+00 -2.0812527594838E-02  1.1658481961288E-01
   128  1.2700000000000E+00 -1.2178635330420E-02  6.8327323433295E-02
   129  1.2800000000000E+00 -5.7958664464826E-03  3.2519822308391E-02
   130  1.2900000000000E+00 -1.7276814064611E-03  9.6805376285439E-03
   131  1.3000000000000E+00 -8.3058745607912E-05  4.6397803384566E-04
   132  1.3100000000000E+00 -7.3810983476560E-07  4.1270093677436E-06
   133  1.3200000000000E+00  1.5935451915081E-06 -8.9195661352260E-06
   134  1.33 -0.  0.
   135  1.34  0.  0.
   136  1.35  0.  0.
   137  1.36  0.  0.
   138  1.37  0.  0.
   139  1.38  0.  0.
   140  1.39  0.  0.
   141  1.40  0.  0.
   142  1.41  0.  0.
   143  1.42  0.  0.
   144  1.43  0.  0.
   145  1.44  0.  0.
   146  1.45  0.  0.
   147  1.46  0.  0.
   148  1.47  0.  0.
   149  1.48  0.  0.
   150  1.49  0.  0.
   151  1.50  0.  0.
   152  1.51  0.  0.
   153  1.52  0.  0.
   154  1.53  0.  0.
   155  1.54  0.  0.
   156  1.55  0.  0.
   157  1.56  0.  0.
   158  1.57  0.  0.
   159  1.58  0.  0.
   160  1.59  0.  0.
   161  1.60  0.  0.
   162  1.61  0.  0.
   163  1.62  0.  0.
   164  1.63  0.  0.
   165  1.64  0.  0.
   166  1.65  0.  0.
   167  1.66  0.  0.
   168  1.67  0.  0.
   169  1.68  0.  0.
   170  1.69  0.  0.
   171  1.70  0.  0.
   172  1.71  0.  0.
   173  1.72  0.  0.
   174  1.73  0.  0.
   175  1.74  0.  0.
   176  1.75  0.  0.
   177  1.76  0.  0.
   178  1.77  0.  0.
   179  1.78  0.  0.
   180  1.79  0.  0.
   181  1.80  0.  0.
   182  1.81  0.  0.
   183  1.82  0.  0.
   184  1.83  0.  0.
   185  1.84  0.  0.
   186  1.85  0.  0.
   187  1.86  0.  0.
   188  1.87  0.  0.
   189  1.88  0.  0.
   190  1.89  0.  0.
   191  1.90  0.  0.
   192  1.91  0.  0.
   193  1.92  0.  0.
   194  1.93  0.  0.
   195  1.94  0.  0.
   196  1.95  0.  0.
   197  1.96  0.  0.
   198  1.97  0.  0.
   199  1.98  0.  0.
   200  1.99  0.  0.
   201  2.00  0.  0.
   202  2.01  0.  0.
   203  2.02  0.  0.
   204  2.03  0.  0.
   205  2.04  0.  0.
   206  2.05  0.  0.
   207  2.06  0.  0.
   208  2.07  0.  0.
   209  2.08  0.  0.
   210  2.09  0.  0.
   211  2.10  0.  0.
   212  2.11  0.  0.
   213  2.12  0.  0.
   214  2.13  0.  0.
   215  2.14  0.  0.
   216  2.15  0.  0.
   217  2.16  0.  0.
   218  2.17  0.  0.
   219  2.18  0.  0.
   220  2.19  0.  0.
   221  2.20  0.  0.
   222  2.21  0.  0.
   223  2.22  0.  0.
   224  2.23  0.  0.
   225  2.24  0.  0.
   226  2.25  0.  0.
   227  2.26  0.  0.
   228  2.27  0.  0.
   229  2.28  0.  0.
   230  2.29  0.  0.
   231  2.30  0.  0.
   232  2.31  0.  0.
   233  2.32  0.  0.
   234  2.33  0.  0.
   235  2.34  0.  0.
   236  2.35  0.  0.
   237  2.36  0.  0.
   238  2.37  0.  0.
   239  2.38  0.  0.
   240  2.39  0.  0.
   241  2.40  0.  0.
   242  2.41  0.  0.
   243  2.42  0.  0.
   244  2.43  0.  0.
   245  2.44  0.  0.
   246  2.45  0.  0.
   247  2.46  0.  0.
   248  2.47  0.  0.
   249  2.48  0.  0.
   250  2.49  0.  0.
   251  2.50  0.  0.
   252  2.51  0.  0.
   253  2.52  0.  0.
   254  2.53  0.  0.
   255  2.54  0.  0.
   256  2.55  0.  0.
   257  2.56  0.  0.
   258  2.57  0.  0.
   259  2.58  0.  0.
   260  2.59  0.  0.
   261  2.60  0.  0.
   262  2.61  0.  0.
   263  2.62  0.  0.
   264  2.63  0.  0.
   265  2.64  0.  0.
   266  2.65  0.  0.
   267  2.66  0.  0.
   268  2.67  0.  0.
   269  2.68  0.  0.
   270  2.69  0.  0.
   271  2.70  0.  0.
   272  2.71  0.  0.
   273  2.72  0.  0.
   274  2.73  0.  0.
   275  2.74  0.  0.
   276  2.75  0.  0.
   277  2.76  0.  0.
   278  2.77  0.  0.
   279  2.78  0.  0.
   280  2.79  0.  0.
   281  2.80  0.  0.
   282  2.81  0.  0.
   283  2.82  0.  0.
   284  2.83  0.  0.
   285  2.84  0.  0.
   286  2.85  0.  0.
   287  2.86  0.  0.
   288  2.87  0.  0.
   289  2.88  0.  0.
   290  2.89  0.  0.
   291  2.90  0.  0.
   292  2.91  0.  0.
   293  2.92  0.  0.
   294  2.93  0.  0.
   295  2.94  0.  0.
   296  2.95  0.  0.
   297  2.96  0.  0.
   298  2.97  0.  0.
   299  2.98  0.  0.
   300  2.99  0.  0.
   301  3.00  0.  0.
   302  3.01  0.  0.
   303  3.02  0.  0.
   304  3.03  0.  0.
   305  3.04  0.  0.
   306  3.05  0.  0.
   307  3.06  0.  0.
   308  3.07  0.  0.
   309  3.08  0.  0.
   310  3.09  0.  0.
   311  3.10  0.  0.
   312  3.11  0.  0.
   313  3.12  0.  0.
   314  3.13  0.  0.
   315  3.14  0.  0.
   316  3.15  0.  0.
   317  3.16  0.  0.
   318  3.17  0.  0.
   319  3.18  0.  0.
   320  3.19  0.  0.
   321  3.20  0.  0.
   322  3.21  0.  0.
   323  3.22  0.  0.
   324  3.23  0.  0.
   325  3.24  0.  0.
   326  3.25  0.  0.
   327  3.26  0.  0.
   328  3.27  0.  0.
   329  3.28  0.  0.
   330  3.29  0.  0.
   331  3.30  0.  0.
   332  3.31  0.  0.
   333  3.32  0.  0.
   334  3.33  0.  0.
   335  3.34  0.  0.
   336  3.35  0.  0.
   337  3.36  0.  0.
   338  3.37  0.  0.
   339  3.38  0.  0.
   340  3.39  0.  0.
   341  3.40  0.  0.
   342  3.41  0.  0.
   343  3.42  0.  0.
   344  3.43  0.  0.
   345  3.44  0.  0.
   346  3.45  0.  0.
   347  3.46  0.  0.
   348  3.47  0.  0.
   349  3.48  0.  0.
   350  3.49  0.  0.
   351  3.50  0.  0.
   352  3.51  0.  0.
   353  3.52  0.  0.
   354  3.53  0.  0.
   355  3.54  0.  0.
   356  3.55  0.  0.
   357  3.56  0.  0.
   358  3.57  0.  0.
   359  3.58  0.  0.
   360  3.59  0.  0.
   361  3.60  0.  0.
   362  3.61  0.  0.
   363  3.62  0.  0.
   364  3.63  0.  0.
   365  3.64  0.  0.
   366  3.65  0.  0.
   367  3.66  0.  0.
   368  3.67  0.  0.
   369  3.68  0.  0.
   370  3.69  0.  0.
   371  3.70  0.  0.
   372  3.71  0.  0.
   373  3.72  0.  0.
   374  3.73  0.  0.
   375  3.74  0.  0.
   376  3.75  0.  0.
   377  3.76  0.  0.
   378  3.77  0.  0.
   379  3.78  0.  0.
   380  3.79  0.  0.
   381  3.80  0.  0.
   382  3.81  0.  0.
   383  3.82  0.  0.
   384  3.83  0.  0.
   385  3.84  0.  0.
   386  3.85  0.  0.
   387  3.86  0.  0.
   388  3.87  0.  0.
   389  3.88  0.  0.
   390  3.89  0.  0.
   391  3.90  0.  0.
   392  3.91  0.  0.
   393  3.92  0.  0.
   394  3.93  0.  0.
   395  3.94  0.  0.
   396  3.95  0.  0.
   397  3.96  0.  0.
   398  3.97  0.  0.
   399  3.98  0.  0.
   400  3.99  0.  0.
   401  4.00  0.  0.
   402  4.01  0.  0.
   403  4.02  0.  0.
   404  4.03  0.  0.
   405  4.04  0.  0.
   406  4.05  0.  0.
   407  4.06  0.  0.
   408  4.07  0.  0.
   409  4.08  0.  0.
   410  4.09  0.  0.
   411  4.10  0.  0.
   412  4.11  0.  0.
   413  4.12  0.  0.
   414  4.13  0.  0.
   415  4.14  0.  0.
   416  4.15  0.  0.
   417  4.16  0.  0.
   418  4.17  0.  0.
   419  4.18  0.  0.
   420  4.19  0.  0.
   421  4.20  0.  0.
   422  4.21  0.  0.
   423  4.22  0.  0.
   424  4.23  0.  0.
   425  4.24  0.  0.
   426  4.25  0.  0.
   427  4.26  0.  0.
   428  4.27  0.  0.
   429  4.28  0.  0.
   430  4.29  0.  0.
   431  4.30  0.  0.
   432  4.31  0.  0.
   433  4.32  0.  0.
   434  4.33  0.  0.
   435  4.34  0.  0.
   436  4.35  0.  0.
   437  4.36  0.  0.
   438  4.37  0.  0.
   439  4.38  0.  0.
   440  4.39  0.  0.
   441  4.40  0.  0.
   442  4.41  0.  0.
   443  4.42  0.  0.
   444  4.43  0.  0.
   445  4.44  0.  0.
   446  4.45  0.  0.
   447  4.46  0.  0.
   448  4.47  0.  0.
   449  4.48  0.  0.
   450  4.49  0.  0.
   451  4.50  0.  0.
   452  4.51  0.  0.
   453  4.52  0.  0.
   454  4.53  0.  0.
   455  4.54  0.  0.
   456  4.55  0.  0.
   457  4.56  0.  0.
   458  4.57  0.  0.
   459  4.58  0.  0.
   460  4.59  0.  0.
   461  4.60  0.  0.
   462  4.61  0.  0.
   463  4.62  0.  0.
   464  4.63  0.  0.
   465  4.64  0.  0.
   466  4.65  0.  0.
   467  4.66  0.  0.
   468  4.67  0.  0.
   469  4.68  0.  0.
   470  4.69  0.  0.
   471  4.70  0.  0.
   472  4.71  0.  0.
   473  4.72  0.  0.
   474  4.73  0.  0.
   475  4.74  0.  0.
   476  4.75  0.  0.
   477  4.76  0.  0.
   478  4.77  0.  0.
   479  4.78  0.  0.
   480  4.79  0.  0.
   481  4.80  0.  0.
   482  4.81  0.  0.
   483  4.82  0.  0.
   484  4.83  0.  0.
   485  4.84  0.  0.
   486  4.85  0.  0.
   487  4.86  0.  0.
   488  4.87  0.  0.
   489  4.88  0.  0.
   490  4.89  0.  0.
   491  4.90  0.  0.
   492  4.91  0.  0.
   493  4.92  0.  0.
   494  4.93  0.  0.
   495  4.94  0.  0.
   496  4.95  0.  0.
   497  4.96  0.  0.
   498  4.97  0.  0.
   499  4.98  0.  0.
   500  4.99  0.  0.
   501  5.00  0.  0.
   502  5.01  0.  0.
   503  5.02  0.  0.
   504  5.03  0.  0.
   505  5.04  0.  0.
   506  5.05  0.  0.
   507  5.06  0.  0.
   508  5.07  0.  0.
   509  5.08  0.  0.
   510  5.09  0.  0.
   511  5.10  0.  0.
   512  5.11  0.  0.
   513  5.12  0.  0.
   514  5.13  0.  0.
   515  5.14  0.  0.
   516  5.15  0.  0.
   517  5.16  0.  0.
   518  5.17  0.  0.
   519  5.18  0.  0.
   520  5.19  0.  0.
   521  5.20  0.  0.
   522  5.21  0.  0.
   523  5.22  0.  0.
   524  5.23  0.  0.
   525  5.24  0.  0.
   526  5.25  0.  0.
   527  5.26  0.  0.
   528  5.27  0.  0.
   529  5.28  0.  0.
   530  5.29  0.  0.
   531  5.30  0.  0.
   532  5.31  0.  0.
   533  5.32  0.  0.
   534  5.33  0.  0.
   535  5.34  0.  0.
   536  5.35  0.  0.
   537  5.36  0.  0.
   538  5.37  0.  0.
   539  5.38  0.  0.
   540  5.39  0.  0.
   541  5.40  0.  0.
   542  5.41  0.  0.
   543  5.42  0.  0.
   544  5.43  0.  0.
   545  5.44  0.  0.
   546  5.45  0.  0.
   547  5.46  0.  0.
   548  5.47  0.  0.
   549  5.48  0.  0.
   550  5.49  0.  0.
   551  5.50  0.  0.
   552  5.51  0.  0.
   553  5.52  0.  0.
   554  5.53  0.  0.
   555  5.54  0.  0.
   556  5.55  0.  0.
   557  5.56  0.  0.
   558  5.57  0.  0.
   559  5.58  0.  0.
   560  5.59  0.  0.
   561  5.60  0.  0.
   562  5.61  0.  0.
   563  5.62  0.  0.
   564  5.63  0.  0.
   565  5.64  0.  0.
   566  5.65  0.  0.
   567  5.66  0.  0.
   568  5.67  0.  0.
   569  5.68  0.  0.
   570  5.69  0.  0.
   571  5.70  0.  0.
   572  5.71  0.  0.
   573  5.72  0.  0.
   574  5.73  0.  0.
   575  5.74  0.  0.
   576  5.75  0.  0.
   577  5.76  0.  0.
   578  5.77  0.  0.
   579  5.78  0.  0.
   580  5.79  0.  0.
   581  5.80  0.  0.
   582  5.81  0.  0.
   583  5.82  0.  0.
   584  5.83  0.  0.
   585  5.84  0.  0.
   586  5.85  0.  0.
   587  5.86  0.  0.
   588  5.87  0.  0.
   589  5.88  0.  0.
   590  5.89  0.  0.
   591  5.90  0.  0.
   592  5.91  0.  0.
   593  5.92  0.  0.
   594  5.93  0.  0.
   595  5.94  0.  0.
   596  5.95  0.  0.
   597  5.96  0.  0.
   598  5.97  0.  0.
   599  5.98  0.  0.
   600  5.99  0.  0.
   1                         1.0479791511529E+00 -8.6468988643899E-01
     1  0.0000000000000E+00  1.9610702145512E-08 -2.5369180228774E-09
     2  1.0000000000000E-02  3.6978472858846E-03  4.8344308976194E-04
     3  2.0000000000000E-02  1.4750260488303E-02  1.9368819920747E-03
     4  3.0000000000000E-02  3.3034470419567E-02  4.3695689009110E-03
     5  4.0000000000000E-02  5.8347906000797E-02  7.7966699658406E-03
     6  5.0000000000000E-02  9.0411219933649E-02  1.2238889284746E-02
     7  6.0000000000000E-02  1.2887244414810E-01  1.7721952889568E-02
     8  7.0000000000000E-02  1.7331219653830E-01  2.4275962864513E-02
     9  8.0000000000000E-02  2.2324984088792E-01  3.1934634273061E-02
    10  9.0000000000000E-02  2.7815048430551E-01  4.0734429847260E-02
    11  1.0000000000000E-01  3.3743268130172E-01  5.0713609363847E-02
    12  1.1000000000000E-01  4.0047670115415E-01  6.1911212256712E-02
    13  1.2000000000000E-01  4.6663320567695E-01  7.4365993261667E-02
    14  1.3000000000000E-01  5.3523217813501E-01  8.8115331732262E-02
    15  1.4000000000000E-01  6.0559194093898E-01  1.0319413568859E-01
    16  1.5000000000000E-01  6.7702809998787E-01  1.1963376165710E-01
    17  1.6000000000000E-01  7.4886225707415E-01  1.3746097092967E-01
    18  1.7000000000000E-01  8.2043033854729E-01  1.5669694202549E-01
    19  1.8000000000000E-01  8.9109039829678E-01  1.7735635789848E-01
    20  1.9000000000000E-01  9.6022976584179E-01  1.9944658482342E-01
    21  2.0000000000000E-01  1.0272714256273E+00  2.2296695795164E-01
    22  2.1000000000000E-01  1.0916795311898E+00  2.4790818629282E-01
    23  2.2000000000000E-01  1.1529639772894E+00  2.7425188740336E-01
    24  2.3000000000000E-01  1.2106839739866E+00  3.0197025939511E-01
    25  2.4000000000000E-01  1.2644505885201E+00  3.3102589508019E-01
    26  2.5000000000000E-01  1.3139282432455E+00  3.6137174019683E-01
    27  2.6000000000000E-01  1.3588351803302E+00  3.9295119477958E-01
    28  2.7000000000000E-01  1.3989429258962E+00  4.2569835390637E-01
    29  2.8000000000000E-01  1.4340748073678E+00  4.5953838133494E-01
    30  2.9000000000000E-01  1.4641035974704E+00  4.9438800698985E-01
    31  3.0000000000000E-01  1.4889483762096E+00  5.3015613693253E-01
    32  3.1000000000000E-01  1.5085707178439E+00  5.6674456239065E-01
    33  3.2000000000000E-01  1.5229703230188E+00  6.0404875268065E-01
    34  3.3000000000000E-01  1.5321802265570E+00  6.4195871546744E-01
    35  3.4000000000000E-01  1.5362617186852E+00  6.8035990679386E-01
    36  3.5000000000000E-01  1.5352991215563E+00  7.1913417270139E-01
    37  3.6000000000000E-01  1.5293945637133E+00  7.5816070406339E-01
    38  3.7000000000000E-01  1.5186628926136E+00  7.9731698646501E-01
    39  3.8000000000000E-01  1.5032268595605E+00  8.3647972758297E-01
    40  3.9000000000000E-01  1.4832127024810E+00  8.7552574552754E-01
    41  4.0000000000000E-01  1.4587462401635E+00  9.1433280298412E-01
    42  4.1000000000000E-01  1.4299495770705E+00  9.5278037369848E-01
    43  4.2000000000000E-01  1.3969385010101E+00  9.9075032984962E-01
    44  4.3000000000000E-01  1.3598206371480E+00  1.0281275410982E+00
    45  4.4000000000000E-01  1.3186944015020E+00  1.0648003785354E+00
    46  4.5000000000000E-01  1.2736487756391E+00  1.1006611193296E+00
    47  4.6000000000000E-01  1.2247639022730E+00  1.1356062505134E+00
    48  4.7000000000000E-01  1.1721124793511E+00  1.1695366730153E+00
    49  4.8000000000000E-01  1.1157619085156E+00  1.2023578096459E+00
    50  4.9000000000000E-01  1.0557771330467E+00  1.2339796232489E+00
    51  5.0000000000000E-01  9.9222408101329E-01  1.2643165535469E+00
    52  5.1000000000000E-01  9.2517361184007E-01  1.2932873833114E+00
    53  5.2000000000000E-01  8.5470584926715E-01  1.3208150463012E+00
    54  5.3000000000000E-01  7.8091477109878E-01  1.3468263909049E+00
    55  5.4000000000000E-01  7.0391291653853E-01  1.3712519145520E+00
    56  5.5000000000000E-01  6.2383606553558E-01  1.3940254846941E+00
    57  5.6000000000000E-01  5.4084774161432E-01  1.4150840624779E+00
    58  5.7000000000000E-01  4.5514339023089E-01  1.4343674451297E+00
    59  5.8000000000000E-01  3.6695408883848E-01  1.4518180425400E+00
    60  5.9000000000000E-01  2.7654965249544E-01  1.4673807025836E+00
    61  6.0000000000000E-01  1.8424100989739E-01  1.4810025983609E+00
    62  6.1000000000000E-01  9.0381738956004E-02  1.4926331888160E+00
    63  6.2000000000000E-01 -4.6313317924364E-03  1.5022242621203E+00
    64  6.3000000000000E-01 -1.0035852992940E-01  1.5097300688530E+00
    65  6.4000000000000E-01 -1.9631880611640E-01  1.5151075494056E+00
    66  6.5000000000000E-01 -2.9199228971995E-01  1.5183166572542E+00
    67  6.6000000000000E-01 -3.8682393670264E-01  1.5193207768389E+00
    68  6.7000000000000E-01 -4.8022824786375E-01  1.5180872318339E+00
    69  6.8000000000000E-01 -5.7159500987556E-01  1.5145878766549E+00
    70  6.9000000000000E-01 -6.6029598637177E-01  1.5087997611998E+00
    71  7.0000000000000E-01 -7.4569246217078E-01  1.5007058561331E+00
    72  7.1000000000000E-01 -8.2714352111739E-01  1.4902958235563E+00
    73  7.2000000000000E-01 -9.0401491752063E-01  1.4775668157391E+00
    74  7.3000000000000E-01 -9.7568838325526E-01  1.4625242827597E+00
    75  7.4000000000000E-01 -1.0415711977110E+00  1.4451827684841E+00
    76  7.5000000000000E-01 -1.1011058363062E+00  1.4255666733337E+00
    77  7.6000000000000E-01 -1.1537795055446E+00  1.4037109617971E+00
    78  7.7000000000000E-01 -1.1991333688231E+00  1.3796617926480E+00
    79  7.8000000000000E-01 -1.2367712675541E+00  1.3534770503583E+00
    80  7.9000000000000E-01 -1.2663677467201E+00  1.3252267572436E+00
    81  8.0000000000000E-01 -1.2876752027073E+00  1.2949933474396E+00
    82  8.1000000000000E-01 -1.3005299840723E+00  1.2628717858631E+00
    83  8.2000000000000E-01 -1.3048572925716E+00  1.2289695178248E+00
    84  8.3000000000000E-01 -1.3006747520593E+00  1.1934062378981E+00
    85  8.4000000000000E-01 -1.2880945363565E+00  1.1563134699481E+00
    86  8.5000000000000E-01 -1.2673239734961E+00  1.1178339538308E+00
    87  8.6000000000000E-01 -1.2386645723270E+00  1.0781208381175E+00
    88  8.7000000000000E-01 -1.2025094477795E+00  1.0373366821969E+00
    89  8.8000000000000E-01 -1.1593391525303E+00  9.9565227518858E-01
    90  8.9000000000000E-01 -1.1097159547369E+00  9.5324528317485E-01
    91  9.0000000000000E-01 -1.0542766332613E+00  9.1029874023196E-01
    92  9.1000000000000E-01 -9.9372389273298E-01  8.6699940254376E-01
    93  9.2000000000000E-01 -9.2881653022367E-01  8.2353598840953E-01
    94  9.3000000000000E-01 -8.6035851261955E-01  7.8009733014427E-01
    95  9.4000000000000E-01 -7.8918714834896E-01  7.3687046663234E-01
    96  9.5000000000000E-01 -7.1616055842669E-01  6.9403870756606E-01
    97  9.6000000000000E-01 -6.4214466930639E-01  6.5177970212228E-01
    98  9.7000000000000E-01 -5.6799996336992E-01  6.1026354594831E-01
    99  9.8000000000000E-01 -4.9456823169006E-01  5.6965096080869E-01
   100  9.9000000000000E-01 -4.2265957772820E-01  5.3009158105830E-01
   101  1.0000000000000E+00 -3.5303991971706E-01  4.9172238024218E-01
   102  1.0100000000000E+00 -2.8641923356628E-01  4.5466626957787E-01
   103  1.0200000000000E+00 -2.2344076727191E-01  4.1903089786827E-01
   104  1.0300000000000E+00 -1.6467144215562E-01  3.8490767954751E-01
   105  1.0400000000000E+00 -1.1059363602748E-01  3.5237107411934E-01
   106  1.0500000000000E+00 -6.1598518951379E-02  3.2147813626590E-01
   107  1.0600000000000E+00 -1.7981084082209E-02  2.9226835144441E-01
   108  1.0700000000000E+00  2.0063015459390E-02  2.6476376692508E-01
   109  1.0800000000000E+00  5.2438746803912E-02  2.3896942305610E-01
   110  1.0900000000000E+00  7.9151054026478E-02  2.1487408413434E-01
   111  1.1000000000000E+00  1.0030228815693E-01  1.9245126274933E-01
   112  1.1100000000000E+00  1.1608774550797E-01  1.7166052592300E-01
   113  1.1200000000000E+00  1.2678938729302E-01  1.5244906591444E-01
   114  1.1300000000000E+00  1.3276785056996E-01  1.3475351329653E-01
   115  1.1400000000000E+00  1.3445289602098E-01  1.1850196493478E-01
   116  1.1500000000000E+00  1.3233247111940E-01  1.0361619492346E-01
   117  1.1600000000000E+00  1.2694059732460E-01  9.0014012430598E-02
   118  1.1700000000000E+00  1.1884431631406E-01  7.7611726876696E-02
   119  1.1800000000000E+00  1.0862995246634E-01  6.6326677979796E-02
   120  1.1900000000000E+00  9.6888966328863E-02  5.6079786012592E-02
   121  1.2000000000000E+00  8.4203686243679E-02  4.6798076185062E-02
   122  1.2100000000000E+00  7.1133212431891E-02  3.8417130420587E-02
   123  1.2200000000000E+00  5.8199750229440E-02  3.0883429569469E-02
   124  1.2300000000000E+00  4.5875923599235E-02  2.4156473245945E-02
   125  1.2400000000000E+00  3.4562269982931E-02  1.8213325228621E-02
   126  1.2500000000000E+00  2.4485105781544E-02  1.3071757085799E-02
   127  1.2600000000000E+00  1.5925875510934E-02  8.7345072268430E-03
   128  1.2700000000000E+00  9.1249363423687E-03  5.2130850862993E-03
   129  1.2800000000000E+00  4.2145266283260E-03  2.5436819421547E-03
   130  1.2900000000000E+00  1.2080362296659E-03  7.8096634690748E-04
   131  1.3000000000000E+00  5.4961467301198E-05  3.8969179971318E-05
   132  1.3100000000000E+00  4.9430873135596E-07  3.4378035921687E-07
   133  1.3200000000000E+00 -1.0917523624862E-06 -7.3083374444694E-07
   134  1.33  0.  0.
   135  1.34  0.  0.
   136  1.35  0.  0.
   137  1.36  0.  0.
   138  1.37  0.  0.
   139  1.38  0.  0.
   140  1.39  0.  0.
   141  1.40  0.  0.
   142  1.41  0.  0.
   143  1.42  0.  0.
   144  1.43  0.  0.
   145  1.44  0.  0.
   146  1.45  0.  0.
   147  1.46  0.  0.
   148  1.47  0.  0.
   149  1.48  0.  0.
   150  1.49  0.  0.
   151  1.50  0.  0.
   152  1.51  0.  0.
   153  1.52  0.  0.
   154  1.53  0.  0.
   155  1.54  0.  0.
   156  1.55  0.  0.
   157  1.56  0.  0.
   158  1.57  0.  0.
   159  1.58  0.  0.
   160  1.59  0.  0.
   161  1.60  0.  0.
   162  1.61  0.  0.
   163  1.62  0.  0.
   164  1.63  0.  0.
   165  1.64  0.  0.
   166  1.65  0.  0.
   167  1.66  0.  0.
   168  1.67  0.  0.
   169  1.68  0.  0.
   170  1.69  0.  0.
   171  1.70  0.  0.
   172  1.71  0.  0.
   173  1.72  0.  0.
   174  1.73  0.  0.
   175  1.74  0.  0.
   176  1.75  0.  0.
   177  1.76  0.  0.
   178  1.77  0.  0.
   179  1.78  0.  0.
   180  1.79  0.  0.
   181  1.80  0.  0.
   182  1.81  0.  0.
   183  1.82  0.  0.
   184  1.83  0.  0.
   185  1.84  0.  0.