Cr    ONCVPSP-4.0.1  r_core=   1.30206   1.30206   1.70428
     24.0000     14.0000      250925    zatom,zion,pspd
     8   -1012   2     4   600     0    pspcod,pspxc,lmax,lloc,mmax,r2well
  5.99000000  5.00000000  0.00000000    rchrg fchrg qchrg
     2     2     2     0    nproj
     3     1           extension_switch
     3     4     0    nprojso
   0                         6.3596324723742E+00 -1.0693867383409E+00
     1  0.0000000000000E+00 -2.3026101025891E-09  3.3700161772288E-08
     2  1.0000000000000E-02  7.7851152323703E-02  5.3709745627253E-02
     3  2.0000000000000E-02  1.5550609763898E-01  1.0743575502347E-01
     4  3.0000000000000E-02  2.3276976904361E-01  1.6118468929049E-01
     5  4.0000000000000E-02  3.0944935772052E-01  2.1494432379181E-01
     6  5.0000000000000E-02  3.8535538728013E-01  2.6867489525466E-01
     7  6.0000000000000E-02  4.6030272417506E-01  3.2230137182647E-01
     8  7.0000000000000E-02  5.3411150568183E-01  3.7570691276927E-01
     9  8.0000000000000E-02  6.0660796924636E-01  4.2872775077555E-01
    10  9.0000000000000E-02  6.7762516974653E-01  4.8114968948854E-01
    11  1.0000000000000E-01  7.4700357435637E-01  5.3270636279502E-01
    12  1.1000000000000E-01  8.1459152811846E-01  5.8307935206439E-01
    13  1.2000000000000E-01  8.8024558694435E-01  6.3190020409326E-01
    14  1.3000000000000E-01  9.4383071846887E-01  6.7875433752240E-01
    15  1.4000000000000E-01  1.0052203748761E+00  7.2318677041399E-01
    16  1.5000000000000E-01  1.0642964453891E+00  7.6470954801031E-01
    17  1.6000000000000E-01  1.1209490994688E+00  8.0281069891023E-01
    18  1.7000000000000E-01  1.1750765348047E+00  8.3696450139535E-01
    19  1.8000000000000E-01  1.2265846468108E+00  8.6664280070727E-01
    20  1.9000000000000E-01  1.2753866384859E+00  8.9132708387285E-01
    21  2.0000000000000E-01  1.3214025910970E+00  9.1052099217633E-01
    22  2.1000000000000E-01  1.3645590171402E+00  9.2376293336649E-01
    23  2.2000000000000E-01  1.4047884173985E+00  9.3063844672739E-01
    24  2.3000000000000E-01  1.4420288636231E+00  9.3079197455584E-01
    25  2.4000000000000E-01  1.4762236274297E+00  9.2393770345882E-01
    26  2.5000000000000E-01  1.5073208744217E+00  9.0986915803864E-01
    27  2.6000000000000E-01  1.5352734403848E+00  8.8846725755295E-01
    28  2.7000000000000E-01  1.5600387036818E+00  8.5970658236794E-01
    29  2.8000000000000E-01  1.5815785647874E+00  8.2365964058399E-01
    30  2.9000000000000E-01  1.5998595403170E+00  7.8049897502425E-01
    31  3.0000000000000E-01  1.6148529750287E+00  7.3049700558275E-01
    32  3.1000000000000E-01  1.6265353712003E+00  6.7402356032723E-01
    33  3.2000000000000E-01  1.6348888306296E+00  6.1154110923800E-01
    34  3.3000000000000E-01  1.6399016003831E+00  5.4359777545242E-01
    35  3.4000000000000E-01  1.6415687094467E+00  4.7081825877326E-01
    36  3.5000000000000E-01  1.6398926797218E+00  3.9389286338119E-01
    37  3.6000000000000E-01  1.6348842914760E+00  3.1356487463044E-01
    38  3.7000000000000E-01  1.6265633804924E+00  2.3061657704316E-01
    39  3.8000000000000E-01  1.6149596418669E+00  1.4585424583760E-01
    40  3.9000000000000E-01  1.6001134137430E+00  6.0092476374613E-02
    41  4.0000000000000E-01  1.5820764133189E+00 -2.5861761167248E-02
    42  4.1000000000000E-01  1.5609123972509E+00 -1.1122494150114E-01
    43  4.2000000000000E-01  1.5366977191345E+00 -1.9525227518952E-01
    44  4.3000000000000E-01  1.5095217580817E+00 -2.7725207550972E-01
    45  4.4000000000000E-01  1.4794871944986E+00 -3.5659882417358E-01
    46  4.5000000000000E-01  1.4467101119858E+00 -4.3274458729515E-01
    47  4.6000000000000E-01  1.4113199077594E+00 -5.0522847101605E-01
    48  4.7000000000000E-01  1.3734589980651E+00 -5.7368385293057E-01
    49  4.8000000000000E-01  1.3332823096270E+00 -6.3784317981265E-01
    50  4.9000000000000E-01  1.2909565531354E+00 -6.9754018283630E-01
    51  5.0000000000000E-01  1.2466592800222E+00 -7.5270942701911E-01
    52  5.1000000000000E-01  1.2005777291508E+00 -8.0338318037702E-01
    53  5.2000000000000E-01  1.1529074754482E+00 -8.4968565852652E-01
    54  5.3000000000000E-01  1.1038508977713E+00 -8.9182477041274E-01
    55  5.4000000000000E-01  1.0536154883027E+00 -9.3008155866331E-01
    56  5.5000000000000E-01  1.0024120303722E+00 -9.6479759198550E-01
    57  5.6000000000000E-01  9.5045267567795E-01 -9.9636062532485E-01
    58  5.7000000000000E-01  8.9794895530931E-01 -1.0251888945946E+00
    59  5.8000000000000E-01  8.4510976166320E-01 -1.0517144552355E+00
    60  5.9000000000000E-01  7.9213934020091E-01 -1.0763660064410E+00
    61  6.0000000000000E-01  7.3923533094947E-01 -1.0995516645805E+00
    62  6.1000000000000E-01  6.8658689966743E-01 -1.1216421594435E+00
    63  6.2000000000000E-01  6.3437299764409E-01 -1.1429549249416E+00
    64  6.3000000000000E-01  5.8276078718570E-01 -1.1637395417055E+00
    65  6.4000000000000E-01  5.3190426698705E-01 -1.1841649627364E+00
    66  6.5000000000000E-01  4.8194312784084E-01 -1.2043089153895E+00
    67  6.6000000000000E-01  4.3300186457285E-01 -1.2241498242367E+00
    68  6.7000000000000E-01  3.8518916480091E-01 -1.2435615408219E+00
    69  6.8000000000000E-01  3.3859758921513E-01 -1.2623110993059E+00
    70  6.9000000000000E-01  2.9330355169483E-01 -1.2800596430316E+00
    71  7.0000000000000E-01  2.4936760086113E-01 -1.2963665878829E+00
    72  7.1000000000000E-01  2.0683499776805E-01 -1.3106970058513E+00
    73  7.2000000000000E-01  1.6573657752361E-01 -1.3224321284944E+00
    74  7.3000000000000E-01  1.2608987587328E-01 -1.3308827870367E+00
    75  7.4000000000000E-01  8.7900495336513E-02 -1.3353055258274E+00
    76  7.5000000000000E-01  5.1163679526476E-02 -1.3349210507875E+00
    77  7.6000000000000E-01  1.5866058955460E-02 -1.3289346063084E+00
    78  7.7000000000000E-01 -1.8012472925518E-02 -1.3165578146365E+00
    79  7.8000000000000E-01 -5.0496798359544E-02 -1.2970314627280E+00
    80  7.9000000000000E-01 -8.1614576148590E-02 -1.2696486842891E+00
    81  8.0000000000000E-01 -1.1139425387722E-01 -1.2337779603668E+00
    82  8.1000000000000E-01 -1.3986314104703E-01 -1.1888853512613E+00
    83  8.2000000000000E-01 -1.6704559192509E-01 -1.1345553762023E+00
    84  8.3000000000000E-01 -1.9296134498446E-01 -1.0705099753322E+00
    85  8.4000000000000E-01 -2.1762406273809E-01 -9.9662502089063E-01
    86  8.5000000000000E-01 -2.4104011159262E-01 -9.1294389055322E-01
    87  8.6000000000000E-01 -2.6320761615600E-01 -8.1968767477155E-01
    88  8.7000000000000E-01 -2.8411581632859E-01 -7.1726166047064E-01
    89  8.8000000000000E-01 -3.0374474862137E-01 -6.0625781409244E-01
    90  8.9000000000000E-01 -3.2206526562775E-01 -4.8745307593446E-01
    91  9.0000000000000E-01 -3.3903939959423E-01 -3.6180337302771E-01
    92  9.1000000000000E-01 -3.5462106777254E-01 -2.3043335722867E-01
    93  9.2000000000000E-01 -3.6875710888218E-01 -9.4621976449661E-02
    94  9.3000000000000E-01 -3.8138863176319E-01  4.4215912382778E-02
    95  9.4000000000000E-01 -3.9245264935243E-01  1.8455158239070E-01
    96  9.5000000000000E-01 -4.0188396366329E-01  3.2476772930658E-01
    97  9.6000000000000E-01 -4.0961726067208E-01  4.6318653439929E-01
    98  9.7000000000000E-01 -4.1558936808576E-01  5.9809993983925E-01
    99  9.8000000000000E-01 -4.1974162403526E-01  7.2780151550664E-01
   100  9.9000000000000E-01 -4.2202230093958E-01  8.5061924659572E-01
   101  1.0000000000000E+00 -4.2238902622090E-01  9.6494853647534E-01
   102  1.0100000000000E+00 -4.2081114030261E-01  1.0692847002173E+00
   103  1.0200000000000E+00 -4.1727193243567E-01  1.1622542216463E+00
   104  1.0300000000000E+00 -4.1177069639128E-01  1.2426440609800E+00
   105  1.0400000000000E+00 -4.0432455091914E-01  1.3094283310820E+00
   106  1.0500000000000E+00 -3.9496997404646E-01  1.3617917074509E+00
   107  1.0600000000000E+00 -3.8376400570863E-01  1.3991489994861E+00
   108  1.0700000000000E+00 -3.7078507975970E-01  1.4211603871494E+00
   109  1.0800000000000E+00 -3.5613345394331E-01  1.4277419159322E+00
   110  1.0900000000000E+00 -3.3993121480352E-01  1.4190709427339E+00
   111  1.1000000000000E+00 -3.2232184353760E-01  1.3955863329538E+00
   112  1.1100000000000E+00 -3.0346933829506E-01  1.3579833230547E+00
   113  1.1200000000000E+00 -2.8355689816467E-01  1.3072030801094E+00
   114  1.1300000000000E+00 -2.6278518385212E-01  1.2444171078138E+00
   115  1.1400000000000E+00 -2.4137017963156E-01  1.1710067646614E+00
   116  1.1500000000000E+00 -2.1954069030004E-01  1.0885382713027E+00
   117  1.1600000000000E+00 -1.9753551540777E-01  9.9873368851048E-01
   118  1.1700000000000E+00 -1.7560035073803E-01  9.0343844167147E-01
   119  1.1800000000000E+00 -1.5398447371777E-01  8.0458605046285E-01
   120  1.1900000000000E+00 -1.3293727498141E-01  7.0416079122280E-01
   121  1.2000000000000E+00 -1.1270470254385E-01  6.0415907270529E-01
   122  1.2100000000000E+00 -9.3525687881719E-02  5.0655034240428E-01
   123  1.2200000000000E+00 -7.5628624726990E-02  4.1323833778035E-01
   124  1.2300000000000E+00 -5.9227967094416E-02  3.2602365291581E-01
   125  1.2400000000000E+00 -4.4521038041658E-02  2.4656235345068E-01
   126  1.2500000000000E+00 -3.1684606269576E-02  1.7628146608278E-01
   127  1.2600000000000E+00 -2.0872372690446E-02  1.1648208527095E-01
   128  1.2700000000000E+00 -1.2213757756626E-02  6.8267429918292E-02
   129  1.2800000000000E+00 -5.8126066508405E-03  3.2491497896074E-02
   130  1.2900000000000E+00 -1.7326770076346E-03  9.6722122324711E-03
   131  1.3000000000000E+00 -8.3303263103524E-05  4.6362929785672E-04
   132  1.3100000000000E+00 -7.4021513910287E-07  4.1231883707584E-06
   133  1.3200000000000E+00  1.5980809414284E-06 -8.9111753239522E-06
   134  1.33  0.  0.
   135  1.34  0.  0.
   136  1.35  0.  0.
   137  1.36  0.  0.
   138  1.37  0.  0.
   139  1.38  0.  0.
   140  1.39  0.  0.
   141  1.40  0.  0.
   142  1.41  0.  0.
   143  1.42  0.  0.
   144  1.43  0.  0.
   145  1.44  0.  0.
   146  1.45  0.  0.
   147  1.46  0.  0.
   148  1.47  0.  0.
   149  1.48  0.  0.
   150  1.49  0.  0.
   151  1.50  0.  0.
   152  1.51  0.  0.
   153  1.52  0.  0.
   154  1.53  0.  0.
   155  1.54  0.  0.
   156  1.55  0.  0.
   157  1.56  0.  0.
   158  1.57  0.  0.
   159  1.58  0.  0.
   160  1.59  0.  0.
   161  1.60  0.  0.
   162  1.61  0.  0.
   163  1.62  0.  0.
   164  1.63  0.  0.
   165  1.64  0.  0.
   166  1.65  0.  0.
   167  1.66  0.  0.
   168  1.67  0.  0.
   169  1.68  0.  0.
   170  1.69  0.  0.
   171  1.70  0.  0.
   172  1.71  0.  0.
   173  1.72  0.  0.
   174  1.73  0.  0.
   175  1.74  0.  0.
   176  1.75  0.  0.
   177  1.76  0.  0.
   178  1.77  0.  0.
   179  1.78  0.  0.
   180  1.79  0.  0.
   181  1.80  0.  0.
   182  1.81  0.  0.
   183  1.82  0.  0.
   184  1.83  0.  0.
   185  1.84  0.  0.
   186  1.85  0.  0.
   187  1.86  0.  0.
   188  1.87  0.  0.
   189  1.88  0.  0.
   190  1.89  0.  0.
   191  1.90  0.  0.
   192  1.91  0.  0.
   193  1.92  0.  0.
   194  1.93  0.  0.
   195  1.94  0.  0.
   196  1.95  0.  0.
   197  1.96  0.  0.
   198  1.97  0.  0.
   199  1.98  0.  0.
   200  1.99  0.  0.
   201  2.00  0.  0.
   202  2.01  0.  0.
   203  2.02  0.  0.
   204  2.03  0.  0.
   205  2.04  0.  0.
   206  2.05  0.  0.
   207  2.06  0.  0.
   208  2.07  0.  0.
   209  2.08  0.  0.
   210  2.09  0.  0.
   211  2.10  0.  0.
   212  2.11  0.  0.
   213  2.12  0.  0.
   214  2.13  0.  0.
   215  2.14  0.  0.
   216  2.15  0.  0.
   217  2.16  0.  0.
   218  2.17  0.  0.
   219  2.18  0.  0.
   220  2.19  0.  0.
   221  2.20  0.  0.
   222  2.21  0.  0.
   223  2.22  0.  0.
   224  2.23  0.  0.
   225  2.24  0.  0.
   226  2.25  0.  0.
   227  2.26  0.  0.
   228  2.27  0.  0.
   229  2.28  0.  0.
   230  2.29  0.  0.
   231  2.30  0.  0.
   232  2.31  0.  0.
   233  2.32  0.  0.
   234  2.33  0.  0.
   235  2.34  0.  0.
   236  2.35  0.  0.
   237  2.36  0.  0.
   238  2.37  0.  0.
   239  2.38  0.  0.
   240  2.39  0.  0.
   241  2.40  0.  0.
   242  2.41  0.  0.
   243  2.42  0.  0.
   244  2.43  0.  0.
   245  2.44  0.  0.
   246  2.45  0.  0.
   247  2.46  0.  0.
   248  2.47  0.  0.
   249  2.48  0.  0.
   250  2.49  0.  0.
   251  2.50  0.  0.
   252  2.51  0.  0.
   253  2.52  0.  0.
   254  2.53  0.  0.
   255  2.54  0.  0.
   256  2.55  0.  0.
   257  2.56  0.  0.
   258  2.57  0.  0.
   259  2.58  0.  0.
   260  2.59  0.  0.
   261  2.60  0.  0.
   262  2.61  0.  0.
   263  2.62  0.  0.
   264  2.63  0.  0.
   265  2.64  0.  0.
   266  2.65  0.  0.
   267  2.66  0.  0.
   268  2.67  0.  0.
   269  2.68  0.  0.
   270  2.69  0.  0.
   271  2.70  0.  0.
   272  2.71  0.  0.
   273  2.72  0.  0.
   274  2.73  0.  0.
   275  2.74  0.  0.
   276  2.75  0.  0.
   277  2.76  0.  0.
   278  2.77  0.  0.
   279  2.78  0.  0.
   280  2.79  0.  0.
   281  2.80  0.  0.
   282  2.81  0.  0.
   283  2.82  0.  0.
   284  2.83  0.  0.
   285  2.84  0.  0.
   286  2.85  0.  0.
   287  2.86  0.  0.
   288  2.87  0.  0.
   289  2.88  0.  0.
   290  2.89  0.  0.
   291  2.90  0.  0.
   292  2.91  0.  0.
   293  2.92  0.  0.
   294  2.93  0.  0.
   295  2.94  0.  0.
   296  2.95  0.  0.
   297  2.96  0.  0.
   298  2.97  0.  0.
   299  2.98  0.  0.
   300  2.99  0.  0.
   301  3.00  0.  0.
   302  3.01  0.  0.
   303  3.02  0.  0.
   304  3.03  0.  0.
   305  3.04  0.  0.
   306  3.05  0.  0.
   307  3.06  0.  0.
   308  3.07  0.  0.
   309  3.08  0.  0.
   310  3.09  0.  0.
   311  3.10  0.  0.
   312  3.11  0.  0.
   313  3.12  0.  0.
   314  3.13  0.  0.
   315  3.14  0.  0.
   316  3.15  0.  0.
   317  3.16  0.  0.
   318  3.17  0.  0.
   319  3.18  0.  0.
   320  3.19  0.  0.
   321  3.20  0.  0.
   322  3.21  0.  0.
   323  3.22  0.  0.
   324  3.23  0.  0.
   325  3.24  0.  0.
   326  3.25  0.  0.
   327  3.26  0.  0.
   328  3.27  0.  0.
   329  3.28  0.  0.
   330  3.29  0.  0.
   331  3.30  0.  0.
   332  3.31  0.  0.
   333  3.32  0.  0.
   334  3.33  0.  0.
   335  3.34  0.  0.
   336  3.35  0.  0.
   337  3.36  0.  0.
   338  3.37  0.  0.
   339  3.38  0.  0.
   340  3.39  0.  0.
   341  3.40  0.  0.
   342  3.41  0.  0.
   343  3.42  0.  0.
   344  3.43  0.  0.
   345  3.44  0.  0.
   346  3.45  0.  0.
   347  3.46  0.  0.
   348  3.47  0.  0.
   349  3.48  0.  0.
   350  3.49  0.  0.
   351  3.50  0.  0.
   352  3.51  0.  0.
   353  3.52  0.  0.
   354  3.53  0.  0.
   355  3.54  0.  0.
   356  3.55  0.  0.
   357  3.56  0.  0.
   358  3.57  0.  0.
   359  3.58  0.  0.
   360  3.59  0.  0.
   361  3.60  0.  0.
   362  3.61  0.  0.
   363  3.62  0.  0.
   364  3.63  0.  0.
   365  3.64  0.  0.
   366  3.65  0.  0.
   367  3.66  0.  0.
   368  3.67  0.  0.
   369  3.68  0.  0.
   370  3.69  0.  0.
   371  3.70  0.  0.
   372  3.71  0.  0.
   373  3.72  0.  0.
   374  3.73  0.  0.
   375  3.74  0.  0.
   376  3.75  0.  0.
   377  3.76  0.  0.
   378  3.77  0.  0.
   379  3.78  0.  0.
   380  3.79  0.  0.
   381  3.80  0.  0.
   382  3.81  0.  0.
   383  3.82  0.  0.
   384  3.83  0.  0.
   385  3.84  0.  0.
   386  3.85  0.  0.
   387  3.86  0.  0.
   388  3.87  0.  0.
   389  3.88  0.  0.
   390  3.89  0.  0.
   391  3.90  0.  0.
   392  3.91  0.  0.
   393  3.92  0.  0.
   394  3.93  0.  0.
   395  3.94  0.  0.
   396  3.95  0.  0.
   397  3.96  0.  0.
   398  3.97  0.  0.
   399  3.98  0.  0.
   400  3.99  0.  0.
   401  4.00  0.  0.
   402  4.01  0.  0.
   403  4.02  0.  0.
   404  4.03  0.  0.
   405  4.04  0.  0.
   406  4.05  0.  0.
   407  4.06  0.  0.
   408  4.07  0.  0.
   409  4.08  0.  0.
   410  4.09  0.  0.
   411  4.10  0.  0.
   412  4.11  0.  0.
   413  4.12  0.  0.
   414  4.13  0.  0.
   415  4.14  0.  0.
   416  4.15  0.  0.
   417  4.16  0.  0.
   418  4.17  0.  0.
   419  4.18  0.  0.
   420  4.19  0.  0.
   421  4.20  0.  0.
   422  4.21  0.  0.
   423  4.22  0.  0.
   424  4.23  0.  0.
   425  4.24  0.  0.
   426  4.25  0.  0.
   427  4.26  0.  0.
   428  4.27  0.  0.
   429  4.28  0.  0.
   430  4.29  0.  0.
   431  4.30  0.  0.
   432  4.31  0.  0.
   433  4.32  0.  0.
   434  4.33  0.  0.
   435  4.34  0.  0.
   436  4.35  0.  0.
   437  4.36  0.  0.
   438  4.37  0.  0.
   439  4.38  0.  0.
   440  4.39  0.  0.
   441  4.40  0.  0.
   442  4.41  0.  0.
   443  4.42  0.  0.
   444  4.43  0.  0.
   445  4.44  0.  0.
   446  4.45  0.  0.
   447  4.46  0.  0.
   448  4.47  0.  0.
   449  4.48  0.  0.
   450  4.49  0.  0.
   451  4.50  0.  0.
   452  4.51  0.  0.
   453  4.52  0.  0.
   454  4.53  0.  0.
   455  4.54  0.  0.
   456  4.55  0.  0.
   457  4.56  0.  0.
   458  4.57  0.  0.
   459  4.58  0.  0.
   460  4.59  0.  0.
   461  4.60  0.  0.
   462  4.61  0.  0.
   463  4.62  0.  0.
   464  4.63  0.  0.
   465  4.64  0.  0.
   466  4.65  0.  0.
   467  4.66  0.  0.
   468  4.67  0.  0.
   469  4.68  0.  0.
   470  4.69  0.  0.
   471  4.70  0.  0.
   472  4.71  0.  0.
   473  4.72  0.  0.
   474  4.73  0.  0.
   475  4.74  0.  0.
   476  4.75  0.  0.
   477  4.76  0.  0.
   478  4.77  0.  0.
   479  4.78  0.  0.
   480  4.79  0.  0.
   481  4.80  0.  0.
   482  4.81  0.  0.
   483  4.82  0.  0.
   484  4.83  0.  0.
   485  4.84  0.  0.
   486  4.85  0.  0.
   487  4.86  0.  0.
   488  4.87  0.  0.
   489  4.88  0.  0.
   490  4.89  0.  0.
   491  4.90  0.  0.
   492  4.91  0.  0.
   493  4.92  0.  0.
   494  4.93  0.  0.
   495  4.94  0.  0.
   496  4.95  0.  0.
   497  4.96  0.  0.
   498  4.97  0.  0.
   499  4.98  0.  0.
   500  4.99  0.  0.
   501  5.00  0.  0.
   502  5.01  0.  0.
   503  5.02  0.  0.
   504  5.03  0.  0.
   505  5.04  0.  0.
   506  5.05  0.  0.
   507  5.06  0.  0.
   508  5.07  0.  0.
   509  5.08  0.  0.
   510  5.09  0.  0.
   511  5.10  0.  0.
   512  5.11  0.  0.
   513  5.12  0.  0.
   514  5.13  0.  0.
   515  5.14  0.  0.
   516  5.15  0.  0.
   517  5.16  0.  0.
   518  5.17  0.  0.
   519  5.18  0.  0.
   520  5.19  0.  0.
   521  5.20  0.  0.
   522  5.21  0.  0.
   523  5.22  0.  0.
   524  5.23  0.  0.
   525  5.24  0.  0.
   526  5.25  0.  0.
   527  5.26  0.  0.
   528  5.27  0.  0.
   529  5.28  0.  0.
   530  5.29  0.  0.
   531  5.30  0.  0.
   532  5.31  0.  0.
   533  5.32  0.  0.
   534  5.33  0.  0.
   535  5.34  0.  0.
   536  5.35  0.  0.
   537  5.36  0.  0.
   538  5.37  0.  0.
   539  5.38  0.  0.
   540  5.39  0.  0.
   541  5.40  0.  0.
   542  5.41  0.  0.
   543  5.42  0.  0.
   544  5.43  0.  0.
   545  5.44  0.  0.
   546  5.45  0.  0.
   547  5.46  0.  0.
   548  5.47  0.  0.
   549  5.48  0.  0.
   550  5.49  0.  0.
   551  5.50  0.  0.
   552  5.51  0.  0.
   553  5.52  0.  0.
   554  5.53  0.  0.
   555  5.54  0.  0.
   556  5.55  0.  0.
   557  5.56  0.  0.
   558  5.57  0.  0.
   559  5.58  0.  0.
   560  5.59  0.  0.
   561  5.60  0.  0.
   562  5.61  0.  0.
   563  5.62  0.  0.
   564  5.63  0.  0.
   565  5.64  0.  0.
   566  5.65  0.  0.
   567  5.66  0.  0.
   568  5.67  0.  0.
   569  5.68  0.  0.
   570  5.69  0.  0.
   571  5.70  0.  0.
   572  5.71  0.  0.
   573  5.72  0.  0.
   574  5.73  0.  0.
   575  5.74  0.  0.
   576  5.75  0.  0.
   577  5.76  0.  0.
   578  5.77  0.  0.
   579  5.78  0.  0.
   580  5.79  0.  0.
   581  5.80  0.  0.
   582  5.81  0.  0.
   583  5.82  0.  0.
   584  5.83  0.  0.
   585  5.84  0.  0.
   586  5.85  0.  0.
   587  5.86  0.  0.
   588  5.87  0.  0.
   589  5.88  0.  0.
   590  5.89  0.  0.
   591  5.90  0.  0.
   592  5.91  0.  0.
   593  5.92  0.  0.
   594  5.93  0.  0.
   595  5.94  0.  0.
   596  5.95  0.  0.
   597  5.96  0.  0.
   598  5.97  0.  0.
   599  5.98  0.  0.
   600  5.99  0.  0.
   1                         1.0491136139624E+00 -8.6318437784820E-01
     1  0.0000000000000E+00  1.9597984873831E-08 -2.5301243530840E-09
     2  1.0000000000000E-02  3.6966369428859E-03  4.8275079646358E-04
     3  2.0000000000000E-02  1.4745444318534E-02  1.9341097154258E-03
     4  3.0000000000000E-02  3.3023728131496E-02  4.3633198082749E-03
     5  4.0000000000000E-02  5.8329041250062E-02  7.7855325419452E-03
     6  5.0000000000000E-02  9.0382207042424E-02  1.2221432609987E-02
     7  6.0000000000000E-02  1.2883147202464E-01  1.7696723035757E-02
     8  7.0000000000000E-02  1.7325770908001E-01  2.4241480679765E-02
     9  8.0000000000000E-02  2.2318057321155E-01  3.1889394793362E-02
    10  9.0000000000000E-02  2.7806549422037E-01  4.0676903531860E-02
    11  1.0000000000000E-01  3.3733137552295E-01  5.0642245306234E-02
    12  1.1000000000000E-01  4.0035885584238E-01  6.1824443473379E-02
    13  1.2000000000000E-01  4.6649898098819E-01  7.4262244108058E-02
    14  1.3000000000000E-01  5.3508212656468E-01  8.7993027440878E-02
    15  1.4000000000000E-01  6.0542700934958E-01  1.0305171396886E-01
    16  1.5000000000000E-01  6.7684962531509E-01  1.1946968624190E-01
    17  1.6000000000000E-01  7.4867195581066E-01  1.3727374690039E-01
    18  1.7000000000000E-01  8.2023029020689E-01  1.5648513269761E-01
    19  1.8000000000000E-01  8.9088302315855E-01  1.7711860300344E-01
    20  1.9000000000000E-01  9.6001779736624E-01  1.9918161968207E-01
    21  2.0000000000000E-01  1.0270578780206E+00  2.2267363329943E-01
    22  2.1000000000000E-01  1.0914676626669E+00  2.4758548838946E-01
    23  2.2000000000000E-01  1.1527572496513E+00  2.7389895803899E-01
    24  2.3000000000000E-01  1.2104860091796E+00  3.0158641539313E-01
    25  2.4000000000000E-01  1.2642651228870E+00  3.3061064689301E-01
    26  2.5000000000000E-01  1.3137590802037E+00  3.6092480919557E-01
    27  2.6000000000000E-01  1.3586861422283E+00  3.9247252885233E-01
    28  2.7000000000000E-01  1.3988178058006E+00  4.2518814100133E-01
    29  2.8000000000000E-01  1.4339773215181E+00  4.5899706061453E-01
    30  2.9000000000000E-01  1.4640373391186E+00  4.9381627729911E-01
    31  3.0000000000000E-01  1.4889167715196E+00  5.2955496232940E-01
    32  3.1000000000000E-01  1.5085769844797E+00  5.6611517453507E-01
    33  3.2000000000000E-01  1.5230174319912E+00  6.0339264993475E-01
    34  3.3000000000000E-01  1.5322708678307E+00  6.4127765861711E-01
    35  3.4000000000000E-01  1.5363982709729E+00  6.7965591136341E-01
    36  3.5000000000000E-01  1.5354836266465E+00  7.1840949789534E-01
    37  3.6000000000000E-01  1.5296287055897E+00  7.5741783843195E-01
    38  3.7000000000000E-01  1.5189479815416E+00  7.9655863045103E-01
    39  3.8000000000000E-01  1.5035638212209E+00  8.3570877316683E-01
    40  3.9000000000000E-01  1.4836020721487E+00  8.7474525324156E-01
    41  4.0000000000000E-01  1.4591881618396E+00  9.1354597661788E-01
    42  4.1000000000000E-01  1.4304438073971E+00  9.5199053306062E-01
    43  4.2000000000000E-01  1.3974844177208E+00  9.8996088198879E-01
    44  4.3000000000000E-01  1.3604172517382E+00  1.0273419504152E+00
    45  4.4000000000000E-01  1.3193403757441E+00  1.0640221362398E+00
    46  4.5000000000000E-01  1.2743424415144E+00  1.0998937127052E+00
    47  4.6000000000000E-01  1.2255032848544E+00  1.1348531324619E+00
    48  4.7000000000000E-01  1.1728953221363E+00  1.1688012323395E+00
    49  4.8000000000000E-01  1.1165857006952E+00  1.2016433425194E+00
    50  4.9000000000000E-01  1.0566391381807E+00  1.2332893062939E+00
    51  5.0000000000000E-01  9.9312136659326E-01  1.2636534189114E+00
    52  5.1000000000000E-01  9.2610307922791E-01  1.2926542960944E+00
    53  5.2000000000000E-01  8.5566426352430E-01  1.3202146846285E+00
    54  5.3000000000000E-01  7.8189879025346E-01  1.3462612289052E+00
    55  5.4000000000000E-01  7.0491911987871E-01  1.3707242084248E+00
    56  5.5000000000000E-01  6.2486098056486E-01  1.3935372619986E+00
    57  5.6000000000000E-01  5.4188786936129E-01  1.4146371147105E+00
    58  5.7000000000000E-01  4.5619522866184E-01  1.4339633235906E+00
    59  5.8000000000000E-01  3.6801415418555E-01  1.4514580574265E+00
    60  5.9000000000000E-01  2.7761449837457E-01  1.4670659251842E+00
    61  6.0000000000000E-01  1.8530724415528E-01  1.4807338661664E+00
    62  6.1000000000000E-01  9.1446038246531E-02  1.4924111133061E+00
    63  6.2000000000000E-01 -3.5722096431153E-03  1.5020492389379E+00
    64  6.3000000000000E-01 -9.9307735654482E-02  1.5096022900327E+00
    65  6.4000000000000E-01 -1.9527939067348E-01  1.5150270172894E+00
    66  6.5000000000000E-01 -2.9096719768393E-01  1.5182831997002E+00
    67  6.6000000000000E-01 -3.8581600114531E-01  1.5193340633093E+00
    68  6.7000000000000E-01 -4.7924018645357E-01  1.5181467899427E+00
    69  6.8000000000000E-01 -5.7062942191262E-01  1.5146931087535E+00
    70  6.9000000000000E-01 -6.5935535046470E-01  1.5089499605920E+00
    71  7.0000000000000E-01 -7.4477913426448E-01  1.5009002225281E+00
    72  7.1000000000000E-01 -8.2625973258854E-01  1.4905334773993E+00
    73  7.2000000000000E-01 -9.0316277307958E-01  1.4778468110938E+00
    74  7.3000000000000E-01 -9.7486985841824E-01  1.4628456184643E+00
    75  7.4000000000000E-01 -1.0407881356420E+00  1.4455443973489E+00
    76  7.5000000000000E-01 -1.1003599438705E+00  1.4259675092107E+00
    77  7.6000000000000E-01 -1.1530723484603E+00  1.4041498844064E+00
    78  7.7000000000000E-01 -1.1984663658506E+00  1.3801376501139E+00
    79  7.8000000000000E-01 -1.2361456837163E+00  1.3539886594698E+00
    80  7.9000000000000E-01 -1.2657846856000E+00  1.3257729015193E+00
    81  8.0000000000000E-01 -1.2871355979270E+00  1.2955727731412E+00
    82  8.1000000000000E-01 -1.3000345901096E+00  1.2634831961598E+00
    83  8.2000000000000E-01 -1.3044066751204E+00  1.2296115653684E+00
    84  8.3000000000000E-01 -1.3002692781861E+00  1.1940775161167E+00
    85  8.4000000000000E-01 -1.2877343647460E+00  1.1570125034110E+00
    86  8.5000000000000E-01 -1.2670090451094E+00  1.1185591880715E+00
    87  8.6000000000000E-01 -1.2383946018236E+00  1.0788706293270E+00
    88  8.7000000000000E-01 -1.2022839160667E+00  1.0381092872176E+00
    89  8.8000000000000E-01 -1.1591573008133E+00  9.9644584224499E-01
    90  8.9000000000000E-01 -1.1095767804335E+00  9.5405784377198E-01
    91  9.0000000000000E-01 -1.0541788881377E+00  9.1112820264078E-01
    92  9.1000000000000E-01 -9.9366608358382E-01  8.6784354726560E-01
    93  9.2000000000000E-01 -9.2879692239301E-01  8.2439246597833E-01
    94  9.3000000000000E-01 -8.6037513660799E-01  7.8096366158139E-01
    95  9.4000000000000E-01 -7.8923780970336E-01  7.3774404681604E-01
    96  9.5000000000000E-01 -7.1624285104530E-01  6.9491681171846E-01
    97  9.6000000000000E-01 -6.4225599222511E-01  6.5265949554999E-01
    98  9.7000000000000E-01 -5.6813754102159E-01  6.1114209710244E-01
    99  9.8000000000000E-01 -4.9472913755163E-01  5.7052525765526E-01
   100  9.9000000000000E-01 -4.2284076119069E-01  5.3095855067385E-01
   101  1.0000000000000E+00 -3.5323823593252E-01  4.9257891147271E-01
   102  1.0100000000000E+00 -2.8663147594710E-01  4.5550923852431E-01
   103  1.0200000000000E+00 -2.2366370224061E-01  4.1985719588896E-01
   104  1.0300000000000E+00 -1.6490184567126E-01  3.8571424340144E-01
   105  1.0400000000000E+00 -1.1082833134916E-01  3.5315491781183E-01
   106  1.0500000000000E+00 -6.1834415039863E-02  3.2223638410498E-01
   107  1.0600000000000E+00 -1.8215213992277E-02  2.9299827177137E-01
   108  1.0700000000000E+00  1.9833456882702E-02  2.6546280594743E-01
   109  1.0800000000000E+00  5.2216366640127E-02  2.3963523818753E-01
   110  1.0900000000000E+00  7.8938227135975E-02  2.1550457623357E-01
   111  1.1000000000000E+00  1.0010112591169E-01  1.9304460664967E-01
   112  1.1100000000000E+00  1.1590006812062E-01  1.7221519865631E-01
   113  1.1200000000000E+00  1.2661670044431E-01  1.5296387205748E-01
   114  1.1300000000000E+00  1.3261132699926E-01  1.3522760690402E-01
   115  1.1400000000000E+00  1.3431336269613E-01  1.1893486757115E-01
   116  1.1500000000000E+00  1.3221040254259E-01  1.0400780936395E-01
   117  1.1600000000000E+00  1.2683611546081E-01  9.0364631670495E-02
   118  1.1700000000000E+00  1.1875719754911E-01  7.7922038164122E-02
   119  1.1800000000000E+00  1.0855964191434E-01  6.6597761671613E-02
   120  1.1900000000000E+00  9.6834599715221E-02  5.6313109142250E-02
   121  1.2000000000000E+00  8.4164119492538E-02  4.6995480724718E-02
   122  1.2100000000000E+00  7.1107058985498E-02  3.8580816315385E-02
   123  1.2200000000000E+00  5.8185426039840E-02  3.1015932699333E-02
   124  1.2300000000000E+00  4.5871699543140E-02  2.4260638692474E-02
   125  1.2400000000000E+00  3.4566334822012E-02  1.8292271160029E-02
   126  1.2500000000000E+00  2.4495663110418E-02  1.3128793426420E-02
   127  1.2600000000000E+00  1.5941173105275E-02  8.7731605852103E-03
   128  1.2700000000000E+00  9.1433324798671E-03  5.2370773867952E-03
   129  1.2800000000000E+00  4.2345994121629E-03  2.5568826087557E-03
   130  1.2900000000000E+00  1.2282144634840E-03  7.8724017171443E-04
   131  1.3000000000000E+00  7.7015182088140E-05  4.2826626828772E-05
   132  1.3100000000000E+00  3.2818951749110E-07  3.1689569212130E-07
   133  1.3200000000000E+00 -6.9639654123870E-07 -6.6663058534541E-07
   134  1.33  0.  0.
   135  1.34  0.  0.
   136  1.35  0.  0.
   137  1.36  0.  0.
   138  1.37  0.  0.
   139  1.38  0.  0.
   140  1.39  0.  0.
   141  1.40  0.  0.
   142  1.41  0.  0.
   143  1.42  0.  0.
   144  1.43  0.  0.
   145  1.44  0.  0.
   146  1.45  0.  0.
   147  1.46  0.  0.
   148  1.47  0.  0.
   149  1.48  0.  0.
   150  1.49  0.  0.
   151  1.50  0.  0.
   152  1.51  0.  0.
   153  1.52  0.  0.
   154  1.53  0.  0.
   155  1.54  0.  0.
   156  1.55  0.  0.
   157  1.56  0.  0.
   158  1.57  0.  0.
   159  1.58  0.  0.
   160  1.59  0.  0.
   161  1.60  0.  0.
   162  1.61  0.  0.
   163  1.62  0.  0.
   164  1.63  0.  0.
   165  1.64  0.  0.
   166  1.65  0.  0.
   167  1.66  0.  0.
   168  1.67  0.  0.
   169  1.68  0.  0.
   170  1.69  0.  0.
   171  1.70  0.  0.
   172  1.71  0.  0.
   173  1.72  0.  0.
   174  1.73  0.  0.
   175  1.74  0.  0.
   176  1.75  0.  0.
   177  1.76  0.  0.
   178  1.77  0.  0.
   179  1.78  0.  0.
   180  1.79  0.  0.
   181  1.80  0.  0.
   182  1.81  0.  0.
   183  1.82  0.  0.
   184  1.83  0.  0.