Cr    ONCVPSP-4.0.1  r_core=   1.30206   1.30206   1.70428
     24.0000     14.0000      250217    zatom,zion,pspd
     8       2   2     4   600     0    pspcod,pspxc,lmax,lloc,mmax,r2well
  5.99000000  5.00000000  0.00000000    rchrg fchrg qchrg
     2     2     2     0    nproj
     3     1           extension_switch
     3     4     0    nprojso
   0                         6.3597068360008E+00 -1.0695747099211E+00
     1  0.0000000000000E+00 -2.3051650588357E-09  3.3718317415943E-08
     2  1.0000000000000E-02  7.7850824896433E-02  5.3711520973181E-02
     3  2.0000000000000E-02  1.5550541382838E-01  1.0743952886651E-01
     4  3.0000000000000E-02  2.3276867194532E-01  1.6119090044806E-01
     5  4.0000000000000E-02  3.0944776447053E-01  2.1495361197297E-01
     6  5.0000000000000E-02  3.8535319197092E-01  2.6868807938136E-01
     7  6.0000000000000E-02  4.6029980162114E-01  3.2231942201748E-01
     8  7.0000000000000E-02  5.3410771593342E-01  3.7573091672080E-01
     9  8.0000000000000E-02  6.0660316272960E-01  4.2875887542175E-01
    10  9.0000000000000E-02  6.7761919289103E-01  4.8118913895323E-01
    11  1.0000000000000E-01  7.4699627555729E-01  5.3275533374875E-01
    12  1.1000000000000E-01  8.1458276386991E-01  5.8313898767716E-01
    13  1.2000000000000E-01  8.8023522797519E-01  6.3197154781955E-01
    14  1.3000000000000E-01  9.4381865571027E-01  6.7883828797177E-01
    15  1.4000000000000E-01  1.0052065250928E+00  7.2328403854560E-01
    16  1.5000000000000E-01  1.0642807563130E+00  7.6482061784491E-01
    17  1.6000000000000E-01  1.1209315542856E+00  8.0293579287777E-01
    18  1.7000000000000E-01  1.1750571558576E+00  8.3710355133391E-01
    19  1.8000000000000E-01  1.2265634984047E+00  8.6679542540033E-01
    20  1.9000000000000E-01  1.2753638286976E+00  8.9149257386106E-01
    21  2.0000000000000E-01  1.3213782725193E+00  9.1069830240922E-01
    22  2.1000000000000E-01  1.3645333865154E+00  9.2395068407498E-01
    23  2.2000000000000E-01  1.4047617141229E+00  9.3083493270113E-01
    24  2.3000000000000E-01  1.4420013671338E+00  9.3099518280763E-01
    25  2.4000000000000E-01  1.4761956535107E+00  9.2414533905492E-01
    26  2.5000000000000E-01  1.5072927704956E+00  9.1007867767304E-01
    27  2.6000000000000E-01  1.5352455798820E+00  8.8867591025274E-01
    28  2.7000000000000E-01  1.5600114796020E+00  8.5991145653754E-01
    29  2.8000000000000E-01  1.5815523825901E+00  8.2385771643402E-01
    30  2.9000000000000E-01  1.5998348102973E+00  7.8068718129060E-01
    31  3.0000000000000E-01  1.6148301043464E+00  7.3067227932495E-01
    32  3.1000000000000E-01  1.6265147557433E+00  6.7418290850634E-01
    33  3.2000000000000E-01  1.6348708468979E+00  6.1168167071505E-01
    34  3.3000000000000E-01  1.6398865975821E+00  5.4371688202054E-01
    35  3.4000000000000E-01  1.6415570019748E+00  4.7091349383984E-01
    36  3.5000000000000E-01  1.6398845402321E+00  3.9396211695327E-01
    37  3.6000000000000E-01  1.6348799446779E+00  3.1360639332256E-01
    38  3.7000000000000E-01  1.6265629978462E+00  2.3062900792503E-01
    39  3.8000000000000E-01  1.6149633373029E+00  1.4583667306317E-01
    40  3.9000000000000E-01  1.6001212405158E+00  6.0044449684655E-02
    41  4.0000000000000E-01  1.5820883620810E+00 -2.5940206805918E-02
    42  4.1000000000000E-01  1.5609283954033E+00 -1.1133327566657E-01
    43  4.2000000000000E-01  1.5367176314824E+00 -1.9538947152987E-01
    44  4.3000000000000E-01  1.5095453887939E+00 -2.7741662115531E-01
    45  4.4000000000000E-01  1.4795142903389E+00 -3.5678873895168E-01
    46  4.5000000000000E-01  1.4467403667554E+00 -4.3295745244930E-01
    47  4.6000000000000E-01  1.4113529678621E+00 -5.0546146692192E-01
    48  4.7000000000000E-01  1.3734944690798E+00 -5.7393380510164E-01
    49  4.8000000000000E-01  1.3333197637478E+00 -6.3810661230611E-01
    50  4.9000000000000E-01  1.2909955373223E+00 -6.9781337800463E-01
    51  5.0000000000000E-01  1.2466993246846E+00 -7.5298849041279E-01
    52  5.1000000000000E-01  1.2006183571765E+00 -8.0366410948776E-01
    53  5.2000000000000E-01  1.1529482113800E+00 -8.4996441397621E-01
    54  5.3000000000000E-01  1.1038912769312E+00 -8.9209734813713E-01
    55  5.4000000000000E-01  1.0536550656630E+00 -9.3034406161725E-01
    56  5.5000000000000E-01  1.0024503889802E+00 -9.6504629990673E-01
    57  5.6000000000000E-01  9.5048943444863E-01 -9.9659206113455E-01
    58  5.7000000000000E-01  8.9798377601653E-01 -1.0253998860874E+00
    59  5.8000000000000E-01  8.4514235497824E-01 -1.0519021908143E+00
    60  5.9000000000000E-01  7.9216947064771E-01 -1.0765280837812E+00
    61  6.0000000000000E-01  7.3926282067187E-01 -1.0996861312652E+00
    62  6.1000000000000E-01  6.8661163093077E-01 -1.1217475447826E+00
    63  6.2000000000000E-01  6.3439491402239E-01 -1.1430302623822E+00
    64  6.3000000000000E-01  5.8277989341593E-01 -1.1637843814422E+00
    65  6.4000000000000E-01  5.3192062750260E-01 -1.1841793743423E+00
    66  6.5000000000000E-01  4.8195686402630E-01 -1.2042934805013E+00
    67  6.6000000000000E-01  4.3301315081146E-01 -1.2241056195386E+00
    68  6.7000000000000E-01  3.8519822341326E-01 -1.2434901117772E+00
    69  6.8000000000000E-01  3.3860468441287E-01 -1.2622144252770E+00
    70  6.9000000000000E-01  2.9330898269474E-01 -1.2799400946060E+00
    71  7.0000000000000E-01  2.4937169432377E-01 -1.2962268773785E+00
    72  7.1000000000000E-01  2.0683809973923E-01 -1.3105401321082E+00
    73  7.2000000000000E-01  1.6573904506760E-01 -1.3222613171681E+00
    74  7.3000000000000E-01  1.2609206859204E-01 -1.3307014276842E+00
    75  7.4000000000000E-01  8.7902766970464E-02 -1.3351171071286E+00
    76  7.5000000000000E-01  5.1166369828804E-02 -1.3347290952631E+00
    77  7.6000000000000E-01  1.5869486023696E-02 -1.3287426058806E+00
    78  7.7000000000000E-01 -1.8008019689143E-02 -1.3163691683397E+00
    79  7.8000000000000E-01 -5.0491064504033E-02 -1.2968494178025E+00
    80  7.9000000000000E-01 -8.1607347511364E-02 -1.2694762817957E+00
    81  8.0000000000000E-01 -1.1138536089071E-01 -1.2336179863366E+00
    82  8.1000000000000E-01 -1.3985246192835E-01 -1.1887402942532E+00
    83  8.2000000000000E-01 -1.6703305469006E-01 -1.1344273919806E+00
    84  8.3000000000000E-01 -1.9294692825581E-01 -1.0704008592031E+00
    85  8.4000000000000E-01 -2.1760779534699E-01 -9.9653618805564E-01
    86  8.5000000000000E-01 -2.4102207100147E-01 -9.1287636464937E-01
    87  8.6000000000000E-01 -2.6318792575869E-01 -8.1964208458247E-01
    88  8.7000000000000E-01 -2.8409464171043E-01 -7.1723824461141E-01
    89  8.8000000000000E-01 -3.0372229288566E-01 -6.0625643329580E-01
    90  8.9000000000000E-01 -3.2204176391657E-01 -4.8747323240696E-01
    91  9.0000000000000E-01 -3.3901511294967E-01 -3.6184423619916E-01
    92  9.1000000000000E-01 -3.5459627649828E-01 -2.3049379509436E-01
    93  9.2000000000000E-01 -3.6873210557579E-01 -9.4700591601285E-02
    94  9.3000000000000E-01 -3.8136371419520E-01  4.4120743018743E-02
    95  9.4000000000000E-01 -3.9242811336950E-01  1.8444166514180E-01
    96  9.5000000000000E-01 -4.0186009628984E-01  3.2464500973022E-01
    97  9.6000000000000E-01 -4.0959433357739E-01  4.6305305270547E-01
    98  9.7000000000000E-01 -4.1556763157177E-01  5.9795778679311E-01
    99  9.8000000000000E-01 -4.1972130168532E-01  7.2765278979249E-01
   100  9.9000000000000E-01 -4.2200358504937E-01  8.5046601454959E-01
   101  1.0000000000000E+00 -4.2237207411141E-01  9.6479279499837E-01
   102  1.0100000000000E+00 -4.2079607159092E-01  1.0691283435694E+00
   103  1.0200000000000E+00 -4.1725882731387E-01  1.1620990126923E+00
   104  1.0300000000000E+00 -4.1175959493703E-01  1.2424916073232E+00
   105  1.0400000000000E+00 -4.0431545343466E-01  1.3092800663742E+00
   106  1.0500000000000E+00 -3.9496284239564E-01  1.3616488780206E+00
   107  1.0600000000000E+00 -3.8375876559694E-01  1.3990126562794E+00
   108  1.0700000000000E+00 -3.7078162387720E-01  1.4210313828364E+00
   109  1.0800000000000E+00 -3.5613164586967E-01  1.4276209068968E+00
   110  1.0900000000000E+00 -3.3993089355524E-01  1.4189583955453E+00
   111  1.1000000000000E+00 -3.2232282862190E-01  1.3954825348081E+00
   112  1.1100000000000E+00 -3.0347143512354E-01  1.3578883955903E+00
   113  1.1200000000000E+00 -2.8355990367188E-01  1.3071169959253E+00
   114  1.1300000000000E+00 -2.6278889216054E-01  1.2443397089754E+00
   115  1.1400000000000E+00 -2.4137438760547E-01  1.1709377824517E+00
   116  1.1500000000000E+00 -2.1954520283522E-01  1.0884773464706E+00
   117  1.1600000000000E+00 -1.9754015031354E-01  9.9868039128928E-01
   118  1.1700000000000E+00 -1.7560494308037E-01  9.0339229087868E-01
   119  1.1800000000000E+00 -1.5398887950903E-01  8.0454653105197E-01
   120  1.1900000000000E+00 -1.3294137412120E-01  7.0412736973501E-01
   121  1.2000000000000E+00 -1.1270840093772E-01  6.0413121016099E-01
   122  1.2100000000000E+00 -9.3528918688125E-02  5.0652750427937E-01
   123  1.2200000000000E+00 -7.5631348707385E-02  4.1322000082515E-01
   124  1.2300000000000E+00 -5.9230172071762E-02  3.2600930870410E-01
   125  1.2400000000000E+00 -4.4522737297120E-02  2.4655150855785E-01
   126  1.2500000000000E+00 -3.1685834407673E-02  1.7627363959567E-01
   127  1.2600000000000E+00 -2.0873185144782E-02  1.1647680452946E-01
   128  1.2700000000000E+00 -1.2214228106540E-02  6.8264220958406E-02
   129  1.2800000000000E+00 -5.8128222961205E-03  3.2489873465551E-02
   130  1.2900000000000E+00 -1.7327337007844E-03  9.6716603580761E-03
   131  1.3000000000000E+00 -8.3304562923527E-05  4.6359143258446E-04
   132  1.3100000000000E+00 -7.4023430093300E-07  4.1229086668978E-06
   133  1.3200000000000E+00  1.5981298037179E-06 -8.9106331311002E-06
   134  1.33  0.  0.
   135  1.34  0.  0.
   136  1.35  0.  0.
   137  1.36  0.  0.
   138  1.37  0.  0.
   139  1.38  0.  0.
   140  1.39  0.  0.
   141  1.40  0.  0.
   142  1.41  0.  0.
   143  1.42  0.  0.
   144  1.43  0.  0.
   145  1.44  0.  0.
   146  1.45  0.  0.
   147  1.46  0.  0.
   148  1.47  0.  0.
   149  1.48  0.  0.
   150  1.49  0.  0.
   151  1.50  0.  0.
   152  1.51  0.  0.
   153  1.52  0.  0.
   154  1.53  0.  0.
   155  1.54  0.  0.
   156  1.55  0.  0.
   157  1.56  0.  0.
   158  1.57  0.  0.
   159  1.58  0.  0.
   160  1.59  0.  0.
   161  1.60  0.  0.
   162  1.61  0.  0.
   163  1.62  0.  0.
   164  1.63  0.  0.
   165  1.64  0.  0.
   166  1.65  0.  0.
   167  1.66  0.  0.
   168  1.67  0.  0.
   169  1.68  0.  0.
   170  1.69  0.  0.
   171  1.70  0.  0.
   172  1.71  0.  0.
   173  1.72  0.  0.
   174  1.73  0.  0.
   175  1.74  0.  0.
   176  1.75  0.  0.
   177  1.76  0.  0.
   178  1.77  0.  0.
   179  1.78  0.  0.
   180  1.79  0.  0.
   181  1.80  0.  0.
   182  1.81  0.  0.
   183  1.82  0.  0.
   184  1.83  0.  0.
   185  1.84  0.  0.
   186  1.85  0.  0.
   187  1.86  0.  0.
   188  1.87  0.  0.
   189  1.88  0.  0.
   190  1.89  0.  0.
   191  1.90  0.  0.
   192  1.91  0.  0.
   193  1.92  0.  0.
   194  1.93  0.  0.
   195  1.94  0.  0.
   196  1.95  0.  0.
   197  1.96  0.  0.
   198  1.97  0.  0.
   199  1.98  0.  0.
   200  1.99  0.  0.
   201  2.00  0.  0.
   202  2.01  0.  0.
   203  2.02  0.  0.
   204  2.03  0.  0.
   205  2.04  0.  0.
   206  2.05  0.  0.
   207  2.06  0.  0.
   208  2.07  0.  0.
   209  2.08  0.  0.
   210  2.09  0.  0.
   211  2.10  0.  0.
   212  2.11  0.  0.
   213  2.12  0.  0.
   214  2.13  0.  0.
   215  2.14  0.  0.
   216  2.15  0.  0.
   217  2.16  0.  0.
   218  2.17  0.  0.
   219  2.18  0.  0.
   220  2.19  0.  0.
   221  2.20  0.  0.
   222  2.21  0.  0.
   223  2.22  0.  0.
   224  2.23  0.  0.
   225  2.24  0.  0.
   226  2.25  0.  0.
   227  2.26  0.  0.
   228  2.27  0.  0.
   229  2.28  0.  0.
   230  2.29  0.  0.
   231  2.30  0.  0.
   232  2.31  0.  0.
   233  2.32  0.  0.
   234  2.33  0.  0.
   235  2.34  0.  0.
   236  2.35  0.  0.
   237  2.36  0.  0.
   238  2.37  0.  0.
   239  2.38  0.  0.
   240  2.39  0.  0.
   241  2.40  0.  0.
   242  2.41  0.  0.
   243  2.42  0.  0.
   244  2.43  0.  0.
   245  2.44  0.  0.
   246  2.45  0.  0.
   247  2.46  0.  0.
   248  2.47  0.  0.
   249  2.48  0.  0.
   250  2.49  0.  0.
   251  2.50  0.  0.
   252  2.51  0.  0.
   253  2.52  0.  0.
   254  2.53  0.  0.
   255  2.54  0.  0.
   256  2.55  0.  0.
   257  2.56  0.  0.
   258  2.57  0.  0.
   259  2.58  0.  0.
   260  2.59  0.  0.
   261  2.60  0.  0.
   262  2.61  0.  0.
   263  2.62  0.  0.
   264  2.63  0.  0.
   265  2.64  0.  0.
   266  2.65  0.  0.
   267  2.66  0.  0.
   268  2.67  0.  0.
   269  2.68  0.  0.
   270  2.69  0.  0.
   271  2.70  0.  0.
   272  2.71  0.  0.
   273  2.72  0.  0.
   274  2.73  0.  0.
   275  2.74  0.  0.
   276  2.75  0.  0.
   277  2.76  0.  0.
   278  2.77  0.  0.
   279  2.78  0.  0.
   280  2.79  0.  0.
   281  2.80  0.  0.
   282  2.81  0.  0.
   283  2.82  0.  0.
   284  2.83  0.  0.
   285  2.84  0.  0.
   286  2.85  0.  0.
   287  2.86  0.  0.
   288  2.87  0.  0.
   289  2.88  0.  0.
   290  2.89  0.  0.
   291  2.90  0.  0.
   292  2.91  0.  0.
   293  2.92  0.  0.
   294  2.93  0.  0.
   295  2.94  0.  0.
   296  2.95  0.  0.
   297  2.96  0.  0.
   298  2.97  0.  0.
   299  2.98  0.  0.
   300  2.99  0.  0.
   301  3.00  0.  0.
   302  3.01  0.  0.
   303  3.02  0.  0.
   304  3.03  0.  0.
   305  3.04  0.  0.
   306  3.05  0.  0.
   307  3.06  0.  0.
   308  3.07  0.  0.
   309  3.08  0.  0.
   310  3.09  0.  0.
   311  3.10  0.  0.
   312  3.11  0.  0.
   313  3.12  0.  0.
   314  3.13  0.  0.
   315  3.14  0.  0.
   316  3.15  0.  0.
   317  3.16  0.  0.
   318  3.17  0.  0.
   319  3.18  0.  0.
   320  3.19  0.  0.
   321  3.20  0.  0.
   322  3.21  0.  0.
   323  3.22  0.  0.
   324  3.23  0.  0.
   325  3.24  0.  0.
   326  3.25  0.  0.
   327  3.26  0.  0.
   328  3.27  0.  0.
   329  3.28  0.  0.
   330  3.29  0.  0.
   331  3.30  0.  0.
   332  3.31  0.  0.
   333  3.32  0.  0.
   334  3.33  0.  0.
   335  3.34  0.  0.
   336  3.35  0.  0.
   337  3.36  0.  0.
   338  3.37  0.  0.
   339  3.38  0.  0.
   340  3.39  0.  0.
   341  3.40  0.  0.
   342  3.41  0.  0.
   343  3.42  0.  0.
   344  3.43  0.  0.
   345  3.44  0.  0.
   346  3.45  0.  0.
   347  3.46  0.  0.
   348  3.47  0.  0.
   349  3.48  0.  0.
   350  3.49  0.  0.
   351  3.50  0.  0.
   352  3.51  0.  0.
   353  3.52  0.  0.
   354  3.53  0.  0.
   355  3.54  0.  0.
   356  3.55  0.  0.
   357  3.56  0.  0.
   358  3.57  0.  0.
   359  3.58  0.  0.
   360  3.59  0.  0.
   361  3.60  0.  0.
   362  3.61  0.  0.
   363  3.62  0.  0.
   364  3.63  0.  0.
   365  3.64  0.  0.
   366  3.65  0.  0.
   367  3.66  0.  0.
   368  3.67  0.  0.
   369  3.68  0.  0.
   370  3.69  0.  0.
   371  3.70  0.  0.
   372  3.71  0.  0.
   373  3.72  0.  0.
   374  3.73  0.  0.
   375  3.74  0.  0.
   376  3.75  0.  0.
   377  3.76  0.  0.
   378  3.77  0.  0.
   379  3.78  0.  0.
   380  3.79  0.  0.
   381  3.80  0.  0.
   382  3.81  0.  0.
   383  3.82  0.  0.
   384  3.83  0.  0.
   385  3.84  0.  0.
   386  3.85  0.  0.
   387  3.86  0.  0.
   388  3.87  0.  0.
   389  3.88  0.  0.
   390  3.89  0.  0.
   391  3.90  0.  0.
   392  3.91  0.  0.
   393  3.92  0.  0.
   394  3.93  0.  0.
   395  3.94  0.  0.
   396  3.95  0.  0.
   397  3.96  0.  0.
   398  3.97  0.  0.
   399  3.98  0.  0.
   400  3.99  0.  0.
   401  4.00  0.  0.
   402  4.01  0.  0.
   403  4.02  0.  0.
   404  4.03  0.  0.
   405  4.04  0.  0.
   406  4.05  0.  0.
   407  4.06  0.  0.
   408  4.07  0.  0.
   409  4.08  0.  0.
   410  4.09  0.  0.
   411  4.10  0.  0.
   412  4.11  0.  0.
   413  4.12  0.  0.
   414  4.13  0.  0.
   415  4.14  0.  0.
   416  4.15  0.  0.
   417  4.16  0.  0.
   418  4.17  0.  0.
   419  4.18  0.  0.
   420  4.19  0.  0.
   421  4.20  0.  0.
   422  4.21  0.  0.
   423  4.22  0.  0.
   424  4.23  0.  0.
   425  4.24  0.  0.
   426  4.25  0.  0.
   427  4.26  0.  0.
   428  4.27  0.  0.
   429  4.28  0.  0.
   430  4.29  0.  0.
   431  4.30  0.  0.
   432  4.31  0.  0.
   433  4.32  0.  0.
   434  4.33  0.  0.
   435  4.34  0.  0.
   436  4.35  0.  0.
   437  4.36  0.  0.
   438  4.37  0.  0.
   439  4.38  0.  0.
   440  4.39  0.  0.
   441  4.40  0.  0.
   442  4.41  0.  0.
   443  4.42  0.  0.
   444  4.43  0.  0.
   445  4.44  0.  0.
   446  4.45  0.  0.
   447  4.46  0.  0.
   448  4.47  0.  0.
   449  4.48  0.  0.
   450  4.49  0.  0.
   451  4.50  0.  0.
   452  4.51  0.  0.
   453  4.52  0.  0.
   454  4.53  0.  0.
   455  4.54  0.  0.
   456  4.55  0.  0.
   457  4.56  0.  0.
   458  4.57  0.  0.
   459  4.58  0.  0.
   460  4.59  0.  0.
   461  4.60  0.  0.
   462  4.61  0.  0.
   463  4.62  0.  0.
   464  4.63  0.  0.
   465  4.64  0.  0.
   466  4.65  0.  0.
   467  4.66  0.  0.
   468  4.67  0.  0.
   469  4.68  0.  0.
   470  4.69  0.  0.
   471  4.70  0.  0.
   472  4.71  0.  0.
   473  4.72  0.  0.
   474  4.73  0.  0.
   475  4.74  0.  0.
   476  4.75  0.  0.
   477  4.76  0.  0.
   478  4.77  0.  0.
   479  4.78  0.  0.
   480  4.79  0.  0.
   481  4.80  0.  0.
   482  4.81  0.  0.
   483  4.82  0.  0.
   484  4.83  0.  0.
   485  4.84  0.  0.
   486  4.85  0.  0.
   487  4.86  0.  0.
   488  4.87  0.  0.
   489  4.88  0.  0.
   490  4.89  0.  0.
   491  4.90  0.  0.
   492  4.91  0.  0.
   493  4.92  0.  0.
   494  4.93  0.  0.
   495  4.94  0.  0.
   496  4.95  0.  0.
   497  4.96  0.  0.
   498  4.97  0.  0.
   499  4.98  0.  0.
   500  4.99  0.  0.
   501  5.00  0.  0.
   502  5.01  0.  0.
   503  5.02  0.  0.
   504  5.03  0.  0.
   505  5.04  0.  0.
   506  5.05  0.  0.
   507  5.06  0.  0.
   508  5.07  0.  0.
   509  5.08  0.  0.
   510  5.09  0.  0.
   511  5.10  0.  0.
   512  5.11  0.  0.
   513  5.12  0.  0.
   514  5.13  0.  0.
   515  5.14  0.  0.
   516  5.15  0.  0.
   517  5.16  0.  0.
   518  5.17  0.  0.
   519  5.18  0.  0.
   520  5.19  0.  0.
   521  5.20  0.  0.
   522  5.21  0.  0.
   523  5.22  0.  0.
   524  5.23  0.  0.
   525  5.24  0.  0.
   526  5.25  0.  0.
   527  5.26  0.  0.
   528  5.27  0.  0.
   529  5.28  0.  0.
   530  5.29  0.  0.
   531  5.30  0.  0.
   532  5.31  0.  0.
   533  5.32  0.  0.
   534  5.33  0.  0.
   535  5.34  0.  0.
   536  5.35  0.  0.
   537  5.36  0.  0.
   538  5.37  0.  0.
   539  5.38  0.  0.
   540  5.39  0.  0.
   541  5.40  0.  0.
   542  5.41  0.  0.
   543  5.42  0.  0.
   544  5.43  0.  0.
   545  5.44  0.  0.
   546  5.45  0.  0.
   547  5.46  0.  0.
   548  5.47  0.  0.
   549  5.48  0.  0.
   550  5.49  0.  0.
   551  5.50  0.  0.
   552  5.51  0.  0.
   553  5.52  0.  0.
   554  5.53  0.  0.
   555  5.54  0.  0.
   556  5.55  0.  0.
   557  5.56  0.  0.
   558  5.57  0.  0.
   559  5.58  0.  0.
   560  5.59  0.  0.
   561  5.60  0.  0.
   562  5.61  0.  0.
   563  5.62  0.  0.
   564  5.63  0.  0.
   565  5.64  0.  0.
   566  5.65  0.  0.
   567  5.66  0.  0.
   568  5.67  0.  0.
   569  5.68  0.  0.
   570  5.69  0.  0.
   571  5.70  0.  0.
   572  5.71  0.  0.
   573  5.72  0.  0.
   574  5.73  0.  0.
   575  5.74  0.  0.
   576  5.75  0.  0.
   577  5.76  0.  0.
   578  5.77  0.  0.
   579  5.78  0.  0.
   580  5.79  0.  0.
   581  5.80  0.  0.
   582  5.81  0.  0.
   583  5.82  0.  0.
   584  5.83  0.  0.
   585  5.84  0.  0.
   586  5.85  0.  0.
   587  5.86  0.  0.
   588  5.87  0.  0.
   589  5.88  0.  0.
   590  5.89  0.  0.
   591  5.90  0.  0.
   592  5.91  0.  0.
   593  5.92  0.  0.
   594  5.93  0.  0.
   595  5.94  0.  0.
   596  5.95  0.  0.
   597  5.96  0.  0.
   598  5.97  0.  0.
   599  5.98  0.  0.
   600  5.99  0.  0.
   1                         1.0493944442167E+00 -8.6315214562200E-01
     1  0.0000000000000E+00  1.9600375211759E-08 -2.5289990032706E-09
     2  1.0000000000000E-02  3.6978276952627E-03  4.8259115847210E-04
     3  2.0000000000000E-02  1.4750190175436E-02  1.9334719853720E-03
     4  3.0000000000000E-02  3.3034342213714E-02  4.3618880074854E-03
     5  4.0000000000000E-02  5.8347752044934E-02  7.7829948490760E-03
     6  5.0000000000000E-02  9.0411126119698E-02  1.2217483088894E-02
     7  6.0000000000000E-02  1.2887256329759E-01  1.7691063424413E-02
     8  7.0000000000000E-02  1.7331276001814E-01  2.4233822252448E-02
     9  8.0000000000000E-02  2.2325116838780E-01  3.1879460304279E-02
    10  9.0000000000000E-02  2.7815299154376E-01  4.0664429244162E-02
    11  1.0000000000000E-01  3.3743688547406E-01  5.0626983105247E-02
    12  1.1000000000000E-01  4.0048322399002E-01  6.1806163057599E-02
    13  1.2000000000000E-01  4.6664277402281E-01  7.4240735245886E-02
    14  1.3000000000000E-01  5.3524562203874E-01  8.7968102275423E-02
    15  1.4000000000000E-01  6.0561018926743E-01  1.0302320934747E-01
    16  1.5000000000000E-01  6.7705217366365E-01  1.1943746604190E-01
    17  1.6000000000000E-01  7.4889326007237E-01  1.3723770431749E-01
    18  1.7000000000000E-01  8.2046944684339E-01  1.5644519245907E-01
    19  1.8000000000000E-01  8.9113884700212E-01  1.7707472346439E-01
    20  1.9000000000000E-01  9.6028883480484E-01  1.9913379476066E-01
    21  2.0000000000000E-01  1.0273424238123E+00  2.2262189420433E-01
    22  2.1000000000000E-01  1.0917637801719E+00  2.4752990509260E-01
    23  2.2000000000000E-01  1.1530627942250E+00  2.7383964044644E-01
    24  2.3000000000000E-01  1.2107986544270E+00  3.0152351416851E-01
    25  2.4000000000000E-01  1.2645823894428E+00  3.3054435389020E-01
    26  2.5000000000000E-01  1.3140783666659E+00  3.6085535746137E-01
    27  2.6000000000000E-01  1.3590047578470E+00  3.9240019216422E-01
    28  2.7000000000000E-01  1.3991330044980E+00  4.2511323291168E-01
    29  2.8000000000000E-01  1.4342863367979E+00  4.5891993297918E-01
    30  2.9000000000000E-01  1.4643374194111E+00  4.9373731827618E-01
    31  3.0000000000000E-01  1.4892052155004E+00  5.2947459384235E-01
    32  3.1000000000000E-01  1.5088511759029E+00  5.6603384920341E-01
    33  3.2000000000000E-01  1.5232748735794E+00  6.0331084748497E-01
    34  3.3000000000000E-01  1.5325092137786E+00  6.4119588179629E-01
    35  3.4000000000000E-01  1.5366153576385E+00  6.7957468138752E-01
    36  3.5000000000000E-01  1.5356775010262E+00  7.1832934947394E-01
    37  3.6000000000000E-01  1.5297976512039E+00  7.5733931442019E-01
    38  3.7000000000000E-01  1.5190905413886E+00  7.9648227618838E-01
    39  3.8000000000000E-01  1.5036788174988E+00  8.3563513057013E-01
    40  3.9000000000000E-01  1.4836886224843E+00  8.7467485472663E-01
    41  4.0000000000000E-01  1.4592456918116E+00  9.1347933893009E-01
    42  4.1000000000000E-01  1.4304720591886E+00  9.5192815109929E-01
    43  4.2000000000000E-01  1.3974834547876E+00  9.8990322271362E-01
    44  4.3000000000000E-01  1.3603874594335E+00  1.0272894469247E+00
    45  4.4000000000000E-01  1.3192824578914E+00  1.0639751821117E+00
    46  4.5000000000000E-01  1.2742574129775E+00  1.0998526566884E+00
    47  4.6000000000000E-01  1.2253924602036E+00  1.1348182736050E+00
    48  4.7000000000000E-01  1.1727603005640E+00  1.1687728156375E+00
    49  4.8000000000000E-01  1.1164283473833E+00  1.2016215551541E+00
    50  4.9000000000000E-01  1.0564615623682E+00  1.2332742745361E+00
    51  5.0000000000000E-01  9.9292589663791E-01  1.2636452057425E+00
    52  5.1000000000000E-01  9.2589223499480E-01  1.2926528995971E+00
    53  5.2000000000000E-01  8.5544072646795E-01  1.3202200371838E+00
    54  5.3000000000000E-01  7.8166537159200E-01  1.3462731972215E+00
    55  5.4000000000000E-01  7.0467872728178E-01  1.3707425944112E+00
    56  5.5000000000000E-01  6.2461658379589E-01  1.3935618044837E+00
    57  5.6000000000000E-01  5.4164246532686E-01  1.4146674919908E+00
    58  5.7000000000000E-01  4.5595180632779E-01  1.4339991567839E+00
    59  5.8000000000000E-01  3.6777565981789E-01  1.4514989145884E+00
    60  5.9000000000000E-01  2.7738380155790E-01  1.4671113261379E+00
    61  6.0000000000000E-01  1.8508710502752E-01  1.4807832879786E+00
    62  6.1000000000000E-01  9.1239076370340E-02  1.4924639963367E+00
    63  6.2000000000000E-01 -3.7635443772858E-03  1.5021049933777E+00
    64  6.3000000000000E-01 -9.9481189728594E-02  1.5096603028373E+00
    65  6.4000000000000E-01 -1.9543293091572E-01  1.5150866594094E+00
    66  6.5000000000000E-01 -2.9109903222623E-01  1.5183438335029E+00
    67  6.6000000000000E-01 -3.8592459711883E-01  1.5193950500858E+00
    68  6.7000000000000E-01 -4.7932428422202E-01  1.5182074973897E+00
    69  6.8000000000000E-01 -5.7068804569444E-01  1.5147529183211E+00
    70  6.9000000000000E-01 -6.5938781524490E-01  1.5090082745925E+00
    71  7.0000000000000E-01 -7.4478504895007E-01  1.5009564709010E+00
    72  7.1000000000000E-01 -8.2623899941414E-01  1.4905871240379E+00
    73  7.2000000000000E-01 -9.0311558332103E-01  1.4778973596429E+00
    74  7.3000000000000E-01 -9.7479668452398E-01  1.4628926175086E+00
    75  7.4000000000000E-01 -1.0406897199405E+00  1.4455874449237E+00
    76  7.5000000000000E-01 -1.1002372840569E+00  1.4260062565743E+00
    77  7.6000000000000E-01 -1.1529266801107E+00  1.4041840390296E+00
    78  7.7000000000000E-01 -1.1982991422488E+00  1.3801669778531E+00
    79  7.8000000000000E-01 -1.2359585533126E+00  1.3540129859038E+00
    80  7.9000000000000E-01 -1.2655794674518E+00  1.3257921124457E+00
    81  8.0000000000000E-01 -1.2869142554939E+00  1.2955868142390E+00
    82  8.1000000000000E-01 -1.2997992037920E+00  1.2634920718412E+00
    83  8.2000000000000E-01 -1.3041594139468E+00  1.2296153368534E+00
    84  8.3000000000000E-01 -1.3000123710548E+00  1.1940762987787E+00
    85  8.4000000000000E-01 -1.2874700716311E+00  1.1570064634497E+00
    86  8.5000000000000E-01 -1.2667396286319E+00  1.1185485385835E+00
    87  8.6000000000000E-01 -1.2381222995768E+00  1.0788556258484E+00
    88  8.7000000000000E-01 -1.2020109140676E+00  1.0380902228241E+00
    89  8.8000000000000E-01 -1.1588857084269E+00  9.9642304229811E-01
    90  8.9000000000000E-01 -1.1093086070914E+00  9.5403166040462E-01
    91  9.0000000000000E-01 -1.0539160221342E+00  9.1109900907705E-01
    92  9.1000000000000E-01 -9.9341027320353E-01  8.6781173207029E-01
    93  9.2000000000000E-01 -9.2854975957676E-01  8.2435842732973E-01
    94  9.3000000000000E-01 -8.6013804332609E-01  7.8092780165795E-01
    95  9.4000000000000E-01 -7.8901202715859E-01  7.3770676638234E-01
    96  9.5000000000000E-01 -7.1602943178299E-01  6.9487850498989E-01
    97  9.6000000000000E-01 -6.4205579518143E-01  6.5262054540762E-01
    98  9.7000000000000E-01 -5.6795122949546E-01  6.1110287072078E-01
    99  9.8000000000000E-01 -4.9455718004073E-01  5.7048610259587E-01
   100  9.9000000000000E-01 -4.2268343498928E-01  5.3091979148706E-01
   101  1.0000000000000E+00 -3.5309563334789E-01  4.9254084683878E-01
   102  1.0100000000000E+00 -2.8650351295424E-01  4.5547213895392E-01
   103  1.0200000000000E+00 -2.2355012936058E-01  4.1982130199165E-01
   104  1.0300000000000E+00 -1.6480226082913E-01  3.8567976471926E-01
   105  1.0400000000000E+00 -1.1074219444205E-01  3.5312203220506E-01
   106  1.0500000000000E+00 -6.1761063925904E-02  3.2220523766639E-01
   107  1.0600000000000E+00 -1.8153881595624E-02  2.9296897923646E-01
   108  1.0700000000000E+00  1.9883624664322E-02  2.6543545156009E-01
   109  1.0800000000000E+00  5.2256292543512E-02  2.3960987697329E-01
   110  1.0900000000000E+00  7.8968883972200E-02  2.1548123562744E-01
   111  1.1000000000000E+00  1.0012351814687E-01  1.9302328842120E-01
   112  1.1100000000000E+00  1.1591521389437E-01  1.7219588107197E-01
   113  1.1200000000000E+00  1.2662561430533E-01  1.5294651221945E-01
   114  1.1300000000000E+00  1.3261500361499E-01  1.3521214320500E-01
   115  1.1400000000000E+00  1.3431276176748E-01  1.1892122220679E-01
   116  1.1500000000000E+00  1.3220643512414E-01  1.0399589084806E-01
   117  1.1600000000000E+00  1.2682963185324E-01  9.0354337303031E-02
   118  1.1700000000000E+00  1.1874897689483E-01  7.7913256408090E-02
   119  1.1800000000000E+00  1.0855038358876E-01  6.6590374402073E-02
   120  1.1900000000000E+00  9.6824916566487E-02  5.6306993738889E-02
   121  1.2000000000000E+00  8.4154532942549E-02  4.6990511988023E-02
   122  1.2100000000000E+00  7.1097995964527E-02  3.8576868195903E-02
   123  1.2200000000000E+00  5.8177217689801E-02  3.1012879837711E-02
   124  1.2300000000000E+00  4.5864581589315E-02  2.4258357780875E-02
   125  1.2400000000000E+00  3.4560450168037E-02  1.8290641779702E-02
   126  1.2500000000000E+00  2.4491075175398E-02  1.3127694696083E-02
   127  1.2600000000000E+00  1.5937862297521E-02  8.7724764582874E-03
   128  1.2700000000000E+00  9.1411942782642E-03  5.2367003196546E-03
   129  1.2800000000000E+00  4.2334480883885E-03  2.5567148240429E-03
   130  1.2900000000000E+00  1.2277883559419E-03  7.8719488440575E-04
   131  1.3000000000000E+00  7.6985600012262E-05  4.2827411153359E-05
   132  1.3100000000000E+00  3.2790938671714E-07  3.1685386385930E-07
   133  1.3200000000000E+00 -6.9586052663320E-07 -6.6653417369315E-07
   134  1.33  0.  0.
   135  1.34  0.  0.
   136  1.35  0.  0.
   137  1.36  0.  0.
   138  1.37  0.  0.
   139  1.38  0.  0.
   140  1.39  0.  0.
   141  1.40  0.  0.
   142  1.41  0.  0.
   143  1.42  0.  0.
   144  1.43  0.  0.
   145  1.44  0.  0.
   146  1.45  0.  0.
   147  1.46  0.  0.
   148  1.47  0.  0.
   149  1.48  0.  0.
   150  1.49  0.  0.
   151  1.50  0.  0.
   152  1.51  0.  0.
   153  1.52  0.  0.
   154  1.53  0.  0.
   155  1.54  0.  0.
   156  1.55  0.  0.
   157  1.56  0.  0.
   158  1.57  0.  0.
   159  1.58  0.  0.
   160  1.59  0.  0.
   161  1.60  0.  0.
   162  1.61  0.  0.
   163  1.62  0.  0.
   164  1.63  0.  0.
   165  1.64  0.  0.
   166  1.65  0.  0.
   167  1.66  0.  0.
   168  1.67  0.  0.
   169  1.68  0.  0.
   170  1.69  0.  0.
   171  1.70  0.  0.
   172  1.71  0.  0.
   173  1.72  0.  0.
   174  1.73  0.  0.
   175  1.74  0.  0.
   176  1.75  0.  0.
   177  1.76  0.  0.
   178  1.77  0.  0.
   179  1.78  0.  0.
   180  1.79  0.  0.
   181  1.80  0.  0.
   182  1.81  0.  0.
   183  1.82  0.  0.
   184  1.83  0.  0.