Mg    ONCVPSP-4.0.1  r_core=   1.15435   1.55681
     12.0000     10.0000      250217    zatom,zion,pspd
     8       2   1     4   400     0    pspcod,pspxc,lmax,lloc,mmax,r2well
  3.99000000  0.00000000  0.00000000    rchrg fchrg qchrg
     2     2     0     0    nproj
     3     1           extension_switch
     3     0     0    nprojso
   0                         2.2485945596109E+00 -7.1669963182414E-01
     1  0.0000000000000E+00  6.3885466694558E-08  1.4207305609748E-09
     2  1.0000000000000E-02  9.4947601789639E-02  2.9728351480674E-02
     3  2.0000000000000E-02  1.8986910282768E-01  5.9480829455726E-02
     4  3.0000000000000E-02  2.8472525206241E-01  8.9281189472037E-02
     5  4.0000000000000E-02  3.7945101010496E-01  1.1915245388467E-01
     6  5.0000000000000E-02  4.7394391835195E-01  1.4911656662237E-01
     7  6.0000000000000E-02  5.6805393600064E-01  1.7919407249351E-01
     8  7.0000000000000E-02  6.6157515584802E-01  2.0940382744070E-01
     9  8.0000000000000E-02  7.5423974587947E-01  2.3976274473132E-01
    10  9.0000000000000E-02  8.4571438782020E-01  2.7028558041391E-01
    11  1.0000000000000E-01  9.3559939853279E-01  3.0098475954763E-01
    12  1.1000000000000E-01  1.0234306282019E+00  3.3187024280497E-01
    13  1.2000000000000E-01  1.1086841336817E+00  3.6294943114086E-01
    14  1.3000000000000E-01  1.1907835293454E+00  3.9422710440173E-01
    15  1.4000000000000E-01  1.2691098244493E+00  4.2570538809950E-01
    16  1.5000000000000E-01  1.3430134685014E+00  4.5738374117852E-01
    17  1.6000000000000E-01  1.4118282473287E+00  4.8925895652884E-01
    18  1.7000000000000E-01  1.4748866051103E+00  5.2132516530532E-01
    19  1.8000000000000E-01  1.5315359138621E+00  5.5357383584674E-01
    20  1.9000000000000E-01  1.5811551735778E+00  5.8599375817860E-01
    21  2.0000000000000E-01  1.6231716047839E+00  6.1857100574170E-01
    22  2.1000000000000E-01  1.6570765914728E+00  6.5128886710727E-01
    23  2.2000000000000E-01  1.6824404464461E+00  6.8412774199239E-01
    24  2.3000000000000E-01  1.6989255027091E+00  7.1706499783306E-01
    25  2.4000000000000E-01  1.7062970827516E+00  7.5007478544317E-01
    26  2.5000000000000E-01  1.7044319608907E+00  7.8312781480978E-01
    27  2.6000000000000E-01  1.6933240103445E+00  8.1619109475687E-01
    28  2.7000000000000E-01  1.6730868139608E+00  8.4922764295080E-01
    29  2.8000000000000E-01  1.6439531127556E+00  8.8219617541338E-01
    30  2.9000000000000E-01  1.6062710665848E+00  9.1505078724206E-01
    31  3.0000000000000E-01  1.5604974031414E+00  9.4774063850150E-01
    32  3.1000000000000E-01  1.5071876317437E+00  9.8020966114171E-01
    33  3.2000000000000E-01  1.4469835937767E+00  1.0123963042190E+00
    34  3.3000000000000E-01  1.3805987090354E+00  1.0442333355646E+00
    35  3.4000000000000E-01  1.3088013536943E+00  1.0756477182920E+00
    36  3.5000000000000E-01  1.2323968686235E+00  1.1065605801150E+00
    37  3.6000000000000E-01  1.1522087441410E+00  1.1368872923297E+00
    38  3.7000000000000E-01  1.0690595573706E+00  1.1665376735009E+00
    39  3.8000000000000E-01  9.8375225005908E-01  1.1954163303957E+00
    40  3.9000000000000E-01  8.9705232745877E-01  1.2234231455874E+00
    41  4.0000000000000E-01  8.0967153278850E-01  1.2504539174548E+00
    42  4.1000000000000E-01  7.2225350753928E-01  1.2764011541469E+00
    43  4.2000000000000E-01  6.3536188676115E-01  1.3011550185560E+00
    44  4.3000000000000E-01  5.4947120230003E-01  1.3246044165894E+00
    45  4.4000000000000E-01  4.6496087807585E-01  1.3466382161876E+00
    46  4.5000000000000E-01  3.8211250267083E-01  1.3671465797556E+00
    47  4.6000000000000E-01  3.0111045883639E-01  1.3860223881138E+00
    48  4.7000000000000E-01  2.2204588037911E-01  1.4031627298929E+00
    49  4.8000000000000E-01  1.4492379774626E-01  1.4184704266350E+00
    50  4.9000000000000E-01  6.9673228021636E-02  1.4318555608807E+00
    51  5.0000000000000E-01 -3.8401335970077E-03  1.4432369723216E+00
    52  5.1000000000000E-01 -7.5799052187029E-02  1.4525436858028E+00
    53  5.2000000000000E-01 -1.4641822795715E-01  1.4597162346469E+00
    54  5.3000000000000E-01 -2.1592667370312E-01  1.4647078434886E+00
    55  5.4000000000000E-01 -2.8454960273258E-01  1.4674854365933E+00
    56  5.5000000000000E-01 -3.5249045755127E-01  1.4680304404661E+00
    57  5.6000000000000E-01 -4.1991371179053E-01  1.4663393534058E+00
    58  5.7000000000000E-01 -4.8692905953155E-01  1.4624240594532E+00
    59  5.8000000000000E-01 -5.5357756771731E-01  1.4563118698078E+00
    60  5.9000000000000E-01 -6.1982030976010E-01  1.4480452811302E+00
    61  6.0000000000000E-01 -6.8552992339160E-01  1.4376814470306E+00
    62  6.1000000000000E-01 -7.5048544547763E-01  1.4252913663063E+00
    63  6.2000000000000E-01 -8.1437067365418E-01  1.4109587989169E+00
    64  6.3000000000000E-01 -8.7677619238316E-01  1.3947789280906E+00
    65  6.4000000000000E-01 -9.3720508285467E-01  1.3768567941008E+00
    66  6.5000000000000E-01 -9.9508221578070E-01  1.3573055319446E+00
    67  6.6000000000000E-01 -1.0497669073393E+00  1.3362444511814E+00
    68  6.7000000000000E-01 -1.1005686051364E+00  1.3137970013574E+00
    69  6.8000000000000E-01 -1.1467651667253E+00  1.2900886705801E+00
    70  6.9000000000000E-01 -1.1876232013575E+00  1.2652448677693E+00
    71  7.0000000000000E-01 -1.2224198693196E+00  1.2393888407816E+00
    72  7.1000000000000E-01 -1.2504654749938E+00  1.2126396828934E+00
    73  7.2000000000000E-01 -1.2711261517566E+00  1.1851104790038E+00
    74  7.3000000000000E-01 -1.2838459203993E+00  1.1569066403618E+00
    75  7.4000000000000E-01 -1.2881674087109E+00  1.1281244726792E+00
    76  7.5000000000000E-01 -1.2837505482634E+00  1.0988500172346E+00
    77  7.6000000000000E-01 -1.2703886146651E+00  1.0691581981215E+00
    78  7.7000000000000E-01 -1.2480210482635E+00  1.0391123012968E+00
    79  7.8000000000000E-01 -1.2167425815211E+00  1.0087638027352E+00
    80  7.9000000000000E-01 -1.1768083044689E+00  9.7815255399940E-01
    81  8.0000000000000E-01 -1.1286344176778E+00  9.4730732413823E-01
    82  8.1000000000000E-01 -1.0727945495293E+00  9.1624668727479E-01
    83  8.2000000000000E-01 -1.0100116473864E+00  8.8498023580989E-01
    84  8.3000000000000E-01 -9.4114558647658E-01  8.5351009010474E-01
    85  8.4000000000000E-01 -8.6717677178873E-01  8.2183266708106E-01
    86  8.5000000000000E-01 -7.8918613294433E-01  7.8994066263156E-01
    87  8.6000000000000E-01 -7.0833202592199E-01  7.5782519629176E-01
    88  8.7000000000000E-01 -6.2582465507792E-01  7.2547806148407E-01
    89  8.8000000000000E-01 -5.4289871090647E-01  6.9289402096813E-01
    90  8.9000000000000E-01 -4.6078498074038E-01  6.6007308504229E-01
    91  9.0000000000000E-01 -3.8068172901672E-01  6.2702270962045E-01
    92  9.1000000000000E-01 -3.0372665942101E-01  5.9375985259143E-01
    93  9.2000000000000E-01 -2.3097026248071E-01  5.6031282984171E-01
    94  9.3000000000000E-01 -1.6335131906719E-01  5.2672291692589E-01
    95  9.4000000000000E-01 -1.0167527358626E-01  4.9304564849696E-01
    96  9.5000000000000E-01 -4.6596111945985E-02  4.5935177510603E-01
    97  9.6000000000000E-01  1.3977191126415E-03  4.2572784566013E-01
    98  9.7000000000000E-01  4.1992930189650E-02  3.9227639345815E-01
    99  9.8000000000000E-01  7.5056252792786E-02  3.5911571405252E-01
   100  9.9000000000000E-01  1.0063439495381E-01  3.2637923393042E-01
   101  1.0000000000000E+00  1.1894907990361E-01  2.9421447987734E-01
   102  1.0100000000000E+00  1.3038730450106E-01  2.6278166958611E-01
   103  1.0200000000000E+00  1.3548709662374E-01  2.3225195429973E-01
   104  1.0300000000000E+00  1.3491918573187E-01  2.0280535374147E-01
   105  1.0400000000000E+00  1.2946512443015E-01  1.7462843203863E-01
   106  1.0500000000000E+00  1.1999250692781E-01  1.4791177052181E-01
   107  1.0600000000000E+00  1.0742801976081E-01  1.2284729899146E-01
   108  1.0700000000000E+00  9.2729128218812E-02  9.9625551119601E-02
   109  1.0800000000000E+00  7.6855251988013E-02  7.8432910725394E-02
   110  1.0900000000000E+00  6.0739244939997E-02  5.9448922130187E-02
   111  1.1000000000000E+00  4.5255673320424E-02  4.2844726112662E-02
   112  1.1100000000000E+00  3.1157424910892E-02  2.8785735462919E-02
   113  1.1200000000000E+00  1.9135326515555E-02  1.7402127260817E-02
   114  1.1300000000000E+00  9.7508692461947E-03  8.8014020835652E-03
   115  1.1400000000000E+00  3.4023771043839E-03  3.0728102055298E-03
   116  1.1500000000000E+00  3.3956319503347E-04  3.0933897089274E-04
   117  1.1600000000000E+00 -1.4997065501725E-05 -1.3751885749306E-05
   118  1.1700000000000E+00 -1.5871984541347E-06 -1.4416275329668E-06
   119  1.18  0.  0.
   120  1.19  0.  0.
   121  1.20  0.  0.
   122  1.21  0.  0.
   123  1.22  0.  0.
   124  1.23  0.  0.
   125  1.24  0.  0.
   126  1.25  0.  0.
   127  1.26  0.  0.
   128  1.27  0.  0.
   129  1.28  0.  0.
   130  1.29  0.  0.
   131  1.30  0.  0.
   132  1.31  0.  0.
   133  1.32  0.  0.
   134  1.33  0.  0.
   135  1.34  0.  0.
   136  1.35  0.  0.
   137  1.36  0.  0.
   138  1.37  0.  0.
   139  1.38  0.  0.
   140  1.39  0.  0.
   141  1.40  0.  0.
   142  1.41  0.  0.
   143  1.42  0.  0.
   144  1.43  0.  0.
   145  1.44  0.  0.
   146  1.45  0.  0.
   147  1.46  0.  0.
   148  1.47  0.  0.
   149  1.48  0.  0.
   150  1.49  0.  0.
   151  1.50  0.  0.
   152  1.51  0.  0.
   153  1.52  0.  0.
   154  1.53  0.  0.
   155  1.54  0.  0.
   156  1.55  0.  0.
   157  1.56  0.  0.
   158  1.57  0.  0.
   159  1.58  0.  0.
   160  1.59  0.  0.
   161  1.60  0.  0.
   162  1.61  0.  0.
   163  1.62  0.  0.
   164  1.63  0.  0.
   165  1.64  0.  0.
   166  1.65  0.  0.
   167  1.66  0.  0.
   168  1.67  0.  0.
   169  1.68  0.  0.
   170  1.69  0.  0.
   171  1.70  0.  0.
   172  1.71  0.  0.
   173  1.72  0.  0.
   174  1.73  0.  0.
   175  1.74  0.  0.
   176  1.75  0.  0.
   177  1.76  0.  0.
   178  1.77  0.  0.
   179  1.78  0.  0.
   180  1.79  0.  0.
   181  1.80  0.  0.
   182  1.81  0.  0.
   183  1.82  0.  0.
   184  1.83  0.  0.
   185  1.84  0.  0.
   186  1.85  0.  0.
   187  1.86  0.  0.
   188  1.87  0.  0.
   189  1.88  0.  0.
   190  1.89  0.  0.
   191  1.90  0.  0.
   192  1.91  0.  0.
   193  1.92  0.  0.
   194  1.93  0.  0.
   195  1.94  0.  0.
   196  1.95  0.  0.
   197  1.96  0.  0.
   198  1.97  0.  0.
   199  1.98  0.  0.
   200  1.99  0.  0.
   201  2.00  0.  0.
   202  2.01  0.  0.
   203  2.02  0.  0.
   204  2.03  0.  0.
   205  2.04  0.  0.
   206  2.05  0.  0.
   207  2.06  0.  0.
   208  2.07  0.  0.
   209  2.08  0.  0.
   210  2.09  0.  0.
   211  2.10  0.  0.
   212  2.11  0.  0.
   213  2.12  0.  0.
   214  2.13  0.  0.
   215  2.14  0.  0.
   216  2.15  0.  0.
   217  2.16  0.  0.
   218  2.17  0.  0.
   219  2.18  0.  0.
   220  2.19  0.  0.
   221  2.20  0.  0.
   222  2.21  0.  0.
   223  2.22  0.  0.
   224  2.23  0.  0.
   225  2.24  0.  0.
   226  2.25  0.  0.
   227  2.26  0.  0.
   228  2.27  0.  0.
   229  2.28  0.  0.
   230  2.29  0.  0.
   231  2.30  0.  0.
   232  2.31  0.  0.
   233  2.32  0.  0.
   234  2.33  0.  0.
   235  2.34  0.  0.
   236  2.35  0.  0.
   237  2.36  0.  0.
   238  2.37  0.  0.
   239  2.38  0.  0.
   240  2.39  0.  0.
   241  2.40  0.  0.
   242  2.41  0.  0.
   243  2.42  0.  0.
   244  2.43  0.  0.
   245  2.44  0.  0.
   246  2.45  0.  0.
   247  2.46  0.  0.
   248  2.47  0.  0.
   249  2.48  0.  0.
   250  2.49  0.  0.
   251  2.50  0.  0.
   252  2.51  0.  0.
   253  2.52  0.  0.
   254  2.53  0.  0.
   255  2.54  0.  0.
   256  2.55  0.  0.
   257  2.56  0.  0.
   258  2.57  0.  0.
   259  2.58  0.  0.
   260  2.59  0.  0.
   261  2.60  0.  0.
   262  2.61  0.  0.
   263  2.62  0.  0.
   264  2.63  0.  0.
   265  2.64  0.  0.
   266  2.65  0.  0.
   267  2.66  0.  0.
   268  2.67  0.  0.
   269  2.68  0.  0.
   270  2.69  0.  0.
   271  2.70  0.  0.
   272  2.71  0.  0.
   273  2.72  0.  0.
   274  2.73  0.  0.
   275  2.74  0.  0.
   276  2.75  0.  0.
   277  2.76  0.  0.
   278  2.77  0.  0.
   279  2.78  0.  0.
   280  2.79  0.  0.
   281  2.80  0.  0.
   282  2.81  0.  0.
   283  2.82  0.  0.
   284  2.83  0.  0.
   285  2.84  0.  0.
   286  2.85  0.  0.
   287  2.86  0.  0.
   288  2.87  0.  0.
   289  2.88  0.  0.
   290  2.89  0.  0.
   291  2.90  0.  0.
   292  2.91  0.  0.
   293  2.92  0.  0.
   294  2.93  0.  0.
   295  2.94  0.  0.
   296  2.95  0.  0.
   297  2.96  0.  0.
   298  2.97  0.  0.
   299  2.98  0.  0.
   300  2.99  0.  0.
   301  3.00  0.  0.
   302  3.01  0.  0.
   303  3.02  0.  0.
   304  3.03  0.  0.
   305  3.04  0.  0.
   306  3.05  0.  0.
   307  3.06  0.  0.
   308  3.07  0.  0.
   309  3.08  0.  0.
   310  3.09  0.  0.
   311  3.10  0.  0.
   312  3.11  0.  0.
   313  3.12  0.  0.
   314  3.13  0.  0.
   315  3.14  0.  0.
   316  3.15  0.  0.
   317  3.16  0.  0.
   318  3.17  0.  0.
   319  3.18  0.  0.
   320  3.19  0.  0.
   321  3.20  0.  0.
   322  3.21  0.  0.
   323  3.22  0.  0.
   324  3.23  0.  0.
   325  3.24  0.  0.
   326  3.25  0.  0.
   327  3.26  0.  0.
   328  3.27  0.  0.
   329  3.28  0.  0.
   330  3.29  0.  0.
   331  3.30  0.  0.
   332  3.31  0.  0.
   333  3.32  0.  0.
   334  3.33  0.  0.
   335  3.34  0.  0.
   336  3.35  0.  0.
   337  3.36  0.  0.
   338  3.37  0.  0.
   339  3.38  0.  0.
   340  3.39  0.  0.
   341  3.40  0.  0.
   342  3.41  0.  0.
   343  3.42  0.  0.
   344  3.43  0.  0.
   345  3.44  0.  0.
   346  3.45  0.  0.
   347  3.46  0.  0.
   348  3.47  0.  0.
   349  3.48  0.  0.
   350  3.49  0.  0.
   351  3.50  0.  0.
   352  3.51  0.  0.
   353  3.52  0.  0.
   354  3.53  0.  0.
   355  3.54  0.  0.
   356  3.55  0.  0.
   357  3.56  0.  0.
   358  3.57  0.  0.
   359  3.58  0.  0.
   360  3.59  0.  0.
   361  3.60  0.  0.
   362  3.61  0.  0.
   363  3.62  0.  0.
   364  3.63  0.  0.
   365  3.64  0.  0.
   366  3.65  0.  0.
   367  3.66  0.  0.
   368  3.67  0.  0.
   369  3.68  0.  0.
   370  3.69  0.  0.
   371  3.70  0.  0.
   372  3.71  0.  0.
   373  3.72  0.  0.
   374  3.73  0.  0.
   375  3.74  0.  0.
   376  3.75  0.  0.
   377  3.76  0.  0.
   378  3.77  0.  0.
   379  3.78  0.  0.
   380  3.79  0.  0.
   381  3.80  0.  0.
   382  3.81  0.  0.
   383  3.82  0.  0.
   384  3.83  0.  0.
   385  3.84  0.  0.
   386  3.85  0.  0.
   387  3.86  0.  0.
   388  3.87  0.  0.
   389  3.88  0.  0.
   390  3.89  0.  0.
   391  3.90  0.  0.
   392  3.91  0.  0.
   393  3.92  0.  0.
   394  3.93  0.  0.
   395  3.94  0.  0.
   396  3.95  0.  0.
   397  3.96  0.  0.
   398  3.97  0.  0.
   399  3.98  0.  0.
   400  3.99  0.  0.
   1                        -6.2362852048863E+00 -2.2256053040997E+00
     1  0.0000000000000E+00 -2.8093056075873E-09  5.6993376823522E-09
     2  1.0000000000000E-02  1.6497335062711E-03 -4.5527562218120E-04
     3  2.0000000000000E-02  6.5950066646812E-03 -1.8219821324583E-03
     4  3.0000000000000E-02  1.4823983837049E-02 -4.1026292007576E-03
     5  4.0000000000000E-02  2.6316762133140E-02 -7.3009721820123E-03
     6  5.0000000000000E-02  4.1045112071621E-02 -1.1421382947147E-02
     7  6.0000000000000E-02  5.8972126173032E-02 -1.6467992720825E-02
     8  7.0000000000000E-02  8.0051786842356E-02 -2.2443629970610E-02
     9  8.0000000000000E-02  1.0422846770812E-01 -2.9348582091554E-02
    10  9.0000000000000E-02  1.3143638507978E-01 -3.7179214691295E-02
    11  1.0000000000000E-01  1.6159901830932E-01 -4.5926486589551E-02
    12  1.1000000000000E-01  1.9462851954728E-01 -5.5574402103821E-02
    13  1.2000000000000E-01  2.3042513462848E-01 -6.6098444719671E-02
    14  1.3000000000000E-01  2.6887665757698E-01 -7.7464037777836E-02
    15  1.4000000000000E-01  3.0985794146387E-01 -8.9625078311546E-02
    16  1.5000000000000E-01  3.5323048807487E-01 -1.0252258961727E-01
    17  1.6000000000000E-01  3.9884213804874E-01 -1.1608353654431E-01
    18  1.7000000000000E-01  4.4652688184405E-01 -1.3021984486948E-01
    19  1.8000000000000E-01  4.9610481010402E-01 -1.4482766252990E-01
    20  1.9000000000000E-01  5.4738221974873E-01 -1.5978689598925E-01
    21  2.0000000000000E-01  6.0015188947479E-01 -1.7496104969790E-01
    22  2.1000000000000E-01  6.5419353533502E-01 -1.9019739058249E-01
    23  2.2000000000000E-01  7.0927445376439E-01 -2.0532745288680E-01
    24  2.3000000000000E-01  7.6515035587867E-01 -2.2016789161932E-01
    25  2.4000000000000E-01  8.2156639317080E-01 -2.3452168548891E-01
    26  2.5000000000000E-01  8.7825837094112E-01 -2.4817968268223E-01
    27  2.6000000000000E-01  9.3495414199873E-01 -2.6092247531386E-01
    28  2.7000000000000E-01  9.9137516944150E-01 -2.7252258102037E-01
    29  2.8000000000000E-01  1.0472382437375E+00 -2.8274690313157E-01
    30  2.9000000000000E-01  1.1022573359667E+00 -2.9135943428715E-01
    31  3.0000000000000E-01  1.1561455660115E+00 -2.9812416241872E-01
    32  3.1000000000000E-01  1.2086172617677E+00 -3.0280813281796E-01
    33  3.2000000000000E-01  1.2593900831543E+00 -3.0518461567877E-01
    34  3.3000000000000E-01  1.3081871828667E+00 -3.0503632513616E-01
    35  3.4000000000000E-01  1.3547393745004E+00 -3.0215863350810E-01
    36  3.5000000000000E-01  1.3987872778913E+00 -2.9636272324082E-01
    37  3.6000000000000E-01  1.4400834113039E+00 -2.8747861899931E-01
    38  3.7000000000000E-01  1.4783942004518E+00 -2.7535804345060E-01
    39  3.8000000000000E-01  1.5135018752625E+00 -2.5987704254598E-01
    40  3.9000000000000E-01  1.5452062267806E+00 -2.4093832948943E-01
    41  4.0000000000000E-01  1.5733261986187E+00 -2.1847330102438E-01
    42  4.1000000000000E-01  1.5977012898761E+00 -1.9244368510222E-01
    43  4.2000000000000E-01  1.6181927494106E+00 -1.6284278531265E-01
    44  4.3000000000000E-01  1.6346845447016E+00 -1.2969629453902E-01
    45  4.4000000000000E-01  1.6470840922367E+00 -9.3062658014574E-02
    46  4.5000000000000E-01  1.6553227402979E+00 -5.3032974147750E-02
    47  4.6000000000000E-01  1.6593559991580E+00 -9.7304299935252E-03
    48  4.7000000000000E-01  1.6591635179324E+00  3.6690723096062E-02
    49  4.8000000000000E-01  1.6547488115827E+00  8.6046639481488E-02
    50  4.9000000000000E-01  1.6461387457572E+00  1.3812577232089E-01
    51  5.0000000000000E-01  1.6333827911884E+00  1.9269115910055E-01
    52  5.1000000000000E-01  1.6165520631780E+00  2.4948306147972E-01
    53  5.2000000000000E-01  1.5957381651947E+00  3.0822191452111E-01
    54  5.3000000000000E-01  1.5710518587330E+00  3.6861153442884E-01
    55  5.4000000000000E-01  1.5426215842590E+00  4.3034252894223E-01
    56  5.5000000000000E-01  1.5105918602492E+00  4.9309585064743E-01
    57  5.6000000000000E-01  1.4751215889684E+00  5.5654643075653E-01
    58  5.7000000000000E-01  1.4363822986938E+00  6.2036682943194E-01
    59  5.8000000000000E-01  1.3945563525591E+00  6.8423083854070E-01
    60  5.9000000000000E-01  1.3498351540469E+00  7.4781697382405E-01
    61  6.0000000000000E-01  1.3024173784092E+00  8.1081179584838E-01
    62  6.1000000000000E-01  1.2525072579561E+00  8.7291300272509E-01
    63  6.2000000000000E-01  1.2003129472510E+00  9.3383224238309E-01
    64  6.3000000000000E-01  1.1460449918248E+00  9.9329759805818E-01
    65  6.4000000000000E-01  1.0899149211260E+00  1.0510557075134E+00
    66  6.5000000000000E-01  1.0321339831153E+00  1.1068734841891E+00
    67  6.6000000000000E-01  9.7291203426407E-01  1.1605394168446E+00
    68  6.7000000000000E-01  9.1245659480522E-01  1.2118644331308E+00
    69  6.8000000000000E-01  8.5097207499503E-01  1.2606823217302E+00
    70  6.9000000000000E-01  7.8865917396072E-01  1.3068497170476E+00
    71  7.0000000000000E-01  7.2571444852810E-01  1.3502456597094E+00
    72  7.1000000000000E-01  6.6233004533132E-01  1.3907707551612E+00
    73  7.2000000000000E-01  5.9869358559657E-01  1.4283459612314E+00
    74  7.3000000000000E-01  5.3498818834824E-01  1.4629110434786E+00
    75  7.4000000000000E-01  4.7139261449236E-01  1.4944227442783E+00
    76  7.5000000000000E-01  4.0808151136208E-01  1.5228527177880E+00
    77  7.6000000000000E-01  3.4522573492971E-01  1.5481852879980E+00
    78  7.7000000000000E-01  2.8299272505644E-01  1.5704150909281E+00
    79  7.8000000000000E-01  2.2154690790794E-01  1.5895446645682E+00
    80  7.9000000000000E-01  1.6105009904451E-01  1.6055820513110E+00
    81  8.0000000000000E-01  1.0166188071817E-01  1.6185384773609E+00
    82  8.1000000000000E-01  4.3539927579964E-02  1.6284261719084E+00
    83  8.2000000000000E-01 -1.3159743688417E-02  1.6352563857581E+00
    84  8.3000000000000E-01 -6.8282623377244E-02  1.6390376646421E+00
    85  8.4000000000000E-01 -1.2167567643655E-01  1.6397744267217E+00
    86  8.5000000000000E-01 -1.7318744586136E-01  1.6374658868856E+00
    87  8.6000000000000E-01 -2.2266830527857E-01  1.6321053625313E+00
    88  8.7000000000000E-01 -2.6997087033489E-01  1.6236799867183E+00
    89  8.8000000000000E-01 -3.1495057426585E-01  1.6121708450976E+00
    90  8.9000000000000E-01 -3.5746640858133E-01  1.5975535430382E+00
    91  9.0000000000000E-01 -3.9738182523095E-01  1.5797991990952E+00
    92  9.1000000000000E-01 -4.3456579201138E-01  1.5588758506282E+00
    93  9.2000000000000E-01 -4.6889398845120E-01  1.5347502471789E+00
    94  9.3000000000000E-01 -5.0025012505861E-01  1.5073899974005E+00
    95  9.4000000000000E-01 -5.2852736474301E-01  1.4767660260983E+00
    96  9.5000000000000E-01 -5.5362982152007E-01  1.4428552894984E+00
    97  9.6000000000000E-01 -5.7547410836765E-01  1.4056436894156E+00
    98  9.7000000000000E-01 -5.9399090340055E-01  1.3651291206938E+00
    99  9.8000000000000E-01 -6.0912650144329E-01  1.3213245813203E+00
   100  9.9000000000000E-01 -6.2084431666145E-01  1.2742612710750E+00
   101  1.0000000000000E+00 -6.2912630120790E-01  1.2239916025762E+00
   102  1.0100000000000E+00 -6.3397424488126E-01  1.1705920481908E+00
   103  1.0200000000000E+00 -6.3541092159640E-01  1.1141657475241E+00
   104  1.0300000000000E+00 -6.3348105002649E-01  1.0548448030883E+00
   105  1.0400000000000E+00 -6.2825203808286E-01  9.9279219624594E-01
   106  1.0500000000000E+00 -6.1981448391503E-01  9.2820326156439E-01
   107  1.0600000000000E+00 -6.0828240978918E-01  8.6130666518168E-01
   108  1.0700000000000E+00 -5.9379320948976E-01  7.9236484158914E-01
   109  1.0800000000000E+00 -5.7650729468799E-01  7.2167385315636E-01
   110  1.0900000000000E+00 -5.5660743054056E-01  6.4956264604023E-01
   111  1.1000000000000E+00 -5.3429776013644E-01  5.7639170184795E-01
   112  1.1100000000000E+00 -5.0980208946003E-01  5.0254958011422E-01
   113  1.1200000000000E+00 -4.8336039894909E-01  4.2844396347084E-01
   114  1.1300000000000E+00 -4.5522703137239E-01  3.5449934531210E-01
   115  1.1400000000000E+00 -4.2566865358139E-01  2.8115418103676E-01
   116  1.1500000000000E+00 -3.9496170533384E-01  2.0885654015799E-01
   117  1.1600000000000E+00 -3.6338964904773E-01  1.3805934312288E-01
   118  1.1700000000000E+00 -3.3124005118636E-01  6.9215237762947E-02
   119  1.1800000000000E+00 -2.9880153458883E-01  2.7711948699176E-03
   120  1.1900000000000E+00 -2.6636064401130E-01 -6.0837091907733E-02
   121  1.2000000000000E+00 -2.3419867005578E-01 -1.2119091013541E-01
   122  1.2100000000000E+00 -2.0258847877100E-01 -1.7789424013835E-01
   123  1.2200000000000E+00 -1.7179139549256E-01 -2.3057937449700E-01
   124  1.2300000000000E+00 -1.4205419190775E-01 -2.7891234475898E-01
   125  1.2400000000000E+00 -1.1360622486103E-01 -3.2259805531283E-01
   126  1.2500000000000E+00 -8.6656774049939E-02 -3.6138502694610E-01
   127  1.2600000000000E+00 -6.1392623502451E-02 -3.9506965708401E-01
   128  1.2700000000000E+00 -3.7975928633995E-02 -4.2349990995339E-01
   129  1.2800000000000E+00 -1.6542406743123E-02 -4.4657835796250E-01
   130  1.2900000000000E+00  2.8001158694126E-03 -4.6426450520245E-01
   131  1.3000000000000E+00  1.9972772307496E-02 -4.7657633499949E-01
   132  1.3100000000000E+00  3.4926317130070E-02 -4.8359103582456E-01
   133  1.3200000000000E+00  4.7641366582676E-02 -4.8544487321586E-01
   134  1.3300000000000E+00  5.8128208346571E-02 -4.8233218953607E-01
   135  1.3400000000000E+00  6.6426179212169E-02 -4.7450352814170E-01
   136  1.3500000000000E+00  7.2602616282036E-02 -4.6226289358624E-01
   137  1.3600000000000E+00  7.6751394501977E-02 -4.4596417452906E-01
   138  1.3700000000000E+00  7.8991070369455E-02 -4.2600677078840E-01
   139  1.3800000000000E+00  7.9462658497990E-02 -4.0283048029172E-01
   140  1.3900000000000E+00  7.8327074126382E-02 -3.7690971512339E-01
   141  1.4000000000000E+00  7.5762280579323E-02 -3.4874712829161E-01
   142  1.4100000000000E+00  7.1960185987424E-02 -3.1886674397211E-01
   143  1.4200000000000E+00  6.7123338151210E-02 -2.8780669360592E-01
   144  1.4300000000000E+00  6.1461470223288E-02 -2.5611166819922E-01
   145  1.4400000000000E+00  5.5187952764651E-02 -2.2432520324090E-01
   146  1.4500000000000E+00  4.8516208930138E-02 -1.9298191526993E-01
   147  1.4600000000000E+00  4.1656161605950E-02 -1.6259983323611E-01
   148  1.4700000000000E+00  3.4810721476505E-02 -1.3367284937971E-01
   149  1.4800000000000E+00  2.8172647009517E-02 -1.0666395002389E-01
   150  1.4900000000000E+00  2.1924824893365E-02 -8.2005339996067E-02
   151  1.5000000000000E+00  1.6231066770473E-02 -6.0079728192939E-02
   152  1.5100000000000E+00  1.1232257688284E-02 -4.1212228069865E-02
   153  1.5200000000000E+00  7.0488268542077E-03 -2.5674973347294E-02
   154  1.5300000000000E+00  3.7787583417001E-03 -1.3683420252034E-02
   155  1.5400000000000E+00  1.4916369661670E-03 -5.3771906984250E-03
   156  1.5500000000000E+00  2.5835004344457E-04 -9.2821036704063E-04
   157  1.5600000000000E+00 -2.2365982777261E-05  8.0225219899705E-05
   158  1.5700000000000E+00  6.7865305024478E-06 -2.4353971861463E-05
   159  1.58  0.  0.
   160  1.59  0.  0.
   161  1.60  0.  0.
   162  1.61  0.  0.
   163  1.62  0.  0.
   164  1.63  0.  0.
   165  1.64  0.  0.
   166  1.65  0.  0.
   167  1.66  0.  0.
   168  1.67  0.  0.
   169  1.68  0.  0.
   170  1.69  0.  0.
   171  1.70  0.  0.
   172  1.71  0.  0.
   173  1.72  0.  0.
   174  1.73  0.  0.
   175  1.74  0.  0.
   176  1.75  0.  0.
   177  1.76  0.  0.
   178  1.77  0.  0.
   179  1.78  0.  0.
   180  1.79  0.  0.
   181  1.80  0.  0.
   182  1.81  0.  0.
   183  1.82  0.  0.
   184  1.83  0.  0.
   185  1.84  0.  0.
   186  1.85  0.  0.
   187  1.86  0.  0.
   188  1.87  0.  0.
   189  1.88  0.  0.
   190  1.89  0.  0.
   191  1.90  0.  0.
   192  1.91  0.  0.
   193  1.92  0.  0.
   194  1.93  0.  0.
   195  1.94  0.  0.
   196  1.95  0.  0.
   197  1.96  0.  0.
   198  1.97  0.  0.
   199  1.98  0.  0.
   200  1.99  0.  0.
   201  2.00  0.  0.
   202  2.01  0.  0.
   203  2.02  0.  0.
   204  2.03  0.  0.
   205  2.04  0.  0.
   206  2.05  0.  0.
   207  2.06  0.  0.
   208  2.07  0.  0.
   209  2.08  0.  0.
   210  2.09  0.  0.
   211  2.10  0.  0.
   212  2.11  0.  0.
   213  2.12  0.  0.
   214  2.13  0.  0.
   215  2.14  0.  0.
   216  2.15  0.  0.
   217  2.16  0.  0.
   218  2.17  0.  0.
   219  2.18  0.  0.
   220  2.19  0.  0.
   221  2.20  0.  0.
   222  2.21  0.  0.
   223  2.22  0.  0.
   224  2.23  0.  0.
   225  2.24  0.  0.
   226  2.25  0.  0.
   227  2.26  0.  0.
   228  2.27  0.  0.
   229  2.28  0.  0.
   230  2.29  0.  0.
   231  2.30  0.  0.
   232  2.31  0.  0.
   233  2.32  0.  0.
   234  2.33  0.  0.
   235  2.34  0.  0.
   236  2.35  0.  0.
   237  2.36  0.  0.
   238  2.37  0.  0.
   239  2.38  0.  0.
   240  2.39  0.  0.
   241  2.40  0.  0.
   242  2.41  0.  0.
   243  2.42  0.  0.
   244  2.43  0.  0.
   245  2.44  0.  0.
   246  2.45  0.  0.
   247  2.46  0.  0.
   248  2.47  0.  0.
   249  2.48  0.  0.
   250  2.49  0.  0.
   251  2.50  0.  0.
   252  2.51  0.  0.
   253  2.52  0.  0.
   254  2.53  0.  0.
   255  2.54  0.  0.
   256  2.55  0.  0.
   257  2.56  0.  0.
   258  2.57  0.  0.
   259  2.58  0.  0.
   260  2.59  0.  0.
   261  2.60  0.  0.
   262  2.61  0.  0.
   263  2.62  0.  0.
   264  2.63  0.  0.
   265  2.64  0.  0.
   266  2.65  0.  0.
   267  2.66  0.  0.
   268  2.67  0.  0.
   269  2.68  0.  0.
   270  2.69  0.  0.
   271  2.70  0.  0.
   272  2.71  0.  0.
   273  2.72  0.  0.
   274  2.73  0.  0.
   275  2.74  0.  0.
   276  2.75  0.  0.
   277  2.76  0.  0.
   278  2.77  0.  0.
   279  2.78  0.  0.
   280  2.79  0.  0.
   281  2.80  0.  0.
   282  2.81  0.  0.
   283  2.82  0.  0.
   284  2.83  0.  0.
   285  2.84  0.  0.
   286  2.85  0.  0.
   287  2.86  0.  0.
   288  2.87  0.  0.
   289  2.88  0.  0.
   290  2.89  0.  0.
   291  2.90  0.  0.
   292  2.91  0.  0.
   293  2.92  0.  0.
   294  2.93  0.  0.
   295  2.94  0.  0.
   296  2.95  0.  0.
   297  2.96  0.  0.
   298  2.97  0.  0.
   299  2.98  0.  0.
   300  2.99  0.  0.
   301  3.00  0.  0.
   302  3.01  0.  0.
   303  3.02  0.  0.
   304  3.03  0.  0.
   305  3.04  0.  0.
   306  3.05  0.  0.
   307  3.06  0.  0.
   308  3.07  0.  0.
   309  3.08  0.  0.
   310  3.09  0.  0.
   311  3.10  0.  0.
   312  3.11  0.  0.
   313  3.12  0.  0.
   314  3.13  0.  0.
   315  3.14  0.  0.
   316  3.15  0.  0.
   317  3.16  0.  0.
   318  3.17  0.  0.
   319  3.18  0.  0.
   320  3.19  0.  0.
   321  3.20  0.  0.
   322  3.21  0.  0.
   323  3.22  0.  0.
   324  3.23  0.  0.
   325  3.24  0.  0.
   326  3.25  0.  0.
   327  3.26  0.  0.
   328  3.27  0.  0.
   329  3.28  0.  0.
   330  3.29  0.  0.
   331  3.30  0.  0.
   332  3.31  0.  0.
   333  3.32  0.  0.
   334  3.33  0.  0.
   335  3.34  0.  0.
   336  3.35  0.  0.
   337  3.36  0.  0.
   338  3.37  0.  0.
   339  3.38  0.  0.
   340  3.39  0.  0.
   341  3.40  0.  0.
   342  3.41  0.  0.
   343  3.42  0.  0.
   344  3.43  0.  0.
   345  3.44  0.  0.
   346  3.45  0.  0.
   347  3.46  0.  0.
   348  3.47  0.  0.
   349  3.48  0.  0.
   350  3.49  0.  0.
   351  3.50  0.  0.
   352  3.51  0.  0.
   353  3.52  0.  0.
   354  3.53  0.  0.
   355  3.54  0.  0.
   356  3.55  0.  0.
   357  3.56  0.  0.
   358  3.57  0.  0.
   359  3.58  0.  0.
   360  3.59  0.  0.
   361  3.60  0.  0.