Mg    ONCVPSP-4.0.1  r_core=   1.15435   1.55681
     12.0000     10.0000      250925    zatom,zion,pspd
     8   -1012   1     4   400     0    pspcod,pspxc,lmax,lloc,mmax,r2well
  3.99000000  0.00000000  0.00000000    rchrg fchrg qchrg
     2     2     0     0    nproj
     3     1           extension_switch
     3     0     0    nprojso
   0                         2.1788180297060E+00 -7.9440036707740E-01
     1  0.0000000000000E+00  6.7043659957022E-08 -1.2956342665404E-09
     2  1.0000000000000E-02  9.3877080566154E-02  3.1732128028061E-02
     3  2.0000000000000E-02  1.8774824133370E-01  6.3465468851737E-02
     4  3.0000000000000E-02  2.8159368042639E-01  9.5201510100098E-02
     5  4.0000000000000E-02  3.7536636953718E-01  1.2694227593087E-01
     6  5.0000000000000E-02  4.6897976679823E-01  1.5869056279187E-01
     7  6.0000000000000E-02  5.6229707051879E-01  1.9045013713105E-01
     8  7.0000000000000E-02  6.5512244512872E-01  2.2222588393538E-01
     9  8.0000000000000E-02  7.4719458362167E-01  2.5402389627456E-01
    10  9.0000000000000E-02  8.3818289121252E-01  2.8585149758985E-01
    11  1.0000000000000E-01  9.2768648542244E-01  3.1771719026638E-01
    12  1.1000000000000E-01  1.0152361113282E+00  3.4963052601864E-01
    13  1.2000000000000E-01  1.1002989704372E+00  3.8160189575790E-01
    14  1.3000000000000E-01  1.1822863608894E+00  4.1364223884884E-01
    15  1.4000000000000E-01  1.2605639287742E+00  4.4576267394911E-01
    16  1.5000000000000E-01  1.3344642385404E+00  4.7797405590664E-01
    17  1.6000000000000E-01  1.4033012878277E+00  5.1028646541227E-01
    18  1.7000000000000E-01  1.4663865213381E+00  5.4270864021681E-01
    19  1.8000000000000E-01  1.5230458419812E+00  5.7524735867075E-01
    20  1.9000000000000E-01  1.5726370774092E+00  6.0790678808410E-01
    21  2.0000000000000E-01  1.6145673376108E+00  6.4068781188876E-01
    22  2.1000000000000E-01  1.6483096953024E+00  6.7358735077754E-01
    23  2.2000000000000E-01  1.6734186356751E+00  7.0659769385974E-01
    24  2.3000000000000E-01  1.6895437552616E+00  7.3970585638603E-01
    25  2.4000000000000E-01  1.6964412402977E+00  7.7289298073683E-01
    26  2.5000000000000E-01  1.6939827214351E+00  8.0613379712697E-01
    27  2.6000000000000E-01  1.6821611819350E+00  8.3939615985256E-01
    28  2.7000000000000E-01  1.6610936880131E+00  8.7264067389909E-01
    29  2.8000000000000E-01  1.6310208098985E+00  9.0582042535709E-01
    30  2.9000000000000E-01  1.5923027072197E+00  9.3888082737592E-01
    31  3.0000000000000E-01  1.5454119591384E+00  9.7175959135732E-01
    32  3.1000000000000E-01  1.4909233247665E+00  1.0043868307869E+00
    33  3.2000000000000E-01  1.4295007193753E+00  1.0366853025688E+00
    34  3.3000000000000E-01  1.3618817834557E+00  1.0685707880140E+00
    35  3.4000000000000E-01  1.2888605017706E+00  1.0999526128015E+00
    36  3.5000000000000E-01  1.2112683954728E+00  1.1307343023244E+00
    37  3.6000000000000E-01  1.1299548598798E+00  1.1608143659396E+00
    38  3.7000000000000E-01  1.0457672518827E+00  1.1900872007950E+00
    39  3.8000000000000E-01  9.5953134304239E-01  1.2184441031967E+00
    40  3.9000000000000E-01  8.7203274665597E-01  1.2457743729535E+00
    41  4.0000000000000E-01  7.8399989954359E-01  1.2719664938560E+00
    42  4.1000000000000E-01  6.9608913274440E-01  1.2969093714718E+00
    43  4.2000000000000E-01  6.0887230106489E-01  1.3204936078125E+00
    44  4.3000000000000E-01  5.2282736142552E-01  1.3426127911984E+00
    45  4.4000000000000E-01  4.3833219665349E-01  1.3631647788443E+00
    46  4.5000000000000E-01  3.5566187767352E-01  1.3820529493448E+00
    47  4.6000000000000E-01  2.7498944621392E-01  1.3991874023627E+00
    48  4.7000000000000E-01  1.9639018568935E-01  1.4144860834308E+00
    49  4.8000000000000E-01  1.1984923350902E-01  1.4278758128554E+00
    50  4.9000000000000E-01  4.5272277382560E-02  1.4392931992529E+00
    51  5.0000000000000E-01 -2.7501025137788E-02  1.4486854202245E+00
    52  5.1000000000000E-01 -9.8681357229327E-02  1.4560108550524E+00
    53  5.2000000000000E-01 -1.6851231559246E-01  1.4612395570344E+00
    54  5.3000000000000E-01 -2.3725183982526E-01  1.4643535561063E+00
    55  5.4000000000000E-01 -3.0515313631958E-01  1.4653469856833E+00
    56  5.5000000000000E-01 -3.7244575793910E-01  1.4642260310983E+00
    57  5.6000000000000E-01 -4.3931750284329E-01  1.4610087005726E+00
    58  5.7000000000000E-01 -5.0589777642263E-01  1.4557244232318E+00
    59  5.8000000000000E-01 -5.7224301980700E-01  1.4484134822044E+00
    60  5.9000000000000E-01 -6.3832474787989E-01  1.4391262942417E+00
    61  6.0000000000000E-01 -7.0402066089795E-01  1.4279225504833E+00
    62  6.1000000000000E-01 -7.6910919900842E-01  1.4148702359037E+00
    63  6.2000000000000E-01 -8.3326780103091E-01  1.4000445475394E+00
    64  6.3000000000000E-01 -8.9607501113046E-01  1.3835267337468E+00
    65  6.4000000000000E-01 -9.5701645310136E-01  1.3654028784354E+00
    66  6.5000000000000E-01 -1.0154945657907E+00  1.3457626554077E+00
    67  6.6000000000000E-01 -1.0708418687028E+00  1.3246980785860E+00
    68  6.7000000000000E-01 -1.1223374080217E+00  1.3023022740014E+00
    69  6.8000000000000E-01 -1.1692259240091E+00  1.2786682989439E+00
    70  6.9000000000000E-01 -1.2107391845433E+00  1.2538880326401E+00
    71  7.0000000000000E-01 -1.2461188496738E+00  1.2280511612432E+00
    72  7.1000000000000E-01 -1.2746401711724E+00  1.2012442778276E+00
    73  7.2000000000000E-01 -1.2956357913262E+00  1.1735501155142E+00
    74  7.3000000000000E-01 -1.3085188881207E+00  1.1450469288682E+00
    75  7.4000000000000E-01 -1.3128049203162E+00  1.1158080353694E+00
    76  7.5000000000000E-01 -1.3081312557914E+00  1.0859015251346E+00
    77  7.6000000000000E-01 -1.2942740192485E+00  1.0553901432449E+00
    78  7.7000000000000E-01 -1.2711615695652E+00  1.0243313450887E+00
    79  7.8000000000000E-01 -1.2388841106448E+00  9.9277752115825E-01
    80  7.9000000000000E-01 -1.1976990498803E+00  9.6077638383071E-01
    81  8.0000000000000E-01 -1.1480318420477E+00  9.2837150490663E-01
    82  8.1000000000000E-01 -1.0904721898805E+00  8.9560298916103E-01
    83  8.2000000000000E-01 -1.0257656117249E+00  8.6250826596836E-01
    84  8.3000000000000E-01 -9.5480052727165E-01  8.2912297826468E-01
    85  8.4000000000000E-01 -8.7859115007975E-01  7.9548194577903E-01
    86  8.5000000000000E-01 -7.9825660616054E-01  7.6162017765671E-01
    87  8.6000000000000E-01 -7.1499681717954E-01  7.2757390835454E-01
    88  8.7000000000000E-01 -6.3006579107555E-01  6.9338163004653E-01
    89  8.8000000000000E-01 -5.4474304873479E-01  6.5908509475329E-01
    90  8.9000000000000E-01 -4.6030397998518E-01  6.2473026000648E-01
    91  9.0000000000000E-01 -3.7798996341297E-01  5.9036815306858E-01
    92  9.1000000000000E-01 -2.9897910087427E-01  5.5605563052313E-01
    93  9.2000000000000E-01 -2.2435840836108E-01  5.2185601239307E-01
    94  9.3000000000000E-01 -1.5509827014577E-01  4.8783957278142E-01
    95  9.4000000000000E-01 -9.2029903711731E-02  4.5408387229588E-01
    96  9.5000000000000E-01 -3.5826500512135E-02  4.2067392114100E-01
    97  9.6000000000000E-01  1.3011395614107E-02  3.8770216565530E-01
    98  9.7000000000000E-01  5.4165831501293E-02  3.5526829514508E-01
    99  9.8000000000000E-01  8.7506403491180E-02  3.2347887002573E-01
   100  9.9000000000000E-01  1.1309007171952E-01  2.9244677642745E-01
   101  1.0000000000000E+00  1.3115582075486E-01  2.6229051645599E-01
   102  1.0100000000000E+00  1.4211431011015E-01  2.3313334712741E-01
   103  1.0200000000000E+00  1.4653280744669E-01  2.0510228452308E-01
   104  1.0300000000000E+00  1.4511583872469E-01  1.7832699285358E-01
   105  1.0400000000000E+00  1.3868211906315E-01  1.5293858080664E-01
   106  1.0500000000000E+00  1.2813844130883E-01  1.2906832971093E-01
   107  1.0600000000000E+00  1.1445129305762E-01  1.0684637962796E-01
   108  1.0700000000000E+00  9.8617044219239E-02  8.6400400448014E-02
   109  1.0800000000000E+00  8.1631599678701E-02  6.7854274032937E-02
   110  1.0900000000000E+00  6.4460377168729E-02  5.1326822680992E-02
   111  1.1000000000000E+00  4.8004907286066E-02  3.6931673966347E-02
   112  1.1100000000000E+00  3.3040025843828E-02  2.4783284202362E-02
   113  1.1200000000000E+00  2.0287583012513E-02  1.4970763861722E-02
   114  1.1300000000000E+00  1.0337098915804E-02  7.5689301689563E-03
   115  1.1400000000000E+00  3.6069646852618E-03  2.6426524963448E-03
   116  1.1500000000000E+00  3.6002093804100E-04  2.6615942481463E-04
   117  1.1600000000000E+00 -1.5901896878662E-05 -1.1836427658850E-05
   118  1.1700000000000E+00 -1.6827571677180E-06 -1.2401997569351E-06
   119  1.18  0.  0.
   120  1.19  0.  0.
   121  1.20  0.  0.
   122  1.21  0.  0.
   123  1.22  0.  0.
   124  1.23  0.  0.
   125  1.24  0.  0.
   126  1.25  0.  0.
   127  1.26  0.  0.
   128  1.27  0.  0.
   129  1.28  0.  0.
   130  1.29  0.  0.
   131  1.30  0.  0.
   132  1.31  0.  0.
   133  1.32  0.  0.
   134  1.33  0.  0.
   135  1.34  0.  0.
   136  1.35  0.  0.
   137  1.36  0.  0.
   138  1.37  0.  0.
   139  1.38  0.  0.
   140  1.39  0.  0.
   141  1.40  0.  0.
   142  1.41  0.  0.
   143  1.42  0.  0.
   144  1.43  0.  0.
   145  1.44  0.  0.
   146  1.45  0.  0.
   147  1.46  0.  0.
   148  1.47  0.  0.
   149  1.48  0.  0.
   150  1.49  0.  0.
   151  1.50  0.  0.
   152  1.51  0.  0.
   153  1.52  0.  0.
   154  1.53  0.  0.
   155  1.54  0.  0.
   156  1.55  0.  0.
   157  1.56  0.  0.
   158  1.57  0.  0.
   159  1.58  0.  0.
   160  1.59  0.  0.
   161  1.60  0.  0.
   162  1.61  0.  0.
   163  1.62  0.  0.
   164  1.63  0.  0.
   165  1.64  0.  0.
   166  1.65  0.  0.
   167  1.66  0.  0.
   168  1.67  0.  0.
   169  1.68  0.  0.
   170  1.69  0.  0.
   171  1.70  0.  0.
   172  1.71  0.  0.
   173  1.72  0.  0.
   174  1.73  0.  0.
   175  1.74  0.  0.
   176  1.75  0.  0.
   177  1.76  0.  0.
   178  1.77  0.  0.
   179  1.78  0.  0.
   180  1.79  0.  0.
   181  1.80  0.  0.
   182  1.81  0.  0.
   183  1.82  0.  0.
   184  1.83  0.  0.
   185  1.84  0.  0.
   186  1.85  0.  0.
   187  1.86  0.  0.
   188  1.87  0.  0.
   189  1.88  0.  0.
   190  1.89  0.  0.
   191  1.90  0.  0.
   192  1.91  0.  0.
   193  1.92  0.  0.
   194  1.93  0.  0.
   195  1.94  0.  0.
   196  1.95  0.  0.
   197  1.96  0.  0.
   198  1.97  0.  0.
   199  1.98  0.  0.
   200  1.99  0.  0.
   201  2.00  0.  0.
   202  2.01  0.  0.
   203  2.02  0.  0.
   204  2.03  0.  0.
   205  2.04  0.  0.
   206  2.05  0.  0.
   207  2.06  0.  0.
   208  2.07  0.  0.
   209  2.08  0.  0.
   210  2.09  0.  0.
   211  2.10  0.  0.
   212  2.11  0.  0.
   213  2.12  0.  0.
   214  2.13  0.  0.
   215  2.14  0.  0.
   216  2.15  0.  0.
   217  2.16  0.  0.
   218  2.17  0.  0.
   219  2.18  0.  0.
   220  2.19  0.  0.
   221  2.20  0.  0.
   222  2.21  0.  0.
   223  2.22  0.  0.
   224  2.23  0.  0.
   225  2.24  0.  0.
   226  2.25  0.  0.
   227  2.26  0.  0.
   228  2.27  0.  0.
   229  2.28  0.  0.
   230  2.29  0.  0.
   231  2.30  0.  0.
   232  2.31  0.  0.
   233  2.32  0.  0.
   234  2.33  0.  0.
   235  2.34  0.  0.
   236  2.35  0.  0.
   237  2.36  0.  0.
   238  2.37  0.  0.
   239  2.38  0.  0.
   240  2.39  0.  0.
   241  2.40  0.  0.
   242  2.41  0.  0.
   243  2.42  0.  0.
   244  2.43  0.  0.
   245  2.44  0.  0.
   246  2.45  0.  0.
   247  2.46  0.  0.
   248  2.47  0.  0.
   249  2.48  0.  0.
   250  2.49  0.  0.
   251  2.50  0.  0.
   252  2.51  0.  0.
   253  2.52  0.  0.
   254  2.53  0.  0.
   255  2.54  0.  0.
   256  2.55  0.  0.
   257  2.56  0.  0.
   258  2.57  0.  0.
   259  2.58  0.  0.
   260  2.59  0.  0.
   261  2.60  0.  0.
   262  2.61  0.  0.
   263  2.62  0.  0.
   264  2.63  0.  0.
   265  2.64  0.  0.
   266  2.65  0.  0.
   267  2.66  0.  0.
   268  2.67  0.  0.
   269  2.68  0.  0.
   270  2.69  0.  0.
   271  2.70  0.  0.
   272  2.71  0.  0.
   273  2.72  0.  0.
   274  2.73  0.  0.
   275  2.74  0.  0.
   276  2.75  0.  0.
   277  2.76  0.  0.
   278  2.77  0.  0.
   279  2.78  0.  0.
   280  2.79  0.  0.
   281  2.80  0.  0.
   282  2.81  0.  0.
   283  2.82  0.  0.
   284  2.83  0.  0.
   285  2.84  0.  0.
   286  2.85  0.  0.
   287  2.86  0.  0.
   288  2.87  0.  0.
   289  2.88  0.  0.
   290  2.89  0.  0.
   291  2.90  0.  0.
   292  2.91  0.  0.
   293  2.92  0.  0.
   294  2.93  0.  0.
   295  2.94  0.  0.
   296  2.95  0.  0.
   297  2.96  0.  0.
   298  2.97  0.  0.
   299  2.98  0.  0.
   300  2.99  0.  0.
   301  3.00  0.  0.
   302  3.01  0.  0.
   303  3.02  0.  0.
   304  3.03  0.  0.
   305  3.04  0.  0.
   306  3.05  0.  0.
   307  3.06  0.  0.
   308  3.07  0.  0.
   309  3.08  0.  0.
   310  3.09  0.  0.
   311  3.10  0.  0.
   312  3.11  0.  0.
   313  3.12  0.  0.
   314  3.13  0.  0.
   315  3.14  0.  0.
   316  3.15  0.  0.
   317  3.16  0.  0.
   318  3.17  0.  0.
   319  3.18  0.  0.
   320  3.19  0.  0.
   321  3.20  0.  0.
   322  3.21  0.  0.
   323  3.22  0.  0.
   324  3.23  0.  0.
   325  3.24  0.  0.
   326  3.25  0.  0.
   327  3.26  0.  0.
   328  3.27  0.  0.
   329  3.28  0.  0.
   330  3.29  0.  0.
   331  3.30  0.  0.
   332  3.31  0.  0.
   333  3.32  0.  0.
   334  3.33  0.  0.
   335  3.34  0.  0.
   336  3.35  0.  0.
   337  3.36  0.  0.
   338  3.37  0.  0.
   339  3.38  0.  0.
   340  3.39  0.  0.
   341  3.40  0.  0.
   342  3.41  0.  0.
   343  3.42  0.  0.
   344  3.43  0.  0.
   345  3.44  0.  0.
   346  3.45  0.  0.
   347  3.46  0.  0.
   348  3.47  0.  0.
   349  3.48  0.  0.
   350  3.49  0.  0.
   351  3.50  0.  0.
   352  3.51  0.  0.
   353  3.52  0.  0.
   354  3.53  0.  0.
   355  3.54  0.  0.
   356  3.55  0.  0.
   357  3.56  0.  0.
   358  3.57  0.  0.
   359  3.58  0.  0.
   360  3.59  0.  0.
   361  3.60  0.  0.
   362  3.61  0.  0.
   363  3.62  0.  0.
   364  3.63  0.  0.
   365  3.64  0.  0.
   366  3.65  0.  0.
   367  3.66  0.  0.
   368  3.67  0.  0.
   369  3.68  0.  0.
   370  3.69  0.  0.
   371  3.70  0.  0.
   372  3.71  0.  0.
   373  3.72  0.  0.
   374  3.73  0.  0.
   375  3.74  0.  0.
   376  3.75  0.  0.
   377  3.76  0.  0.
   378  3.77  0.  0.
   379  3.78  0.  0.
   380  3.79  0.  0.
   381  3.80  0.  0.
   382  3.81  0.  0.
   383  3.82  0.  0.
   384  3.83  0.  0.
   385  3.84  0.  0.
   386  3.85  0.  0.
   387  3.86  0.  0.
   388  3.87  0.  0.
   389  3.88  0.  0.
   390  3.89  0.  0.
   391  3.90  0.  0.
   392  3.91  0.  0.
   393  3.92  0.  0.
   394  3.93  0.  0.
   395  3.94  0.  0.
   396  3.95  0.  0.
   397  3.96  0.  0.
   398  3.97  0.  0.
   399  3.98  0.  0.
   400  3.99  0.  0.
   1                        -6.3242145189173E+00 -2.2372968359998E+00
     1  0.0000000000000E+00 -2.7388448314847E-09  5.6794736205679E-09
     2  1.0000000000000E-02  1.6703943931587E-03 -4.6937244513465E-04
     3  2.0000000000000E-02  6.6774063464550E-03 -1.8782264516153E-03
     4  3.0000000000000E-02  1.5008471585688E-02 -4.2286441174575E-03
     5  4.0000000000000E-02  2.6642482658478E-02 -7.5236726550527E-03
     6  5.0000000000000E-02  4.1549544203149E-02 -1.1766701903919E-02
     7  6.0000000000000E-02  5.9690641717113E-02 -1.6960616454628E-02
     8  7.0000000000000E-02  8.1017234911502E-02 -2.3106745359709E-02
     9  8.0000000000000E-02  1.0547078947763E-01 -3.0203638086788E-02
    10  9.0000000000000E-02  1.3298226352020E-01 -3.8245700409767E-02
    11  1.0000000000000E-01  1.6347156697667E-01 -4.7221728222213E-02
    12  1.1000000000000E-01  1.9684701399403E-01 -5.7113380694188E-02
    13  1.2000000000000E-01  2.3300478943390E-01 -6.7893636699703E-02
    14  1.3000000000000E-01  2.7182845139439E-01 -7.9525279955132E-02
    15  1.4000000000000E-01  3.1318849185328E-01 -9.1959458790144E-02
    16  1.5000000000000E-01  3.5694197724130E-01 -1.0513436590296E-01
    17  1.6000000000000E-01  4.0293228994915E-01 -1.1897408183566E-01
    18  1.7000000000000E-01  4.5098899046843E-01 -1.3338762326925E-01
    19  1.8000000000000E-01  5.0092781808826E-01 -1.4826823362985E-01
    20  1.9000000000000E-01  5.5255084584819E-01 -1.6349294898682E-01
    21  2.0000000000000E-01  6.0564680282654E-01 -1.7892246689886E-01
    22  2.1000000000000E-01  6.5999157387210E-01 -1.9440133983176E-01
    23  2.2000000000000E-01  7.1534888362526E-01 -2.0975850815480E-01
    24  2.3000000000000E-01  7.7147116818634E-01 -2.2480818065614E-01
    25  2.4000000000000E-01  8.2810063414512E-01 -2.3935106314787E-01
    26  2.5000000000000E-01  8.8497050095967E-01 -2.5317592821299E-01
    27  2.6000000000000E-01  9.4180641894144E-01 -2.6606151163607E-01
    28  2.7000000000000E-01  9.9832805144398E-01 -2.7777871371806E-01
    29  2.8000000000000E-01  1.0542508063406E+00 -2.8809307665945E-01
    30  2.9000000000000E-01  1.1092876985861E+00 -2.9676750265759E-01
    31  3.0000000000000E-01  1.1631513226585E+00 -3.0356517144618E-01
    32  3.1000000000000E-01  1.2155559110347E+00 -3.0825261084002E-01
    33  3.2000000000000E-01  1.2662194526246E+00 -3.1060286955265E-01
    34  3.3000000000000E-01  1.3148658433226E+00 -3.1039873822959E-01
    35  3.4000000000000E-01  1.3612270395750E+00 -3.0743596236597E-01
    36  3.5000000000000E-01  1.4050451851371E+00 -3.0152638961475E-01
    37  3.6000000000000E-01  1.4460746810221E+00 -2.9250099397784E-01
    38  3.7000000000000E-01  1.4840841690402E+00 -2.8021272052212E-01
    39  3.8000000000000E-01  1.5188584002829E+00 -2.6453909656414E-01
    40  3.9000000000000E-01  1.5501999614121E+00 -2.4538455869002E-01
    41  4.0000000000000E-01  1.5779308336459E+00 -2.2268244946026E-01
    42  4.1000000000000E-01  1.6018937618446E+00 -1.9639664311653E-01
    43  4.2000000000000E-01  1.6219534140669E+00 -1.6652276595514E-01
    44  4.3000000000000E-01  1.6379973153050E+00 -1.3308898414202E-01
    45  4.4000000000000E-01  1.6499365427802E+00 -9.6156339478361E-02
    46  4.5000000000000E-01  1.6577061741012E+00 -5.5818621834467E-02
    47  4.6000000000000E-01  1.6612654836861E+00 -1.2201775488359E-02
    48  4.7000000000000E-01  1.6605978870425E+00  3.4537154733939E-02
    49  4.8000000000000E-01  1.6557106367099E+00  8.4211522993657E-02
    50  4.9000000000000E-01  1.6466342778083E+00  1.3660700471137E-01
    51  5.0000000000000E-01  1.6334218751209E+00  1.9148391060483E-01
    52  5.1000000000000E-01  1.6161480273979E+00  2.4857985403925E-01
    53  5.2000000000000E-01  1.5949076880108E+00  3.0761272646310E-01
    54  5.3000000000000E-01  1.5698148141603E+00  3.6828392977988E-01
    55  5.4000000000000E-01  1.5410008694671E+00  4.3028180956499E-01
    56  5.5000000000000E-01  1.5086132069121E+00  4.9328522918373E-01
    57  5.6000000000000E-01  1.4728133606912E+00  5.5696722219066E-01
    58  5.7000000000000E-01  1.4337752765747E+00  6.2099865895513E-01
    59  5.8000000000000E-01  1.3916835107986E+00  6.8505186330249E-01
    60  5.9000000000000E-01  1.3467314273470E+00  7.4880411609752E-01
    61  6.0000000000000E-01  1.2991194227205E+00  8.1194098511292E-01
    62  6.1000000000000E-01  1.2490532059367E+00  8.7415942418013E-01
    63  6.2000000000000E-01  1.1967421596058E+00  9.3517058944675E-01
    64  6.3000000000000E-01  1.1423978055074E+00  9.9470232647191E-01
    65  6.4000000000000E-01  1.0862323952073E+00  1.0525012887648E+00
    66  6.5000000000000E-01  1.0284576429694E+00  1.1083346560747E+00
    67  6.6000000000000E-01  9.6928361459011E-01  1.1619914291199E+00
    68  6.7000000000000E-01  9.0891778190570E-01  1.2132832863294E+00
    69  6.8000000000000E-01  8.4756424866390E-01  1.2620449973775E+00
    70  6.9000000000000E-01  7.8542314930725E-01  1.3081343976354E+00
    71  7.0000000000000E-01  7.2269021807283E-01  1.3514319369429E+00
    72  7.1000000000000E-01  6.5955652176053E-01  1.3918398251263E+00
    73  7.2000000000000E-01  5.9620834565022E-01  1.4292808052591E+00
    74  7.3000000000000E-01  5.3282721844146E-01  1.4636965936013E+00
    75  7.4000000000000E-01  4.6959005882873E-01  1.4950460322842E+00
    76  7.5000000000000E-01  4.0666942348377E-01  1.5233030069691E+00
    77  7.6000000000000E-01  3.4423383385966E-01  1.5484541867723E+00
    78  7.7000000000000E-01  2.8244815741417E-01  1.5704966475842E+00
    79  7.8000000000000E-01  2.2147401761632E-01  1.5894354424355E+00
    80  7.9000000000000E-01  1.6147020648256E-01  1.6052811837073E+00
    81  8.0000000000000E-01  1.0259307340489E-01  1.6180477017054E+00
    82  8.1000000000000E-01  4.4996864689751E-02  1.6277498424206E+00
    83  8.2000000000000E-01 -1.1166010486800E-02  1.6344014641909E+00
    84  8.3000000000000E-01 -6.5744810106628E-02  1.6380136885250E+00
    85  8.4000000000000E-01 -1.1859040525053E-01  1.6385934546204E+00
    86  8.5000000000000E-01 -1.6955535889127E-01  1.6361424202183E+00
    87  8.6000000000000E-01 -2.1849415102167E-01  1.6306562435231E+00
    88  8.7000000000000E-01 -2.6526355975341E-01  1.6221242721284E+00
    89  8.8000000000000E-01 -3.0972320386351E-01  1.6105296554146E+00
    90  8.9000000000000E-01 -3.5173624788487E-01  1.5958498869133E+00
    91  9.0000000000000E-01 -3.9117026632832E-01  1.5780577728737E+00
    92  9.1000000000000E-01 -4.2789825908623E-01  1.5571228129361E+00
    93  9.2000000000000E-01 -4.6179980560184E-01  1.5330129686367E+00
    94  9.3000000000000E-01 -4.9276234109468E-01  1.5056967856604E+00
    95  9.4000000000000E-01 -5.2068253410998E-01  1.4751458265295E+00
    96  9.5000000000000E-01 -5.4546774100197E-01  1.4413373619890E+00
    97  9.6000000000000E-01 -5.6703750975549E-01  1.4042572618947E+00
    98  9.7000000000000E-01 -5.8532510287666E-01  1.3639030201251E+00
    99  9.8000000000000E-01 -6.0027900701110E-01  1.3202868430500E+00
   100  9.9000000000000E-01 -6.1186439553405E-01  1.2734387275486E+00
   101  1.0000000000000E+00 -6.2006450964606E-01  1.2234094525559E+00
   102  1.0100000000000E+00 -6.2488192352994E-01  1.1702734077043E+00
   103  1.0200000000000E+00 -6.2633965989699E-01  1.1141311838607E+00
   104  1.0300000000000E+00 -6.2448212376811E-01  1.0551118532160E+00
   105  1.0400000000000E+00 -6.1937582458931E-01  9.9337487106127E-01
   106  1.0500000000000E+00 -6.1110985973452E-01  9.2911153739365E-01
   107  1.0600000000000E+00 -5.9979613605257E-01  8.6254596393815E-01
   108  1.0700000000000E+00 -5.8556931032260E-01  7.9393550094469E-01
   109  1.0800000000000E+00 -5.6858643419574E-01  7.2357058801725E-01
   110  1.0900000000000E+00 -5.4902629452151E-01  6.5177400468048E-01
   111  1.1000000000000E+00 -5.2708844398552E-01  5.7889950296821E-01
   112  1.1100000000000E+00 -5.0299187574991E-01  5.0532965017952E-01
   113  1.1200000000000E+00 -4.7697277444948E-01  4.3147091518018E-01
   114  1.1300000000000E+00 -4.4928183524871E-01  3.5774788859792E-01
   115  1.1400000000000E+00 -4.2018191192938E-01  2.8459917719871E-01
   116  1.1500000000000E+00 -3.8994550413071E-01  2.1247306246198E-01
   117  1.1600000000000E+00 -3.5885204608583E-01  1.4182273627880E-01
   118  1.1700000000000E+00 -3.2718502990002E-01  7.3101178274088E-02
   119  1.1800000000000E+00 -2.9522900166666E-01  6.7557526318514E-03
   120  1.1900000000000E+00 -2.6326647209552E-01 -5.6777390371505E-02
   121  1.2000000000000E+00 -2.3157478616505E-01 -1.1707901652552E-01
   122  1.2100000000000E+00 -2.0042299838686E-01 -1.7375251716587E-01
   123  1.2200000000000E+00 -1.7006880153267E-01 -2.2642952657928E-01
   124  1.2300000000000E+00 -1.4075555708631E-01 -2.7477534673345E-01
   125  1.2400000000000E+00 -1.1270947521976E-01 -3.1849407941168E-01
   126  1.2500000000000E+00 -8.6136990745812E-02 -3.5733336840786E-01
   127  1.2600000000000E+00 -6.1222379274339E-02 -3.9108865890664E-01
   128  1.2700000000000E+00 -3.8125654751572E-02 -4.1960688741486E-01
   129  1.2800000000000E+00 -1.6980785680586E-02 -4.4278952364657E-01
   130  1.2900000000000E+00  2.1057372840189E-03 -4.6059489536634E-01
   131  1.3000000000000E+00  1.9055954929676E-02 -4.7303973820455E-01
   132  1.3100000000000E+00  3.3821092710059E-02 -4.8019992481872E-01
   133  1.3200000000000E+00  4.6381798367371E-02 -4.8221034110582E-01
   134  1.3300000000000E+00  5.6747955418259E-02 -4.7926389131637E-01
   135  1.3400000000000E+00  6.4958070934601E-02 -4.7160962865645E-01
   136  1.3500000000000E+00  7.1078243142000E-02 -4.5955002298605E-01
   137  1.3600000000000E+00  7.5200721445710E-02 -4.4343739225109E-01
   138  1.3700000000000E+00  7.7442078439516E-02 -4.2366953903123E-01
   139  1.3800000000000E+00  7.7941020181416E-02 -4.0068464787968E-01
   140  1.3900000000000E+00  7.6855867334766E-02 -3.7495551255813E-01
   141  1.4000000000000E+00  7.4361745603441E-02 -3.4698317467335E-01
   142  1.4100000000000E+00  7.0647529112156E-02 -3.1729006634120E-01
   143  1.4200000000000E+00  6.5912584891627E-02 -2.8641275910876E-01
   144  1.4300000000000E+00  6.0363370361378E-02 -2.5489442932404E-01
   145  1.4400000000000E+00  5.4209938541862E-02 -2.2327715620089E-01
   146  1.4500000000000E+00  4.7662406908837E-02 -1.9209417143902E-01
   147  1.4600000000000E+00  4.0927457687897E-02 -1.6186220333077E-01
   148  1.4700000000000E+00  3.4204878447094E-02 -1.3307394005689E-01
   149  1.4800000000000E+00  2.7684468987532E-02 -1.0619127153855E-01
   150  1.4900000000000E+00  2.1546316710878E-02 -8.1645413181975E-02
   151  1.5000000000000E+00  1.5951732256499E-02 -5.9818221855434E-02
   152  1.5100000000000E+00  1.1039456028173E-02 -4.1034110095660E-02
   153  1.5200000000000E+00  6.9280909679490E-03 -2.5564653993897E-02
   154  1.5300000000000E+00  3.7141423708003E-03 -1.3624898285404E-02
   155  1.5400000000000E+00  1.4661621493216E-03 -5.3542724959483E-03
   156  1.5500000000000E+00  2.5394172916624E-04 -9.2426369892115E-04
   157  1.5600000000000E+00 -2.1984517072495E-05  7.9884506415622E-05
   158  1.5700000000000E+00  6.6707688454382E-06 -2.4250515236832E-05
   159  1.58  0.  0.
   160  1.59  0.  0.
   161  1.60  0.  0.
   162  1.61  0.  0.
   163  1.62  0.  0.
   164  1.63  0.  0.
   165  1.64  0.  0.
   166  1.65  0.  0.
   167  1.66  0.  0.
   168  1.67  0.  0.
   169  1.68  0.  0.
   170  1.69  0.  0.
   171  1.70  0.  0.
   172  1.71  0.  0.
   173  1.72  0.  0.
   174  1.73  0.  0.
   175  1.74  0.  0.
   176  1.75  0.  0.
   177  1.76  0.  0.
   178  1.77  0.  0.
   179  1.78  0.  0.
   180  1.79  0.  0.
   181  1.80  0.  0.
   182  1.81  0.  0.
   183  1.82  0.  0.
   184  1.83  0.  0.
   185  1.84  0.  0.
   186  1.85  0.  0.
   187  1.86  0.  0.
   188  1.87  0.  0.
   189  1.88  0.  0.
   190  1.89  0.  0.
   191  1.90  0.  0.
   192  1.91  0.  0.
   193  1.92  0.  0.
   194  1.93  0.  0.
   195  1.94  0.  0.
   196  1.95  0.  0.
   197  1.96  0.  0.
   198  1.97  0.  0.
   199  1.98  0.  0.
   200  1.99  0.  0.
   201  2.00  0.  0.
   202  2.01  0.  0.
   203  2.02  0.  0.
   204  2.03  0.  0.
   205  2.04  0.  0.
   206  2.05  0.  0.
   207  2.06  0.  0.
   208  2.07  0.  0.
   209  2.08  0.  0.
   210  2.09  0.  0.
   211  2.10  0.  0.
   212  2.11  0.  0.
   213  2.12  0.  0.
   214  2.13  0.  0.
   215  2.14  0.  0.
   216  2.15  0.  0.
   217  2.16  0.  0.
   218  2.17  0.  0.
   219  2.18  0.  0.
   220  2.19  0.  0.
   221  2.20  0.  0.
   222  2.21  0.  0.
   223  2.22  0.  0.
   224  2.23  0.  0.
   225  2.24  0.  0.
   226  2.25  0.  0.
   227  2.26  0.  0.
   228  2.27  0.  0.
   229  2.28  0.  0.
   230  2.29  0.  0.
   231  2.30  0.  0.
   232  2.31  0.  0.
   233  2.32  0.  0.
   234  2.33  0.  0.
   235  2.34  0.  0.
   236  2.35  0.  0.
   237  2.36  0.  0.
   238  2.37  0.  0.
   239  2.38  0.  0.
   240  2.39  0.  0.
   241  2.40  0.  0.
   242  2.41  0.  0.
   243  2.42  0.  0.
   244  2.43  0.  0.
   245  2.44  0.  0.
   246  2.45  0.  0.
   247  2.46  0.  0.
   248  2.47  0.  0.
   249  2.48  0.  0.
   250  2.49  0.  0.
   251  2.50  0.  0.
   252  2.51  0.  0.
   253  2.52  0.  0.
   254  2.53  0.  0.
   255  2.54  0.  0.
   256  2.55  0.  0.
   257  2.56  0.  0.
   258  2.57  0.  0.
   259  2.58  0.  0.
   260  2.59  0.  0.
   261  2.60  0.  0.
   262  2.61  0.  0.
   263  2.62  0.  0.
   264  2.63  0.  0.
   265  2.64  0.  0.
   266  2.65  0.  0.
   267  2.66  0.  0.
   268  2.67  0.  0.
   269  2.68  0.  0.
   270  2.69  0.  0.
   271  2.70  0.  0.
   272  2.71  0.  0.
   273  2.72  0.  0.
   274  2.73  0.  0.
   275  2.74  0.  0.
   276  2.75  0.  0.
   277  2.76  0.  0.
   278  2.77  0.  0.
   279  2.78  0.  0.
   280  2.79  0.  0.
   281  2.80  0.  0.
   282  2.81  0.  0.
   283  2.82  0.  0.
   284  2.83  0.  0.
   285  2.84  0.  0.
   286  2.85  0.  0.
   287  2.86  0.  0.
   288  2.87  0.  0.
   289  2.88  0.  0.
   290  2.89  0.  0.
   291  2.90  0.  0.
   292  2.91  0.  0.
   293  2.92  0.  0.
   294  2.93  0.  0.
   295  2.94  0.  0.
   296  2.95  0.  0.
   297  2.96  0.  0.
   298  2.97  0.  0.
   299  2.98  0.  0.
   300  2.99  0.  0.
   301  3.00  0.  0.
   302  3.01  0.  0.
   303  3.02  0.  0.
   304  3.03  0.  0.
   305  3.04  0.  0.
   306  3.05  0.  0.
   307  3.06  0.  0.
   308  3.07  0.  0.
   309  3.08  0.  0.
   310  3.09  0.  0.
   311  3.10  0.  0.
   312  3.11  0.  0.
   313  3.12  0.  0.
   314  3.13  0.  0.
   315  3.14  0.  0.
   316  3.15  0.  0.
   317  3.16  0.  0.
   318  3.17  0.  0.
   319  3.18  0.  0.
   320  3.19  0.  0.
   321  3.20  0.  0.
   322  3.21  0.  0.
   323  3.22  0.  0.
   324  3.23  0.  0.
   325  3.24  0.  0.
   326  3.25  0.  0.
   327  3.26  0.  0.
   328  3.27  0.  0.
   329  3.28  0.  0.
   330  3.29  0.  0.
   331  3.30  0.  0.
   332  3.31  0.  0.
   333  3.32  0.  0.
   334  3.33  0.  0.
   335  3.34  0.  0.
   336  3.35  0.  0.
   337  3.36  0.  0.
   338  3.37  0.  0.
   339  3.38  0.  0.
   340  3.39  0.  0.
   341  3.40  0.  0.
   342  3.41  0.  0.
   343  3.42  0.  0.
   344  3.43  0.  0.
   345  3.44  0.  0.
   346  3.45  0.  0.
   347  3.46  0.  0.
   348  3.47  0.  0.
   349  3.48  0.  0.
   350  3.49  0.  0.
   351  3.50  0.  0.
   352  3.51  0.  0.
   353  3.52  0.  0.
   354  3.53  0.  0.
   355  3.54  0.  0.
   356  3.55  0.  0.
   357  3.56  0.  0.
   358  3.57  0.  0.
   359  3.58  0.  0.
   360  3.59  0.  0.
   361  3.60  0.  0.