Mg    ONCVPSP-4.0.1  r_core=   1.15435   1.55681
     12.0000     10.0000      231019    zatom,zion,pspd
     8       2   1     4   400     0    pspcod,pspxc,lmax,lloc,mmax,r2well
  3.99000000  0.00000000  0.00000000    rchrg fchrg qchrg
     2     2     0     0     0    nproj
     1     1           extension_switch
   0                         2.2483033319227E+00 -7.1695665858169E-01
     1  0.0000000000000E+00  6.3895791324597E-08  1.4107216228521E-09
     2  1.0000000000000E-02  9.4944396254970E-02  2.9736310331498E-02
     3  2.0000000000000E-02  1.8986275446651E-01  5.9496676448695E-02
     4  3.0000000000000E-02  2.8471588375996E-01  8.9304785316720E-02
     5  4.0000000000000E-02  3.7943879994835E-01  1.1918359488523E-01
     6  5.0000000000000E-02  4.7392909238230E-01  1.4915499075109E-01
     7  6.0000000000000E-02  5.6803675894244E-01  1.7923946713992E-01
     8  7.0000000000000E-02  6.6155592013602E-01  2.0945583855298E-01
     9  8.0000000000000E-02  7.5421875936324E-01  2.3982098701549E-01
    10  9.0000000000000E-02  8.4569196057410E-01  2.7034964821622E-01
    11  1.0000000000000E-01  9.3557582923197E-01  3.0105423801964E-01
    12  1.1000000000000E-01  1.0234061905434E+00  3.3194471893843E-01
    13  1.2000000000000E-01  1.1086590633316E+00  3.6302850426253E-01
    14  1.3000000000000E-01  1.1907580118800E+00  3.9431039573562E-01
    15  1.4000000000000E-01  1.2690839847271E+00  4.2579254903598E-01
    16  1.5000000000000E-01  1.3429873618620E+00  4.5747445993479E-01
    17  1.6000000000000E-01  1.4118018529542E+00  4.8935296294187E-01
    18  1.7000000000000E-01  1.4748598218178E+00  5.2142223356539E-01
    19  1.8000000000000E-01  1.5315085585184E+00  5.5367378505364E-01
    20  1.9000000000000E-01  1.5811269822408E+00  5.8609645068214E-01
    21  2.0000000000000E-01  1.6231422365898E+00  6.1867634330982E-01
    22  2.1000000000000E-01  1.6570456351938E+00  6.5139678504608E-01
    23  2.2000000000000E-01  1.6824074295600E+00  6.8423820142059E-01
    24  2.3000000000000E-01  1.6988899027347E+00  7.1717797638474E-01
    25  2.4000000000000E-01  1.7062583405303E+00  7.5019026673606E-01
    26  2.5000000000000E-01  1.7043894954269E+00  7.8324577706833E-01
    27  2.6000000000000E-01  1.6932772347644E+00  8.1631149901838E-01
    28  2.7000000000000E-01  1.6730351521071E+00  8.4935042130762E-01
    29  2.8000000000000E-01  1.6438960159127E+00  8.8232121975332E-01
    30  2.9000000000000E-01  1.6062080298177E+00  9.1517793894205E-01
    31  3.0000000000000E-01  1.5604279807418E+00  9.4786967950630E-01
    32  3.1000000000000E-01  1.5071114512979E+00  9.8034030682099E-01
    33  3.2000000000000E-01  1.4469003684117E+00  1.0125281983426E+00
    34  3.3000000000000E-01  1.3805082474527E+00  1.0443660476696E+00
    35  3.4000000000000E-01  1.3087035676682E+00  1.0757807436387E+00
    36  3.5000000000000E-01  1.2322917777180E+00  1.1066933423421E+00
    37  3.6000000000000E-01  1.1520964774859E+00  1.1370191488295E+00
    38  3.7000000000000E-01  1.0689403524293E+00  1.1666679234391E+00
    39  3.8000000000000E-01  9.8362644841430E-01  1.1955442252097E+00
    40  3.9000000000000E-01  8.9692036773570E-01  1.2235479017033E+00
    41  4.0000000000000E-01  8.0953394092786E-01  1.2505747308842E+00
    42  4.1000000000000E-01  7.2211088471462E-01  1.2765172165471E+00
    43  4.2000000000000E-01  6.3521489531139E-01  1.3012655342778E+00
    44  4.3000000000000E-01  5.4932055011153E-01  1.3247086201896E+00
    45  4.4000000000000E-01  4.6480730189861E-01  1.3467353898518E+00
    46  4.5000000000000E-01  3.8195675088844E-01  1.3672360700657E+00
    47  4.6000000000000E-01  3.0095327422703E-01  1.3861036215986E+00
    48  4.7000000000000E-01  2.2188798340681E-01  1.4032352268256E+00
    49  4.8000000000000E-01  1.4476587090513E-01  1.4185338125852E+00
    50  4.9000000000000E-01  6.9515901722182E-02  1.4319095755863E+00
    51  5.0000000000000E-01 -3.9962931587187E-03  1.4432814755233E+00
    52  5.1000000000000E-01 -7.5953552800580E-02  1.4525786597733E+00
    53  5.2000000000000E-01 -1.4657065850865E-01  1.4597417832457E+00
    54  5.3000000000000E-01 -2.1607670841108E-01  1.4647241876833E+00
    55  5.4000000000000E-01 -2.8469700238779E-01  1.4674929064982E+00
    56  5.5000000000000E-01 -3.5263506773772E-01  1.4680294640650E+00
    57  5.6000000000000E-01 -4.2005545816390E-01  1.4663304422357E+00
    58  5.7000000000000E-01 -4.8706794032901E-01  1.4624077916284E+00
    59  5.8000000000000E-01 -5.5371364376519E-01  1.4562888708624E+00
    60  5.9000000000000E-01 -6.1995369232993E-01  1.4480162032350E+00
    61  6.0000000000000E-01 -6.8566076032888E-01  1.4376469472089E+00
    62  6.1000000000000E-01 -7.5061390608769E-01  1.4252520843180E+00
    63  6.2000000000000E-01 -8.1449693287446E-01  1.4109153355110E+00
    64  6.3000000000000E-01 -8.7690041479920E-01  1.3947318243289E+00
    65  6.4000000000000E-01 -9.3732740712695E-01  1.3768065124395E+00
    66  6.5000000000000E-01 -9.9520274004122E-01  1.3572524397248E+00
    67  6.6000000000000E-01 -1.0498856760899E+00  1.3361888071164E+00
    68  6.7000000000000E-01 -1.1006855981367E+00  1.3137389455261E+00
    69  6.8000000000000E-01 -1.1468802902967E+00  1.2900282183399E+00
    70  6.9000000000000E-01 -1.1877362824560E+00  1.2651819078867E+00
    71  7.0000000000000E-01 -1.2225306526407E+00  1.2393231379563E+00
    72  7.1000000000000E-01 -1.2505736232776E+00  1.2125708847175E+00
    73  7.2000000000000E-01 -1.2712312493565E+00  1.1850381272624E+00
    74  7.3000000000000E-01 -1.2839474800711E+00  1.1568301864416E+00
    75  7.4000000000000E-01 -1.2882648814725E+00  1.1280432967206E+00
    76  7.5000000000000E-01 -1.2838433360726E+00  1.0987634505375E+00
    77  7.6000000000000E-01 -1.2704760855649E+00  1.0690655482005E+00
    78  7.7000000000000E-01 -1.2481025535609E+00  1.0390128788878E+00
    79  7.8000000000000E-01 -1.2168174744877E+00  1.0086569499749E+00
    80  7.9000000000000E-01 -1.1768759599983E+00  9.7803767294475E-01
    81  8.0000000000000E-01 -1.1286942522882E+00  9.4718390476124E-01
    82  8.1000000000000E-01 -1.0728460410834E+00  9.1611433406109E-01
    83  8.2000000000000E-01 -1.0100543538929E+00  8.8483869210933E-01
    84  8.3000000000000E-01 -9.4117916335795E-01  8.5335925942766E-01
    85  8.4000000000000E-01 -8.6720098703638E-01  8.2167263060438E-01
    86  8.5000000000000E-01 -7.8920087963693E-01  7.8977169227217E-01
    87  8.6000000000000E-01 -7.0833733165592E-01  7.5764776281956E-01
    88  8.7000000000000E-01 -6.2582068794624E-01  7.2529283727885E-01
    89  8.8000000000000E-01 -5.4288578176236E-01  6.9270187717096E-01
    90  8.9000000000000E-01 -4.6076354159036E-01  6.5987508300822E-01
    91  9.0000000000000E-01 -3.8065236750386E-01  6.2682008674109E-01
    92  9.1000000000000E-01 -3.0369008947610E-01  5.9355400271839E-01
    93  9.2000000000000E-01 -2.3092731133559E-01  5.6010527870022E-01
    94  9.3000000000000E-01 -1.6330291093627E-01  5.2651529305783E-01
    95  9.4000000000000E-01 -1.0162241042529E-01  4.9283965040856E-01
    96  9.5000000000000E-01 -4.6539851789234E-02  4.5914913541474E-01
    97  9.6000000000000E-01  1.4562856588335E-03  4.2553029313274E-01
    98  9.7000000000000E-01  4.2052704658302E-02  3.9208561390571E-01
    99  9.8000000000000E-01  7.5116154093137E-02  3.5893331109460E-01
   100  9.9000000000000E-01  1.0069338443309E-01  3.2620669065913E-01
   101  1.0000000000000E+00  1.1900618553354E-01  2.9405312244120E-01
   102  1.0100000000000E+00  1.3044164351065E-01  2.6263263367330E-01
   103  1.0200000000000E+00  1.3553789594252E-01  2.3211615543204E-01
   104  1.0300000000000E+00  1.3496579966977E-01  2.0268346219490E-01
   105  1.0400000000000E+00  1.2950704910031E-01  1.7452085308735E-01
   106  1.0500000000000E+00  1.2002939101446E-01  1.4781863056183E-01
   107  1.0600000000000E+00  1.0745967134222E-01  1.2276843794303E-01
   108  1.0700000000000E+00  9.2755517473679E-02  9.9560521337074E-02
   109  1.0800000000000E+00  7.6876509738114E-02  7.8380982465101E-02
   110  1.0900000000000E+00  6.0755657097849E-02  5.9409095450075E-02
   111  1.1000000000000E+00  4.5267670691348E-02  4.2815749100580E-02
   112  1.1100000000000E+00  3.1165561870585E-02  2.8766130899087E-02
   113  1.1200000000000E+00  1.9140267138881E-02  1.7390223506460E-02
   114  1.1300000000000E+00  9.7533646248970E-03  8.7953702502334E-03
   115  1.1400000000000E+00  3.4032384866600E-03  3.0707050812502E-03
   116  1.1500000000000E+00  3.3963965352676E-04  3.0912640313094E-04
   117  1.1600000000000E+00 -1.5002467659605E-05 -1.3742755528307E-05
   118  1.1700000000000E+00 -1.5877792742627E-06 -1.4406683472950E-06
   119  1.18  0.  0.
   120  1.19  0.  0.
   121  1.20  0.  0.
   122  1.21  0.  0.
   123  1.22  0.  0.
   124  1.23  0.  0.
   125  1.24  0.  0.
   126  1.25  0.  0.
   127  1.26  0.  0.
   128  1.27  0.  0.
   129  1.28  0.  0.
   130  1.29  0.  0.
   131  1.30  0.  0.
   132  1.31  0.  0.
   133  1.32  0.  0.
   134  1.33  0.  0.
   135  1.34  0.  0.
   136  1.35  0.  0.
   137  1.36  0.  0.
   138  1.37  0.  0.
   139  1.38  0.  0.
   140  1.39  0.  0.
   141  1.40  0.  0.
   142  1.41  0.  0.
   143  1.42  0.  0.
   144  1.43  0.  0.
   145  1.44  0.  0.
   146  1.45  0.  0.
   147  1.46  0.  0.
   148  1.47  0.  0.
   149  1.48  0.  0.
   150  1.49  0.  0.
   151  1.50  0.  0.
   152  1.51  0.  0.
   153  1.52  0.  0.
   154  1.53  0.  0.
   155  1.54  0.  0.
   156  1.55  0.  0.
   157  1.56  0.  0.
   158  1.57  0.  0.
   159  1.58  0.  0.
   160  1.59  0.  0.
   161  1.60  0.  0.
   162  1.61  0.  0.
   163  1.62  0.  0.
   164  1.63  0.  0.
   165  1.64  0.  0.
   166  1.65  0.  0.
   167  1.66  0.  0.
   168  1.67  0.  0.
   169  1.68  0.  0.
   170  1.69  0.  0.
   171  1.70  0.  0.
   172  1.71  0.  0.
   173  1.72  0.  0.
   174  1.73  0.  0.
   175  1.74  0.  0.
   176  1.75  0.  0.
   177  1.76  0.  0.
   178  1.77  0.  0.
   179  1.78  0.  0.
   180  1.79  0.  0.
   181  1.80  0.  0.
   182  1.81  0.  0.
   183  1.82  0.  0.
   184  1.83  0.  0.
   185  1.84  0.  0.
   186  1.85  0.  0.
   187  1.86  0.  0.
   188  1.87  0.  0.
   189  1.88  0.  0.
   190  1.89  0.  0.
   191  1.90  0.  0.
   192  1.91  0.  0.
   193  1.92  0.  0.
   194  1.93  0.  0.
   195  1.94  0.  0.
   196  1.95  0.  0.
   197  1.96  0.  0.
   198  1.97  0.  0.
   199  1.98  0.  0.
   200  1.99  0.  0.
   201  2.00  0.  0.
   202  2.01  0.  0.
   203  2.02  0.  0.
   204  2.03  0.  0.
   205  2.04  0.  0.
   206  2.05  0.  0.
   207  2.06  0.  0.
   208  2.07  0.  0.
   209  2.08  0.  0.
   210  2.09  0.  0.
   211  2.10  0.  0.
   212  2.11  0.  0.
   213  2.12  0.  0.
   214  2.13  0.  0.
   215  2.14  0.  0.
   216  2.15  0.  0.
   217  2.16  0.  0.
   218  2.17  0.  0.
   219  2.18  0.  0.
   220  2.19  0.  0.
   221  2.20  0.  0.
   222  2.21  0.  0.
   223  2.22  0.  0.
   224  2.23  0.  0.
   225  2.24  0.  0.
   226  2.25  0.  0.
   227  2.26  0.  0.
   228  2.27  0.  0.
   229  2.28  0.  0.
   230  2.29  0.  0.
   231  2.30  0.  0.
   232  2.31  0.  0.
   233  2.32  0.  0.
   234  2.33  0.  0.
   235  2.34  0.  0.
   236  2.35  0.  0.
   237  2.36  0.  0.
   238  2.37  0.  0.
   239  2.38  0.  0.
   240  2.39  0.  0.
   241  2.40  0.  0.
   242  2.41  0.  0.
   243  2.42  0.  0.
   244  2.43  0.  0.
   245  2.44  0.  0.
   246  2.45  0.  0.
   247  2.46  0.  0.
   248  2.47  0.  0.
   249  2.48  0.  0.
   250  2.49  0.  0.
   251  2.50  0.  0.
   252  2.51  0.  0.
   253  2.52  0.  0.
   254  2.53  0.  0.
   255  2.54  0.  0.
   256  2.55  0.  0.
   257  2.56  0.  0.
   258  2.57  0.  0.
   259  2.58  0.  0.
   260  2.59  0.  0.
   261  2.60  0.  0.
   262  2.61  0.  0.
   263  2.62  0.  0.
   264  2.63  0.  0.
   265  2.64  0.  0.
   266  2.65  0.  0.
   267  2.66  0.  0.
   268  2.67  0.  0.
   269  2.68  0.  0.
   270  2.69  0.  0.
   271  2.70  0.  0.
   272  2.71  0.  0.
   273  2.72  0.  0.
   274  2.73  0.  0.
   275  2.74  0.  0.
   276  2.75  0.  0.
   277  2.76  0.  0.
   278  2.77  0.  0.
   279  2.78  0.  0.
   280  2.79  0.  0.
   281  2.80  0.  0.
   282  2.81  0.  0.
   283  2.82  0.  0.
   284  2.83  0.  0.
   285  2.84  0.  0.
   286  2.85  0.  0.
   287  2.86  0.  0.
   288  2.87  0.  0.
   289  2.88  0.  0.
   290  2.89  0.  0.
   291  2.90  0.  0.
   292  2.91  0.  0.
   293  2.92  0.  0.
   294  2.93  0.  0.
   295  2.94  0.  0.
   296  2.95  0.  0.
   297  2.96  0.  0.
   298  2.97  0.  0.
   299  2.98  0.  0.
   300  2.99  0.  0.
   301  3.00  0.  0.
   302  3.01  0.  0.
   303  3.02  0.  0.
   304  3.03  0.  0.
   305  3.04  0.  0.
   306  3.05  0.  0.
   307  3.06  0.  0.
   308  3.07  0.  0.
   309  3.08  0.  0.
   310  3.09  0.  0.
   311  3.10  0.  0.
   312  3.11  0.  0.
   313  3.12  0.  0.
   314  3.13  0.  0.
   315  3.14  0.  0.
   316  3.15  0.  0.
   317  3.16  0.  0.
   318  3.17  0.  0.
   319  3.18  0.  0.
   320  3.19  0.  0.
   321  3.20  0.  0.
   322  3.21  0.  0.
   323  3.22  0.  0.
   324  3.23  0.  0.
   325  3.24  0.  0.
   326  3.25  0.  0.
   327  3.26  0.  0.
   328  3.27  0.  0.
   329  3.28  0.  0.
   330  3.29  0.  0.
   331  3.30  0.  0.
   332  3.31  0.  0.
   333  3.32  0.  0.
   334  3.33  0.  0.
   335  3.34  0.  0.
   336  3.35  0.  0.
   337  3.36  0.  0.
   338  3.37  0.  0.
   339  3.38  0.  0.
   340  3.39  0.  0.
   341  3.40  0.  0.
   342  3.41  0.  0.
   343  3.42  0.  0.
   344  3.43  0.  0.
   345  3.44  0.  0.
   346  3.45  0.  0.
   347  3.46  0.  0.
   348  3.47  0.  0.
   349  3.48  0.  0.
   350  3.49  0.  0.
   351  3.50  0.  0.
   352  3.51  0.  0.
   353  3.52  0.  0.
   354  3.53  0.  0.
   355  3.54  0.  0.
   356  3.55  0.  0.
   357  3.56  0.  0.
   358  3.57  0.  0.
   359  3.58  0.  0.
   360  3.59  0.  0.
   361  3.60  0.  0.
   362  3.61  0.  0.
   363  3.62  0.  0.
   364  3.63  0.  0.
   365  3.64  0.  0.
   366  3.65  0.  0.
   367  3.66  0.  0.
   368  3.67  0.  0.
   369  3.68  0.  0.
   370  3.69  0.  0.
   371  3.70  0.  0.
   372  3.71  0.  0.
   373  3.72  0.  0.
   374  3.73  0.  0.
   375  3.74  0.  0.
   376  3.75  0.  0.
   377  3.76  0.  0.
   378  3.77  0.  0.
   379  3.78  0.  0.
   380  3.79  0.  0.
   381  3.80  0.  0.
   382  3.81  0.  0.
   383  3.82  0.  0.
   384  3.83  0.  0.
   385  3.84  0.  0.
   386  3.85  0.  0.
   387  3.86  0.  0.
   388  3.87  0.  0.
   389  3.88  0.  0.
   390  3.89  0.  0.
   391  3.90  0.  0.
   392  3.91  0.  0.
   393  3.92  0.  0.
   394  3.93  0.  0.
   395  3.94  0.  0.
   396  3.95  0.  0.
   397  3.96  0.  0.
   398  3.97  0.  0.
   399  3.98  0.  0.
   400  3.99  0.  0.
   1                        -6.2364490009601E+00 -2.2256406911546E+00
     1  0.0000000000000E+00 -2.8082940556340E-09  5.6981519606925E-09
     2  1.0000000000000E-02  1.6497686490716E-03 -4.5549072737298E-04
     3  2.0000000000000E-02  6.5951461045042E-03 -1.8228401094910E-03
     4  3.0000000000000E-02  1.4824293360717E-02 -4.1045505223020E-03
     5  4.0000000000000E-02  2.6317302003715E-02 -7.3043652875735E-03
     6  5.0000000000000E-02  4.1045935002947E-02 -1.1426639686685E-02
     7  6.0000000000000E-02  5.8973275483658E-02 -1.6475484049773E-02
     8  7.0000000000000E-02  8.0053294833587E-02 -2.2453701960375E-02
     9  8.0000000000000E-02  1.0423035430615E-01 -2.9361552313848E-02
    10  9.0000000000000E-02  1.3143865677636E-01 -3.7195369028167E-02
    11  1.0000000000000E-01  1.6160166742908E-01 -4.5946076513307E-02
    12  1.1000000000000E-01  1.9463152386288E-01 -5.5597642462784E-02
    13  1.2000000000000E-01  2.3042845733746E-01 -6.6125512056763E-02
    14  1.3000000000000E-01  2.6888024764639E-01 -7.7495069199680E-02
    15  1.4000000000000E-01  3.0986173434102E-01 -8.9660170916147E-02
    16  1.5000000000000E-01  3.5323440675454E-01 -1.0256180047868E-01
    17  1.6000000000000E-01  3.9884609447966E-01 -1.1612688324310E-01
    18  1.7000000000000E-01  4.4653077865002E-01 -1.3026730654855E-01
    19  1.8000000000000E-01  4.9610854258813E-01 -1.4487918144643E-01
    20  1.9000000000000E-01  5.4738567814287E-01 -1.5984237952526E-01
    21  2.0000000000000E-01  6.0015496139122E-01 -1.7502037278459E-01
    22  2.1000000000000E-01  6.5419610837197E-01 -1.9026039848695E-01
    23  2.2000000000000E-01  7.0927641821401E-01 -2.0539396430435E-01
    24  2.3000000000000E-01  7.6515160748300E-01 -2.2023770201016E-01
    25  2.4000000000000E-01  8.2156683586996E-01 -2.3459457059484E-01
    26  2.5000000000000E-01  8.7825791955721E-01 -2.4825540215729E-01
    27  2.6000000000000E-01  9.3495272480004E-01 -2.6100077640210E-01
    28  2.7000000000000E-01  9.9137273053319E-01 -2.7260320221460E-01
    29  2.8000000000000E-01  1.0472347452279E+00 -2.8282957774906E-01
    30  2.9000000000000E-01  1.1022527598629E+00 -2.9144389390133E-01
    31  3.0000000000000E-01  1.1561399158014E+00 -2.9821014009025E-01
    32  3.1000000000000E-01  1.2086105636542E+00 -3.0289536607387E-01
    33  3.2000000000000E-01  1.2593823869108E+00 -3.0527284919487E-01
    34  3.3000000000000E-01  1.3081785622926E+00 -3.0512531308468E-01
    35  3.4000000000000E-01  1.3547299274620E+00 -3.0224814154064E-01
    36  3.5000000000000E-01  1.3987771259422E+00 -2.9645253008462E-01
    37  3.6000000000000E-01  1.4400726988858E+00 -2.8756851765371E-01
    38  3.7000000000000E-01  1.4783830936869E+00 -2.7544784197894E-01
    39  3.8000000000000E-01  1.5134905603548E+00 -2.5996656446717E-01
    40  3.9000000000000E-01  1.5451949080524E+00 -2.4102741378163E-01
    41  4.0000000000000E-01  1.5733150962143E+00 -2.1856180176147E-01
    42  4.1000000000000E-01  1.5976906371738E+00 -1.9253147075114E-01
    43  4.2000000000000E-01  1.6181827901868E+00 -1.6292973772654E-01
    44  4.3000000000000E-01  1.6346755300978E+00 -1.2978230768708E-01
    45  4.4000000000000E-01  1.6470762775835E+00 -9.3147636494559E-02
    46  4.5000000000000E-01  1.6553163818524E+00 -5.3116831530812E-02
    47  4.6000000000000E-01  1.6593513508135E+00 -9.8130870542155E-03
    48  4.7000000000000E-01  1.6591608279588E+00  3.6609340210534E-02
    49  4.8000000000000E-01  1.6547483194565E+00  8.5966601088088E-02
    50  4.9000000000000E-01  1.6461406791360E+00  1.3804714698993E-01
    51  5.0000000000000E-01  1.6333873630848E+00  1.9261401534551E-01
    52  5.1000000000000E-01  1.6165594693805E+00  2.4940746929924E-01
    53  5.2000000000000E-01  1.5957485819799E+00  3.0814794674902E-01
    54  5.3000000000000E-01  1.5710654409077E+00  3.6853926785319E-01
    55  5.4000000000000E-01  1.5426384635618E+00  4.3027204516086E-01
    56  5.5000000000000E-01  1.5106121441361E+00  4.9302723663394E-01
    57  5.6000000000000E-01  1.4751453597980E+00  5.5647977911856E-01
    58  5.7000000000000E-01  1.4364096133190E+00  6.2030223835120E-01
    59  5.8000000000000E-01  1.3945872423247E+00  6.8416841139237E-01
    60  5.9000000000000E-01  1.3498696251837E+00  7.4775681848167E-01
    61  6.0000000000000E-01  1.3024554128070E+00  8.1075402368801E-01
    62  6.1000000000000E-01  1.2525488142909E+00  8.7285772735066E-01
    63  6.2000000000000E-01  1.2003579624326E+00  9.3377957810199E-01
    64  6.3000000000000E-01  1.1460933827282E+00  9.9324765814290E-01
    65  6.4000000000000E-01  1.0899665865605E+00  1.0510086022909E+00
    66  6.5000000000000E-01  1.0321888059824E+00  1.1068293190043E+00
    67  6.6000000000000E-01  9.7296988385190E-01  1.1604982899491E+00
    68  6.7000000000000E-01  9.1251732916466E-01  1.2118264335490E+00
    69  6.8000000000000E-01  8.5103554334068E-01  1.2606475271594E+00
    70  6.9000000000000E-01  7.8872521904095E-01  1.3068181918449E+00
    71  7.0000000000000E-01  7.2578290890938E-01  1.3502174530215E+00
    72  7.1000000000000E-01  6.6240075754454E-01  1.3907458992478E+00
    73  7.2000000000000E-01  5.9876638609683E-01  1.4283244700311E+00
    74  7.3000000000000E-01  5.3506291524470E-01  1.4628929114601E+00
    75  7.4000000000000E-01  4.7146910901029E-01  1.4944079456159E+00
    76  7.5000000000000E-01  4.0815961900623E-01  1.5228412058918E+00
    77  7.6000000000000E-01  3.4530530632567E-01  1.5481769954222E+00
    78  7.7000000000000E-01  2.8307361645473E-01  1.5704099296738E+00
    79  7.8000000000000E-01  2.2162898134398E-01  1.5895425267866E+00
    80  7.9000000000000E-01  1.6113322215665E-01  1.6055828104041E+00
    81  8.0000000000000E-01  1.0174592623457E-01  1.6185419894696E+00
    82  8.1000000000000E-01  4.3624772493702E-02  1.6284322777668E+00
    83  8.2000000000000E-01 -1.3074219228086E-02  1.6352649128842E+00
    84  8.3000000000000E-01 -6.8196537422157E-02  1.6390484298280E+00
    85  8.4000000000000E-01 -1.2158914680285E-01  1.6397872387782E+00
    86  8.5000000000000E-01 -1.7310059185006E-01  1.6374805495890E+00
    87  8.6000000000000E-01 -2.2258124949982E-01  1.6321216777154E+00
    88  8.7000000000000E-01 -2.6988374057844E-01  1.6236977574491E+00
    89  8.8000000000000E-01 -3.1486350535741E-01  1.6121898788665E+00
    90  8.9000000000000E-01 -3.5737954416364E-01  1.5975736549052E+00
    91  9.0000000000000E-01 -3.9729531940827E-01  1.5798202147173E+00
    92  9.1000000000000E-01 -4.3447981079782E-01  1.5588976091048E+00
    93  9.2000000000000E-01 -4.6880871096659E-01  1.5347726036523E+00
    94  9.3000000000000E-01 -5.0016574441972E-01  1.5074128253530E+00
    95  9.4000000000000E-01 -5.2844408860433E-01  1.4767892192918E+00
    96  9.5000000000000E-01 -5.5354787222473E-01  1.4428787635115E+00
    97  9.6000000000000E-01 -5.7539372267806E-01  1.4056673827402E+00
    98  9.7000000000000E-01 -5.9391233178686E-01  1.3651529953641E+00
    99  9.8000000000000E-01 -6.0905000691828E-01  1.3213486230562E+00
   100  9.9000000000000E-01 -6.2077017316075E-01  1.2742854889347E+00
   101  1.0000000000000E+00 -6.2905479152579E-01  1.2240160281233E+00
   102  1.0100000000000E+00 -6.3390565818328E-01  1.1706167341957E+00
   103  1.0200000000000E+00 -6.3534555054147E-01  1.1141907662291E+00
   104  1.0300000000000E+00 -6.3341918754216E-01  1.0548702440809E+00
   105  1.0400000000000E+00 -6.2819397384772E-01  9.9281816399615E-01
   106  1.0500000000000E+00 -6.1976050061245E-01  9.2822987269195E-01
   107  1.0600000000000E+00 -6.0823277920518E-01  8.6133404553274E-01
   108  1.0700000000000E+00 -5.9374818853584E-01  7.9239312320934E-01
   109  1.0800000000000E+00 -5.7646712143651E-01  7.2170317125733E-01
   110  1.0900000000000E+00 -5.5657232036484E-01  6.4959313606270E-01
   111  1.1000000000000E+00 -5.3426790205398E-01  5.7642349673779E-01
   112  1.1100000000000E+00 -5.0977764254789E-01  5.0258280718664E-01
   113  1.1200000000000E+00 -4.8334148821971E-01  4.2847873883466E-01
   114  1.1300000000000E+00 -4.5521374425754E-01  3.5453576952591E-01
   115  1.1400000000000E+00 -4.2566103697912E-01  2.8119233555514E-01
   116  1.1500000000000E+00 -3.9495976312260E-01  2.0889648408108E-01
   117  1.1600000000000E+00 -3.6339334013410E-01  1.3810111032604E-01
   118  1.1700000000000E+00 -3.3124928814302E-01  6.9258834471307E-02
   119  1.1800000000000E+00 -2.9881618293056E-01  2.8165977359184E-03
   120  1.1900000000000E+00 -2.6638052214624E-01 -6.0789937174799E-02
   121  1.2000000000000E+00 -2.3422354993803E-01 -1.2114208954882E-01
   122  1.2100000000000E+00 -2.0261808726837E-01 -1.7784387159435E-01
   123  1.2200000000000E+00 -1.7182541647054E-01 -2.3052760729976E-01
   124  1.2300000000000E+00 -1.4209226901796E-01 -2.7885935850613E-01
   125  1.2400000000000E+00 -1.1364796500921E-01 -3.2254405814974E-01
   126  1.2500000000000E+00 -8.6701751505526E-02 -3.6133025320993E-01
   127  1.2600000000000E+00 -6.1440384599715E-02 -3.9501436437052E-01
   128  1.2700000000000E+00 -3.8025997002403E-02 -4.2344437565153E-01
   129  1.2800000000000E+00 -1.6594288994079E-02 -4.4652287531282E-01
   130  1.2900000000000E+00  2.7469240822368E-03 -4.6420937894567E-01
   131  1.3000000000000E+00  1.9918779945500E-02 -4.7652187669056E-01
   132  1.3100000000000E+00  3.4872031242840E-02 -4.8353755889542E-01
   133  1.3200000000000E+00  4.7587285700437E-02 -4.8539268787647E-01
   134  1.3300000000000E+00  5.8074815898920E-02 -4.8228159760774E-01
   135  1.3400000000000E+00  6.6373937081849E-02 -4.7445481792014E-01
   136  1.3500000000000E+00  7.2551958602146E-02 -4.6221633483258E-01
   137  1.3600000000000E+00  7.6702721802943E-02 -4.4592001368676E-01
   138  1.3700000000000E+00  7.8944744177907E-02 -4.2596522652140E-01
   139  1.3800000000000E+00  7.9418996483754E-02 -4.0279173943491E-01
   140  1.3900000000000E+00  7.8286345886077E-02 -3.7687392913063E-01
   141  1.4000000000000E+00  7.5724704135578E-02 -3.4871441025876E-01
   142  1.4100000000000E+00  7.1925925071872E-02 -3.1883716630353E-01
   143  1.4200000000000E+00  6.7092500327160E-02 -2.8778028638229E-01
   144  1.4300000000000E+00  6.1434105890575E-02 -2.5608841829301E-01
   145  1.4400000000000E+00  5.5164055074977E-02 -2.2430505421304E-01
   146  1.4500000000000E+00  4.8495714627613E-02 -1.9296476807068E-01
   147  1.4600000000000E+00  4.1638952774170E-02 -1.6258554768458E-01
   148  1.4700000000000E+00  3.4796628245473E-02 -1.3366124654857E-01
   149  1.4800000000000E+00  2.8161450776669E-02 -1.0665481472193E-01
   150  1.4900000000000E+00  2.1916256416665E-02 -8.1998412701290E-02
   151  1.5000000000000E+00  1.6224816069208E-02 -6.0074718656967E-02
   152  1.5100000000000E+00  1.1227986709552E-02 -4.1208833474314E-02
   153  1.5200000000000E+00  7.0461744184499E-03 -2.5672881208711E-02
   154  1.5300000000000E+00  3.7773461620011E-03 -1.3682313008976E-02
   155  1.5400000000000E+00  1.4910777876541E-03 -5.3767520173413E-03
   156  1.5500000000000E+00  2.5824367630103E-04 -9.2812161471348E-04
   157  1.5600000000000E+00 -2.2365681130750E-05  8.0229664598871E-05
   158  1.5700000000000E+00  6.7852575114496E-06 -2.4353711343935E-05
   159  1.58 -0.  0.
   160  1.59 -0.  0.
   161  1.60  0.  0.
   162  1.61  0.  0.
   163  1.62  0.  0.
   164  1.63  0.  0.
   165  1.64  0.  0.
   166  1.65  0.  0.
   167  1.66  0.  0.
   168  1.67  0.  0.
   169  1.68  0.  0.
   170  1.69  0.  0.
   171  1.70  0.  0.
   172  1.71  0.  0.
   173  1.72  0.  0.
   174  1.73  0.  0.
   175  1.74  0.  0.
   176  1.75  0.  0.
   177  1.76  0.  0.
   178  1.77  0.  0.
   179  1.78  0.  0.
   180  1.79  0.  0.
   181  1.80  0.  0.
   182  1.81  0.  0.
   183  1.82  0.  0.
   184  1.83  0.  0.
   185  1.84  0.  0.
   186  1.85  0.  0.
   187  1.86  0.  0.
   188  1.87  0.  0.
   189  1.88  0.  0.
   190  1.89  0.  0.
   191  1.90  0.  0.
   192  1.91  0.  0.
   193  1.92  0.  0.
   194  1.93  0.  0.
   195  1.94  0.  0.
   196  1.95  0.  0.
   197  1.96  0.  0.
   198  1.97  0.  0.
   199  1.98  0.  0.
   200  1.99  0.  0.
   201  2.00  0.  0.
   202  2.01  0.  0.
   203  2.02  0.  0.
   204  2.03  0.  0.
   205  2.04  0.  0.
   206  2.05  0.  0.
   207  2.06  0.  0.
   208  2.07  0.  0.
   209  2.08  0.  0.
   210  2.09  0.  0.
   211  2.10  0.  0.
   212  2.11  0.  0.
   213  2.12  0.  0.
   214  2.13  0.  0.
   215  2.14  0.  0.
   216  2.15  0.  0.
   217  2.16  0.  0.
   218  2.17  0.  0.
   219  2.18  0.  0.
   220  2.19  0.  0.
   221  2.20  0.  0.
   222  2.21  0.  0.
   223  2.22  0.  0.
   224  2.23  0.  0.
   225  2.24  0.  0.
   226  2.25  0.  0.
   227  2.26  0.  0.
   228  2.27  0.  0.
   229  2.28  0.  0.
   230  2.29  0.  0.
   231  2.30  0.  0.
   232  2.31  0.  0.
   233  2.32  0.  0.
   234  2.33  0.  0.
   235  2.34  0.  0.
   236  2.35  0.  0.
   237  2.36  0.  0.
   238  2.37  0.  0.
   239  2.38  0.  0.
   240  2.39  0.  0.
   241  2.40  0.  0.
   242  2.41  0.  0.
   243  2.42  0.  0.
   244  2.43  0.  0.
   245  2.44  0.  0.
   246  2.45  0.  0.
   247  2.46  0.  0.
   248  2.47  0.  0.
   249  2.48  0.  0.
   250  2.49  0.  0.
   251  2.50  0.  0.
   252  2.51  0.  0.
   253  2.52  0.  0.
   254  2.53  0.  0.
   255  2.54  0.  0.
   256  2.55  0.  0.
   257  2.56  0.  0.
   258  2.57  0.  0.
   259  2.58  0.  0.
   260  2.59  0.  0.
   261  2.60  0.  0.
   262  2.61  0.  0.
   263  2.62  0.  0.
   264  2.63  0.  0.
   265  2.64  0.  0.
   266  2.65  0.  0.
   267  2.66  0.  0.
   268  2.67  0.  0.
   269  2.68  0.  0.
   270  2.69  0.  0.
   271  2.70  0.  0.
   272  2.71  0.  0.
   273  2.72  0.  0.
   274  2.73  0.  0.
   275  2.74  0.  0.
   276  2.75  0.  0.
   277  2.76  0.  0.
   278  2.77  0.  0.
   279  2.78  0.  0.
   280  2.79  0.  0.
   281  2.80  0.  0.
   282  2.81  0.  0.
   283  2.82  0.  0.
   284  2.83  0.  0.
   285  2.84  0.  0.
   286  2.85  0.  0.
   287  2.86  0.  0.
   288  2.87  0.  0.
   289  2.88  0.  0.
   290  2.89  0.  0.
   291  2.90  0.  0.
   292  2.91  0.  0.
   293  2.92  0.  0.
   294  2.93  0.  0.
   295  2.94  0.  0.
   296  2.95  0.  0.
   297  2.96  0.  0.
   298  2.97  0.  0.
   299  2.98  0.  0.
   300  2.99  0.  0.
   301  3.00  0.  0.
   302  3.01  0.  0.
   303  3.02  0.  0.
   304  3.03  0.  0.
   305  3.04  0.  0.
   306  3.05  0.  0.
   307  3.06  0.  0.
   308  3.07  0.  0.
   309  3.08  0.  0.
   310  3.09  0.  0.
   311  3.10  0.  0.
   312  3.11  0.  0.
   313  3.12  0.  0.
   314  3.13  0.  0.
   315  3.14  0.  0.
   316  3.15  0.  0.
   317  3.16  0.  0.
   318  3.17  0.  0.
   319  3.18  0.  0.
   320  3.19  0.  0.
   321  3.20  0.  0.
   322  3.21  0.  0.
   323  3.22  0.  0.
   324  3.23  0.  0.
   325  3.24  0.  0.
   326  3.25  0.  0.
   327  3.26  0.  0.
   328  3.27  0.  0.
   329  3.28  0.  0.
   330  3.29  0.  0.
   331  3.30  0.  0.
   332  3.31  0.  0.
   333  3.32  0.  0.
   334  3.33  0.  0.
   335  3.34  0.  0.
   336  3.35  0.  0.
   337  3.36  0.  0.
   338  3.37  0.  0.
   339  3.38  0.  0.
   340  3.39  0.  0.
   341  3.40  0.  0.
   342  3.41  0.  0.
   343  3.42  0.  0.
   344  3.43  0.  0.
   345  3.44  0.  0.
   346  3.45  0.  0.
   347  3.46  0.  0.
   348  3.47  0.  0.
   349  3.48  0.  0.
   350  3.49  0.  0.
   351  3.50  0.  0.
   352  3.51  0.  0.
   353  3.52  0.  0.
   354  3.53  0.  0.
   355  3.54  0.  0.
   356  3.55  0.  0.
   357  3.56  0.  0.
   358  3.57  0.  0.
   359  3.58  0.  0.
   360  3.59  0.  0.
   361  3.60  0.  0.
   362  3.61  0.  0.