Y     ONCVPSP-4.0.1  r_core=   1.60378   1.50164   1.55652
     39.0000     11.0000      250925    zatom,zion,pspd
     8   -1012   2     4   600     0    pspcod,pspxc,lmax,lloc,mmax,r2well
  5.99000000  4.00000000  0.00000000    rchrg fchrg qchrg
     2     2     2     0    nproj
     3     1           extension_switch
     3     3     0    nprojso
   0                         9.7944833311356E+00  7.9115010373900E-01
     1  0.0000000000000E+00 -1.2547929362228E-10  5.4910359592597E-10
     2  1.0000000000000E-02  5.1531622098753E-02 -2.3107580866768E-02
     3  2.0000000000000E-02  1.0299300940447E-01 -4.6116984046347E-02
     4  3.0000000000000E-02  1.5431414836685E-01 -6.8930812155065E-02
     5  4.0000000000000E-02  2.0542546554785E-01 -9.1453217890719E-02
     6  5.0000000000000E-02  2.5625804177701E-01 -1.1359065290102E-01
     7  6.0000000000000E-02  3.0674381931613E-01 -1.3525258564011E-01
     8  7.0000000000000E-02  3.5681579985231E-01 -1.5635217852846E-01
     9  8.0000000000000E-02  4.0640823126373E-01 -1.7680691528063E-01
    10  9.0000000000000E-02  4.5545678125647E-01 -1.9653916993856E-01
    11  1.0000000000000E-01  5.0389869615092E-01 -2.1547670993724E-01
    12  1.1000000000000E-01  5.5167294330048E-01 -2.3355312642507E-01
    13  1.2000000000000E-01  5.9872033585130E-01 -2.5070818605104E-01
    14  1.3000000000000E-01  6.4498363879606E-01 -2.6688809950352E-01
    15  1.4000000000000E-01  6.9040765553495E-01 -2.8204570322670E-01
    16  1.5000000000000E-01  7.3493929442860E-01 -2.9614055193654E-01
    17  1.6000000000000E-01  7.7852761510902E-01 -3.0913892079318E-01
    18  1.7000000000000E-01  8.2112385459951E-01 -3.2101371734536E-01
    19  1.8000000000000E-01  8.6268143358175E-01 -3.3174430462856E-01
    20  1.9000000000000E-01  9.0315594343250E-01 -3.4131623805551E-01
    21  2.0000000000000E-01  9.4250511492998E-01 -3.4972091997024E-01
    22  2.1000000000000E-01  9.8068876979810E-01 -3.5695517692685E-01
    23  2.2000000000000E-01  1.0176687565108E+00 -3.6302076588877E-01
    24  2.3000000000000E-01  1.0534088720158E+00 -3.6792381660512E-01
    25  2.4000000000000E-01  1.0878747712531E+00 -3.7167421839686E-01
    26  2.5000000000000E-01  1.1210338665372E+00 -3.7428496046007E-01
    27  2.6000000000000E-01  1.1528552190387E+00 -3.7577143555744E-01
    28  2.7000000000000E-01  1.1833094247362E+00 -3.7615071760928E-01
    29  2.8000000000000E-01  1.2123684973205E+00 -3.7544082420255E-01
    30  2.9000000000000E-01  1.2400057506022E+00 -3.7365997540364E-01
    31  3.0000000000000E-01  1.2661956830156E+00 -3.7082586048010E-01
    32  3.1000000000000E-01  1.2909138668163E+00 -3.6695492420485E-01
    33  3.2000000000000E-01  1.3141368445353E+00 -3.6206168432970E-01
    34  3.3000000000000E-01  1.3358420351881E+00 -3.5615809157334E-01
    35  3.4000000000000E-01  1.3560076526306E+00 -3.4925294307303E-01
    36  3.5000000000000E-01  1.3746126383170E+00 -3.4135135970076E-01
    37  3.6000000000000E-01  1.3916366105406E+00 -3.3245433695098E-01
    38  3.7000000000000E-01  1.4070598320354E+00 -3.2255837827233E-01
    39  3.8000000000000E-01  1.4208631975812E+00 -3.1165521874925E-01
    40  3.9000000000000E-01  1.4330282429914E+00 -2.9973164595331E-01
    41  4.0000000000000E-01  1.4435371765780E+00 -2.8676942358582E-01
    42  4.1000000000000E-01  1.4523729338758E+00 -2.7274532224192E-01
    43  4.2000000000000E-01  1.4595192560861E+00 -2.5763126025076E-01
    44  4.3000000000000E-01  1.4649607923532E+00 -2.4139455610762E-01
    45  4.4000000000000E-01  1.4686832256407E+00 -2.2399829252497E-01
    46  4.5000000000000E-01  1.4706734216137E+00 -2.0540179061089E-01
    47  4.6000000000000E-01  1.4709195995762E+00 -1.8556119115145E-01
    48  4.7000000000000E-01  1.4694115241549E+00 -1.6443013844988E-01
    49  4.8000000000000E-01  1.4661407160725E+00 -1.4196056067512E-01
    50  4.9000000000000E-01  1.4611006800173E+00 -1.1810353921969E-01
    51  5.0000000000000E-01  1.4542871472920E+00 -9.2810258174177E-02
    52  5.1000000000000E-01  1.4456983306281E+00 -6.6033023718781E-02
    53  5.2000000000000E-01  1.4353351882744E+00 -3.7726342021697E-02
    54  5.3000000000000E-01  1.4232016942199E+00 -7.8480431414824E-03
    55  5.4000000000000E-01  1.4093051112000E+00  2.3639562529767E-02
    56  5.5000000000000E-01  1.3936562629536E+00  5.6768509562084E-02
    57  5.6000000000000E-01  1.3762698020578E+00  9.1563999456476E-02
    58  5.7000000000000E-01  1.3571644695694E+00  1.2804323470868E-01
    59  5.8000000000000E-01  1.3363633426447E+00  1.6621428069581E-01
    60  5.9000000000000E-01  1.3138940662992E+00  2.0607497123613E-01
    61  6.0000000000000E-01  1.2897890655018E+00  2.4761187360080E-01
    62  6.1000000000000E-01  1.2640857338823E+00  2.9079932849284E-01
    63  6.2000000000000E-01  1.2368265954571E+00  3.3559858004975E-01
    64  6.3000000000000E-01  1.2080594359524E+00  3.8195701027395E-01
    65  6.4000000000000E-01  1.1778374005256E+00  4.2980749145496E-01
    66  6.5000000000000E-01  1.1462190549470E+00  4.7906786912431E-01
    67  6.6000000000000E-01  1.1132684076087E+00  5.2964058688770E-01
    68  6.7000000000000E-01  1.0790548900725E+00  5.8141246311886E-01
    69  6.8000000000000E-01  1.0436532942453E+00  6.3425462799159E-01
    70  6.9000000000000E-01  1.0071436646830E+00  6.8802262768208E-01
    71  7.0000000000000E-01  9.6961114496227E-01  7.4255670081214E-01
    72  7.1000000000000E-01  9.3114577752149E-01  7.9768223034370E-01
    73  7.2000000000000E-01  8.9184225685264E-01  8.5321037219494E-01
    74  7.3000000000000E-01  8.5179963642097E-01  9.0893885985084E-01
    75  7.4000000000000E-01  8.1112099019004E-01  9.6465298220833E-01
    76  7.5000000000000E-01  7.6991303013517E-01  1.0201267298509E+00
    77  7.6000000000000E-01  7.2828568162913E-01  1.0751241029142E+00
    78  7.7000000000000E-01  6.8635161907620E-01  1.1294005717050E+00
    79  7.8000000000000E-01  6.4422576464808E-01  1.1827046793007E+00
    80  7.9000000000000E-01  6.0202475343216E-01  1.2347797734944E+00
    81  8.0000000000000E-01  5.5986636873320E-01  1.2853658537096E+00
    82  8.1000000000000E-01  5.1786895166950E-01  1.3342015168794E+00
    83  8.2000000000000E-01  4.7615078956725E-01  1.3810259848198E+00
    84  8.3000000000000E-01  4.3482948797913E-01  1.4255811943190E+00
    85  8.4000000000000E-01  3.9402133142931E-01  1.4676139300520E+00
    86  8.5000000000000E-01  3.5384063821462E-01  1.5068779795154E+00
    87  8.6000000000000E-01  3.1439911476562E-01  1.5431362884819E+00
    88  8.7000000000000E-01  2.7580521519055E-01  1.5761630950061E+00
    89  8.8000000000000E-01  2.3816351168612E-01  1.6057460197838E+00
    90  8.9000000000000E-01  2.0157408150107E-01  1.6316880906822E+00
    91  9.0000000000000E-01  1.6613191607971E-01  1.6538096795183E+00
    92  9.1000000000000E-01  1.3192635789387E-01  1.6719503296775E+00
    93  9.2000000000000E-01  9.9040570292507E-02  1.6859704539186E+00
    94  9.3000000000000E-01  6.7551045459949E-02  1.6957528827140E+00
    95  9.4000000000000E-01  3.7527155278560E-02  1.7012042447079E+00
    96  9.5000000000000E-01  9.0307495415484E-03  1.7022561623310E+00
    97  9.6000000000000E-01 -1.7884194440105E-02  1.6988662472812E+00
    98  9.7000000000000E-01 -4.3171867241774E-02  1.6910188824397E+00
    99  9.8000000000000E-01 -6.6794864638682E-02  1.6787257788324E+00
   100  9.9000000000000E-01 -8.8724364258252E-02  1.6620262984387E+00
   101  1.0000000000000E+00 -1.0894023956515E-01  1.6409875359754E+00
   102  1.0100000000000E+00 -1.2743110976485E-01  1.6157041552183E+00
   103  1.0200000000000E+00 -1.4419432482400E-01  1.5862979779391E+00
   104  1.0300000000000E+00 -1.5923588543294E-01  1.5529173261014E+00
   105  1.0400000000000E+00 -1.7257029837074E-01  1.5157361205592E+00
   106  1.0500000000000E+00 -1.8422036836845E-01  1.4749527420873E+00
   107  1.0600000000000E+00 -1.9421692819519E-01  1.4307886631335E+00
   108  1.0700000000000E+00 -2.0259850930786E-01  1.3834868611781E+00
   109  1.0800000000000E+00 -2.0941095600022E-01  1.3333100269881E+00
   110  1.0900000000000E+00 -2.1470698655540E-01  1.2805385833381E+00
   111  1.1000000000000E+00 -2.1854570544065E-01  1.2254685319082E+00
   112  1.1100000000000E+00 -2.2099207107696E-01  1.1684091480289E+00
   113  1.1200000000000E+00 -2.2211632416589E-01  1.1096805447133E+00
   114  1.1300000000000E+00 -2.2199338195221E-01  1.0496111289595E+00
   115  1.1400000000000E+00 -2.2070220414351E-01  9.8853497461699E-01
   116  1.1500000000000E+00 -2.1832513648837E-01  9.2678913715730E-01
   117  1.1600000000000E+00 -2.1494723823231E-01  8.6471093647136E-01
   118  1.1700000000000E+00 -2.1065559982108E-01  8.0263523431005E-01
   119  1.1800000000000E+00 -2.0553865730259E-01  7.4089173318939E-01
   120  1.1900000000000E+00 -1.9968550989007E-01  6.7980232349042E-01
   121  1.2000000000000E+00 -1.9318524708918E-01  6.1967850509235E-01
   122  1.2100000000000E+00 -1.8612629166196E-01  5.6081890919030E-01
   123  1.2200000000000E+00 -1.7859576450060E-01  5.0350694497247E-01
   124  1.2300000000000E+00 -1.7067887721552E-01  4.4800859456370E-01
   125  1.2400000000000E+00 -1.6245835791089E-01  3.9457037811555E-01
   126  1.2500000000000E+00 -1.5401391522501E-01  3.4341750912784E-01
   127  1.2600000000000E+00 -1.4542174526029E-01  2.9475225805599E-01
   128  1.2700000000000E+00 -1.3675408552497E-01  2.4875254002198E-01
   129  1.2800000000000E+00 -1.2807881945317E-01  2.0557073999490E-01
   130  1.2900000000000E+00 -1.1945913447746E-01  1.6533278620270E-01
   131  1.3000000000000E+00 -1.1095323600136E-01  1.2813747979925E-01
   132  1.3100000000000E+00 -1.0261411895948E-01  9.4056085938210E-02
   133  1.3200000000000E+00 -9.4489397977935E-02  6.3132188478628E-02
   134  1.3300000000000E+00 -8.6621196458714E-02  3.5381807569593E-02
   135  1.3400000000000E+00 -7.9046094215183E-02  1.0793776362199E-02
   136  1.3500000000000E+00 -7.1795132594461E-02 -1.0669629871998E-02
   137  1.3600000000000E+00 -6.4893875340450E-02 -2.9071821855013E-02
   138  1.3700000000000E+00 -5.8362522790355E-02 -4.4500794107136E-02
   139  1.3800000000000E+00 -5.2216076357721E-02 -5.7067807620252E-02
   140  1.3900000000000E+00 -4.6464549653436E-02 -6.6905875124897E-02
   141  1.4000000000000E+00 -4.1113222032401E-02 -7.4168069052757E-02
   142  1.4100000000000E+00 -3.6162929837757E-02 -7.9025674459861E-02
   143  1.4200000000000E+00 -3.1610390151414E-02 -8.1666211105734E-02
   144  1.4300000000000E+00 -2.7448551453949E-02 -8.2291350560156E-02
   145  1.4400000000000E+00 -2.3666965256285E-02 -8.1114755600619E-02
   146  1.4500000000000E+00 -2.0252172490556E-02 -7.8359870267126E-02
   147  1.4600000000000E+00 -1.7188098243534E-02 -7.4257689734401E-02
   148  1.4700000000000E+00 -1.4456448285072E-02 -6.9044539636952E-02
   149  1.4800000000000E+00 -1.2037100662458E-02 -6.2959895337712E-02
   150  1.4900000000000E+00 -9.9084859643475E-03 -5.6244269612433E-02
   151  1.5000000000000E+00 -8.0479525340244E-03 -4.9137178397872E-02
   152  1.5100000000000E+00 -6.4321385347833E-03 -4.1875089977424E-02
   153  1.5200000000000E+00 -5.0380450741459E-03 -3.4685323709043E-02
   154  1.5300000000000E+00 -3.8460677206664E-03 -2.7773902594174E-02
   155  1.5400000000000E+00 -2.8418952420227E-03 -2.1318587903957E-02
   156  1.5500000000000E+00 -2.0077826908085E-03 -1.5491469841259E-02
   157  1.5600000000000E+00 -1.3290851550012E-03 -1.0441430376296E-02
   158  1.5700000000000E+00 -7.9458304069740E-04 -6.2932288206784E-03
   159  1.5800000000000E+00 -3.9771064539743E-04 -3.1440118698310E-03
   160  1.5900000000000E+00 -1.3453079473272E-04 -1.0514982161931E-03
   161  1.6000000000000E+00 -1.3645816090675E-05 -1.0423786471277E-04
   162  1.6100000000000E+00  2.4368825767798E-06  1.8496385740252E-05
   163  1.6200000000000E+00 -7.6782122588599E-07 -5.8971370800466E-06
   164  1.63  0.  0.
   165  1.64  0.  0.
   166  1.65  0.  0.
   167  1.66  0.  0.
   168  1.67  0.  0.
   169  1.68  0.  0.
   170  1.69  0.  0.
   171  1.70  0.  0.
   172  1.71  0.  0.
   173  1.72  0.  0.
   174  1.73  0.  0.
   175  1.74  0.  0.
   176  1.75  0.  0.
   177  1.76  0.  0.
   178  1.77  0.  0.
   179  1.78  0.  0.
   180  1.79  0.  0.
   181  1.80  0.  0.
   182  1.81  0.  0.
   183  1.82  0.  0.
   184  1.83  0.  0.
   185  1.84  0.  0.
   186  1.85  0.  0.
   187  1.86  0.  0.
   188  1.87  0.  0.
   189  1.88  0.  0.
   190  1.89  0.  0.
   191  1.90  0.  0.
   192  1.91  0.  0.
   193  1.92  0.  0.
   194  1.93  0.  0.
   195  1.94  0.  0.
   196  1.95  0.  0.
   197  1.96  0.  0.
   198  1.97  0.  0.
   199  1.98  0.  0.
   200  1.99  0.  0.
   201  2.00  0.  0.
   202  2.01  0.  0.
   203  2.02  0.  0.
   204  2.03  0.  0.
   205  2.04  0.  0.
   206  2.05  0.  0.
   207  2.06  0.  0.
   208  2.07  0.  0.
   209  2.08  0.  0.
   210  2.09  0.  0.
   211  2.10  0.  0.
   212  2.11  0.  0.
   213  2.12  0.  0.
   214  2.13  0.  0.
   215  2.14  0.  0.
   216  2.15  0.  0.
   217  2.16  0.  0.
   218  2.17  0.  0.
   219  2.18  0.  0.
   220  2.19  0.  0.
   221  2.20  0.  0.
   222  2.21  0.  0.
   223  2.22  0.  0.
   224  2.23  0.  0.
   225  2.24  0.  0.
   226  2.25  0.  0.
   227  2.26  0.  0.
   228  2.27  0.  0.
   229  2.28  0.  0.
   230  2.29  0.  0.
   231  2.30  0.  0.
   232  2.31  0.  0.
   233  2.32  0.  0.
   234  2.33  0.  0.
   235  2.34  0.  0.
   236  2.35  0.  0.
   237  2.36  0.  0.
   238  2.37  0.  0.
   239  2.38  0.  0.
   240  2.39  0.  0.
   241  2.40  0.  0.
   242  2.41  0.  0.
   243  2.42  0.  0.
   244  2.43  0.  0.
   245  2.44  0.  0.
   246  2.45  0.  0.
   247  2.46  0.  0.
   248  2.47  0.  0.
   249  2.48  0.  0.
   250  2.49  0.  0.
   251  2.50  0.  0.
   252  2.51  0.  0.
   253  2.52  0.  0.
   254  2.53  0.  0.
   255  2.54  0.  0.
   256  2.55  0.  0.
   257  2.56  0.  0.
   258  2.57  0.  0.
   259  2.58  0.  0.
   260  2.59  0.  0.
   261  2.60  0.  0.
   262  2.61  0.  0.
   263  2.62  0.  0.
   264  2.63  0.  0.
   265  2.64  0.  0.
   266  2.65  0.  0.
   267  2.66  0.  0.
   268  2.67  0.  0.
   269  2.68  0.  0.
   270  2.69  0.  0.
   271  2.70  0.  0.
   272  2.71  0.  0.
   273  2.72  0.  0.
   274  2.73  0.  0.
   275  2.74  0.  0.
   276  2.75  0.  0.
   277  2.76  0.  0.
   278  2.77  0.  0.
   279  2.78  0.  0.
   280  2.79  0.  0.
   281  2.80  0.  0.
   282  2.81  0.  0.
   283  2.82  0.  0.
   284  2.83  0.  0.
   285  2.84  0.  0.
   286  2.85  0.  0.
   287  2.86  0.  0.
   288  2.87  0.  0.
   289  2.88  0.  0.
   290  2.89  0.  0.
   291  2.90  0.  0.
   292  2.91  0.  0.
   293  2.92  0.  0.
   294  2.93  0.  0.
   295  2.94  0.  0.
   296  2.95  0.  0.
   297  2.96  0.  0.
   298  2.97  0.  0.
   299  2.98  0.  0.
   300  2.99  0.  0.
   301  3.00  0.  0.
   302  3.01  0.  0.
   303  3.02  0.  0.
   304  3.03  0.  0.
   305  3.04  0.  0.
   306  3.05  0.  0.
   307  3.06  0.  0.
   308  3.07  0.  0.
   309  3.08  0.  0.
   310  3.09  0.  0.
   311  3.10  0.  0.
   312  3.11  0.  0.
   313  3.12  0.  0.
   314  3.13  0.  0.
   315  3.14  0.  0.
   316  3.15  0.  0.
   317  3.16  0.  0.
   318  3.17  0.  0.
   319  3.18  0.  0.
   320  3.19  0.  0.
   321  3.20  0.  0.
   322  3.21  0.  0.
   323  3.22  0.  0.
   324  3.23  0.  0.
   325  3.24  0.  0.
   326  3.25  0.  0.
   327  3.26  0.  0.
   328  3.27  0.  0.
   329  3.28  0.  0.
   330  3.29  0.  0.
   331  3.30  0.  0.
   332  3.31  0.  0.
   333  3.32  0.  0.
   334  3.33  0.  0.
   335  3.34  0.  0.
   336  3.35  0.  0.
   337  3.36  0.  0.
   338  3.37  0.  0.
   339  3.38  0.  0.
   340  3.39  0.  0.
   341  3.40  0.  0.
   342  3.41  0.  0.
   343  3.42  0.  0.
   344  3.43  0.  0.
   345  3.44  0.  0.
   346  3.45  0.  0.
   347  3.46  0.  0.
   348  3.47  0.  0.
   349  3.48  0.  0.
   350  3.49  0.  0.
   351  3.50  0.  0.
   352  3.51  0.  0.
   353  3.52  0.  0.
   354  3.53  0.  0.
   355  3.54  0.  0.
   356  3.55  0.  0.
   357  3.56  0.  0.
   358  3.57  0.  0.
   359  3.58  0.  0.
   360  3.59  0.  0.
   361  3.60  0.  0.
   362  3.61  0.  0.
   363  3.62  0.  0.
   364  3.63  0.  0.
   365  3.64  0.  0.
   366  3.65  0.  0.
   367  3.66  0.  0.
   368  3.67  0.  0.
   369  3.68  0.  0.
   370  3.69  0.  0.
   371  3.70  0.  0.
   372  3.71  0.  0.
   373  3.72  0.  0.
   374  3.73  0.  0.
   375  3.74  0.  0.
   376  3.75  0.  0.
   377  3.76  0.  0.
   378  3.77  0.  0.
   379  3.78  0.  0.
   380  3.79  0.  0.
   381  3.80  0.  0.
   382  3.81  0.  0.
   383  3.82  0.  0.
   384  3.83  0.  0.
   385  3.84  0.  0.
   386  3.85  0.  0.
   387  3.86  0.  0.
   388  3.87  0.  0.
   389  3.88  0.  0.
   390  3.89  0.  0.
   391  3.90  0.  0.
   392  3.91  0.  0.
   393  3.92  0.  0.
   394  3.93  0.  0.
   395  3.94  0.  0.
   396  3.95  0.  0.
   397  3.96  0.  0.
   398  3.97  0.  0.
   399  3.98  0.  0.
   400  3.99  0.  0.
   401  4.00  0.  0.
   402  4.01  0.  0.
   403  4.02  0.  0.
   404  4.03  0.  0.
   405  4.04  0.  0.
   406  4.05  0.  0.
   407  4.06  0.  0.
   408  4.07  0.  0.
   409  4.08  0.  0.
   410  4.09  0.  0.
   411  4.10  0.  0.
   412  4.11  0.  0.
   413  4.12  0.  0.
   414  4.13  0.  0.
   415  4.14  0.  0.
   416  4.15  0.  0.
   417  4.16  0.  0.
   418  4.17  0.  0.
   419  4.18  0.  0.
   420  4.19  0.  0.
   421  4.20  0.  0.
   422  4.21  0.  0.
   423  4.22  0.  0.
   424  4.23  0.  0.
   425  4.24  0.  0.
   426  4.25  0.  0.
   427  4.26  0.  0.
   428  4.27  0.  0.
   429  4.28  0.  0.
   430  4.29  0.  0.
   431  4.30  0.  0.
   432  4.31  0.  0.
   433  4.32  0.  0.
   434  4.33  0.  0.
   435  4.34  0.  0.
   436  4.35  0.  0.
   437  4.36  0.  0.
   438  4.37  0.  0.
   439  4.38  0.  0.
   440  4.39  0.  0.
   441  4.40  0.  0.
   442  4.41  0.  0.
   443  4.42  0.  0.
   444  4.43  0.  0.
   445  4.44  0.  0.
   446  4.45  0.  0.
   447  4.46  0.  0.
   448  4.47  0.  0.
   449  4.48  0.  0.
   450  4.49  0.  0.
   451  4.50  0.  0.
   452  4.51  0.  0.
   453  4.52  0.  0.
   454  4.53  0.  0.
   455  4.54  0.  0.
   456  4.55  0.  0.
   457  4.56  0.  0.
   458  4.57  0.  0.
   459  4.58  0.  0.
   460  4.59  0.  0.
   461  4.60  0.  0.
   462  4.61  0.  0.
   463  4.62  0.  0.
   464  4.63  0.  0.
   465  4.64  0.  0.
   466  4.65  0.  0.
   467  4.66  0.  0.
   468  4.67  0.  0.
   469  4.68  0.  0.
   470  4.69  0.  0.
   471  4.70  0.  0.
   472  4.71  0.  0.
   473  4.72  0.  0.
   474  4.73  0.  0.
   475  4.74  0.  0.
   476  4.75  0.  0.
   477  4.76  0.  0.
   478  4.77  0.  0.
   479  4.78  0.  0.
   480  4.79  0.  0.
   481  4.80  0.  0.
   482  4.81  0.  0.
   483  4.82  0.  0.
   484  4.83  0.  0.
   485  4.84  0.  0.
   486  4.85  0.  0.
   487  4.86  0.  0.
   488  4.87  0.  0.
   489  4.88  0.  0.
   490  4.89  0.  0.
   491  4.90  0.  0.
   492  4.91  0.  0.
   493  4.92  0.  0.
   494  4.93  0.  0.
   495  4.94  0.  0.
   496  4.95  0.  0.
   497  4.96  0.  0.
   498  4.97  0.  0.
   499  4.98  0.  0.
   500  4.99  0.  0.
   501  5.00  0.  0.
   502  5.01  0.  0.
   503  5.02  0.  0.
   504  5.03  0.  0.
   505  5.04  0.  0.
   506  5.05  0.  0.
   507  5.06  0.  0.
   508  5.07  0.  0.
   509  5.08  0.  0.
   510  5.09  0.  0.
   511  5.10  0.  0.
   512  5.11  0.  0.
   513  5.12  0.  0.
   514  5.13  0.  0.
   515  5.14  0.  0.
   516  5.15  0.  0.
   517  5.16  0.  0.
   518  5.17  0.  0.
   519  5.18  0.  0.
   520  5.19  0.  0.
   521  5.20  0.  0.
   522  5.21  0.  0.
   523  5.22  0.  0.
   524  5.23  0.  0.
   525  5.24  0.  0.
   526  5.25  0.  0.
   527  5.26  0.  0.
   528  5.27  0.  0.
   529  5.28  0.  0.
   530  5.29  0.  0.
   531  5.30  0.  0.
   532  5.31  0.  0.
   533  5.32  0.  0.
   534  5.33  0.  0.
   535  5.34  0.  0.
   536  5.35  0.  0.
   537  5.36  0.  0.
   538  5.37  0.  0.
   539  5.38  0.  0.
   540  5.39  0.  0.
   541  5.40  0.  0.
   542  5.41  0.  0.
   543  5.42  0.  0.
   544  5.43  0.  0.
   545  5.44  0.  0.
   546  5.45  0.  0.
   547  5.46  0.  0.
   548  5.47  0.  0.
   549  5.48  0.  0.
   550  5.49  0.  0.
   551  5.50  0.  0.
   552  5.51  0.  0.
   553  5.52  0.  0.
   554  5.53  0.  0.
   555  5.54  0.  0.
   556  5.55  0.  0.
   557  5.56  0.  0.
   558  5.57  0.  0.
   559  5.58  0.  0.
   560  5.59  0.  0.
   561  5.60  0.  0.
   562  5.61  0.  0.
   563  5.62  0.  0.
   564  5.63  0.  0.
   565  5.64  0.  0.
   566  5.65  0.  0.
   567  5.66  0.  0.
   568  5.67  0.  0.
   569  5.68  0.  0.
   570  5.69  0.  0.
   571  5.70  0.  0.
   572  5.71  0.  0.
   573  5.72  0.  0.
   574  5.73  0.  0.
   575  5.74  0.  0.
   576  5.75  0.  0.
   577  5.76  0.  0.
   578  5.77  0.  0.
   579  5.78  0.  0.
   580  5.79  0.  0.
   581  5.80  0.  0.
   582  5.81  0.  0.
   583  5.82  0.  0.
   584  5.83  0.  0.
   585  5.84  0.  0.
   586  5.85  0.  0.
   587  5.86  0.  0.
   588  5.87  0.  0.
   589  5.88  0.  0.
   590  5.89  0.  0.
   591  5.90  0.  0.
   592  5.91  0.  0.
   593  5.92  0.  0.
   594  5.93  0.  0.
   595  5.94  0.  0.
   596  5.95  0.  0.
   597  5.96  0.  0.
   598  5.97  0.  0.
   599  5.98  0.  0.
   600  5.99  0.  0.
   1                         5.6618499200805E+00  4.4292356728739E-01
     1  0.0000000000000E+00 -4.7238542105754E-09  2.3290110520713E-08
     2  1.0000000000000E-02  1.1935786033688E-03 -2.1666979527463E-04
     3  2.0000000000000E-02  4.7734670355787E-03 -8.8011133364869E-04
     4  3.0000000000000E-02  1.0737032012348E-02 -2.0301171629210E-03
     5  4.0000000000000E-02  1.9079583941515E-02 -3.7313434227808E-03
     6  5.0000000000000E-02  2.9793936332326E-02 -6.0708645015672E-03
     7  6.0000000000000E-02  4.2869809823536E-02 -9.1548516715127E-03
     8  7.0000000000000E-02  5.8293100951270E-02 -1.3104474319712E-02
     9  8.0000000000000E-02  7.6045040501467E-02 -1.8051145682175E-02
    10  9.0000000000000E-02  9.6101270287044E-02 -2.4131254802640E-02
    11  1.0000000000000E-01  1.1843087033896E-01 -3.1480542210628E-02
    12  1.1000000000000E-01  1.4299537070863E-01 -4.0228288089610E-02
    13  1.2000000000000E-01  1.6974778328008E-01 -5.0491488159914E-02
    14  1.3000000000000E-01  1.9863168914477E-01 -6.2369193940958E-02
    15  1.4000000000000E-01  2.2958041619347E-01 -7.5937190433863E-02
    16  1.5000000000000E-01  2.6251633964787E-01 -9.1243175671931E-02
    17  1.6000000000000E-01  2.9735033534363E-01 -1.0830259325690E-01
    18  1.7000000000000E-01  3.3398141176502E-01 -1.2709525130107E-01
    19  1.8000000000000E-01  3.7229654222557E-01 -1.4756283962098E-01
    20  1.9000000000000E-01  4.1217071331853E-01 -1.6960743217991E-01
    21  2.0000000000000E-01  4.5346719997385E-01 -1.9309103434861E-01
    22  2.1000000000000E-01  4.9603807131848E-01 -2.1783620531677E-01
    23  2.2000000000000E-01  5.3972492521871E-01 -2.4362775576295E-01
    24  2.3000000000000E-01  5.8435984306653E-01 -2.7021549053017E-01
    25  2.4000000000000E-01  6.2976655023799E-01 -2.9731793641460E-01
    26  2.5000000000000E-01  6.7576176187497E-01 -3.2462696709506E-01
    27  2.6000000000000E-01  7.2215668839033E-01 -3.5181321150747E-01
    28  2.7000000000000E-01  7.6875867052072E-01 -3.7853210933308E-01
    29  2.8000000000000E-01  8.1537290998558E-01 -4.0443045837028E-01
    30  2.9000000000000E-01  8.6180425896484E-01 -4.2915328393853E-01
    31  3.0000000000000E-01  9.0785902976669E-01 -4.5235085054597E-01
    32  3.1000000000000E-01  9.5334678527672E-01 -4.7368563113154E-01
    33  3.2000000000000E-01  9.9808207108739E-01 -4.9283904942198E-01
    34  3.3000000000000E-01  1.0418860515972E+00 -5.0951781633341E-01
    35  3.4000000000000E-01  1.0845880148079E+00 -5.2345969176029E-01
    36  3.5000000000000E-01  1.1260267139680E+00 -5.3443851825438E-01
    37  3.6000000000000E-01  1.1660515185227E+00 -5.4226839259229E-01
    38  3.7000000000000E-01  1.2045233519098E+00 -5.4680686452746E-01
    39  3.8000000000000E-01  1.2413153994497E+00 -5.4795707847959E-01
    40  3.9000000000000E-01  1.2763135757580E+00 -5.4566880279868E-01
    41  4.0000000000000E-01  1.3094167475801E+00 -5.3993832174896E-01
    42  4.1000000000000E-01  1.3405367145357E+00 -5.3080719664020E-01
    43  4.2000000000000E-01  1.3695979567714E+00 -5.1835993371475E-01
    44  4.3000000000000E-01  1.3965371647730E+00 -5.0272062660380E-01
    45  4.4000000000000E-01  1.4213025724044E+00 -4.8404866954724E-01
    46  4.5000000000000E-01  1.4438531194494E+00 -4.6253366332544E-01
    47  4.6000000000000E-01  1.4641574743879E+00 -4.3838965825051E-01
    48  4.7000000000000E-01  1.4821929517092E+00 -4.1184889697021E-01
    49  4.8000000000000E-01  1.4979443606475E+00 -3.8315523372303E-01
    50  4.9000000000000E-01  1.5114028237403E+00 -3.5255741564439E-01
    51  5.0000000000000E-01  1.5225646040145E+00 -3.2030241549767E-01
    52  5.1000000000000E-01  1.5314299788796E+00 -2.8662900366701E-01
    53  5.2000000000000E-01  1.5380021969744E+00 -2.5176174043052E-01
    54  5.3000000000000E-01  1.5422865513128E+00 -2.1590555760791E-01
    55  5.4000000000000E-01  1.5442895981964E+00 -1.7924108196523E-01
    56  5.5000000000000E-01  1.5440185466025E+00 -1.4192083171592E-01
    57  5.6000000000000E-01  1.5414808372603E+00 -1.0406639266001E-01
    58  5.7000000000000E-01  1.5366839245399E+00 -6.5766652636116E-02
    59  5.8000000000000E-01  1.5296352677825E+00 -2.7077142797540E-02
    60  5.9000000000000E-01  1.5203425319690E+00  1.1979497396155E-02
    61  6.0000000000000E-01  1.5088139908638E+00  5.1411946772568E-02
    62  6.1000000000000E-01  1.4950591191664E+00  9.1257567787915E-02
    63  6.2000000000000E-01  1.4790893539540E+00  1.3157878841458E-01
    64  6.3000000000000E-01  1.4609189999824E+00  1.7245860691636E-01
    65  6.4000000000000E-01  1.4405662484045E+00  2.1399535149472E-01
    66  6.5000000000000E-01  1.4180542743073E+00  2.5629684879785E-01
    67  6.6000000000000E-01  1.3934123752995E+00  2.9947417302885E-01
    68  6.7000000000000E-01  1.3666771112849E+00  3.4363516035368E-01
    69  6.8000000000000E-01  1.3378934046195E+00  3.8887788111183E-01
    70  6.9000000000000E-01  1.3071155600957E+00  4.3528426473377E-01
    71  7.0000000000000E-01  1.2744081656376E+00  4.8291406917990E-01
    72  7.1000000000000E-01  1.2398468371920E+00  5.3179937819914E-01
    73  7.2000000000000E-01  1.2035187750015E+00  5.8193979598199E-01
    74  7.3000000000000E-01  1.1655231031509E+00  6.3329849020973E-01
    75  7.4000000000000E-01  1.1259709698600E+00  6.8579921158672E-01
    76  7.5000000000000E-01  1.0849853923129E+00  7.3932439130255E-01
    77  7.6000000000000E-01  1.0427008366850E+00  7.9371438824131E-01
    78  7.7000000000000E-01  9.9926253126601E-01  8.4876792594917E-01
    79  7.8000000000000E-01  9.5482551799094E-01  9.0424372627351E-01
    80  7.9000000000000E-01  9.0955345505359E-01  9.5986331311181E-01
    81  8.0000000000000E-01  8.6361719040119E-01  1.0153149267957E+00
    82  8.1000000000000E-01  8.1719313257648E-01  1.0702584582041E+00
    83  8.2000000000000E-01  7.7046145140176E-01  1.1243312826343E+00
    84  8.3000000000000E-01  7.2360414620883E-01  1.1771548475788E+00
    85  8.4000000000000E-01  6.7680302355703E-01  1.2283418466042E+00
    86  8.5000000000000E-01  6.3023762952078E-01  1.2775037941175E+00
    87  8.6000000000000E-01  5.8408318356939E-01  1.3242588034580E+00
    88  8.7000000000000E-01  5.3850856174092E-01  1.3682393638196E+00
    89  8.8000000000000E-01  4.9367437619690E-01  1.4090999102085E+00
    90  8.9000000000000E-01  4.4973119634205E-01  1.4465239850350E+00
    91  9.0000000000000E-01  4.0681795354241E-01  1.4802307999224E+00
    92  9.1000000000000E-01  3.6506056715431E-01  1.5099810216334E+00
    93  9.2000000000000E-01  3.2457082419329E-01  1.5355816262619E+00
    94  9.3000000000000E-01  2.8544553866705E-01  1.5568896904694E+00
    95  9.4000000000000E-01  2.4776600953527E-01  1.5738150168894E+00
    96  9.5000000000000E-01  2.1159778863140E-01  1.5863215221085E+00
    97  9.6000000000000E-01  1.7699076189166E-01  1.5944273489984E+00
    98  9.7000000000000E-01  1.4397953910157E-01  1.5982036997018E+00
    99  9.8000000000000E-01  1.1258413931467E-01  1.5977724203081E+00
   100  9.9000000000000E-01  8.2810951340799E-02  1.5933024022350E+00
   101  1.0000000000000E+00  5.4653941462413E-02  1.5850048975969E+00
   102  1.0100000000000E+00  2.8096074010343E-02  1.5731278755269E+00
   103  1.0200000000000E+00  3.1109048102228E-03  1.5579495726510E+00
   104  1.0300000000000E+00 -2.0335697049830E-02  1.5397714129745E+00
   105  1.0400000000000E+00 -4.2283747050366E-02  1.5189104897271E+00
   106  1.0500000000000E+00 -6.2777312663416E-02  1.4956918136935E+00
   107  1.0600000000000E+00 -8.1862701080427E-02  1.4704405389142E+00
   108  1.0700000000000E+00 -9.9586717290919E-02  1.4434743771827E+00
   109  1.0800000000000E+00 -1.1599504051873E-01  1.4150964074489E+00
   110  1.0900000000000E+00 -1.3113076365844E-01  1.3855884752245E+00
   111  1.1000000000000E+00 -1.4503313574459E-01  1.3552053606200E+00
   112  1.1100000000000E+00 -1.5773654177267E-01  1.3241698722708E+00
   113  1.1200000000000E+00 -1.6926974747964E-01  1.2926689985319E+00
   114  1.1300000000000E+00 -1.7965542923603E-01  1.2608512179412E+00
   115  1.1400000000000E+00 -1.8891000109919E-01  1.2288250384658E+00
   116  1.1500000000000E+00 -1.9704374267848E-01  1.1966588008795E+00
   117  1.1600000000000E+00 -2.0406122284607E-01  1.1643817461016E+00
   118  1.1700000000000E+00 -2.0996200588957E-01  1.1319863111112E+00
   119  1.1800000000000E+00 -2.1474161851756E-01  1.0994315834469E+00
   120  1.1900000000000E+00 -2.1839274856661E-01  1.0666478118819E+00
   121  1.2000000000000E+00 -2.2090663941579E-01  1.0335418410477E+00
   122  1.2100000000000E+00 -2.2227463825505E-01  1.0000033117035E+00
   123  1.2200000000000E+00 -2.2248985161713E-01  9.6591144664265E-01
   124  1.2300000000000E+00 -2.2154885809128E-01  9.3114222541940E-01
   125  1.2400000000000E+00 -2.1945342602627E-01  8.9557573983001E-01
   126  1.2500000000000E+00 -2.1621218332767E-01  8.5910351649906E-01
   127  1.2600000000000E+00 -2.1184218722086E-01  8.2163559335761E-01