Y     ONCVPSP-4.0.1  r_core=   1.60378   1.50164   1.55652
     39.0000     11.0000      231019    zatom,zion,pspd
     8       2   2     4   600     0    pspcod,pspxc,lmax,lloc,mmax,r2well
  5.99000000  4.00000000  0.00000000    rchrg fchrg qchrg
     2     2     2     0     0    nproj
     1     1           extension_switch
   0                         9.8445281673759E+00  8.1371172738915E-01
     1  0.0000000000000E+00 -1.2189238507432E-10  5.2798659888609E-10
     2  1.0000000000000E-02  5.1104223514086E-02 -2.2891523111531E-02
     3  2.0000000000000E-02  1.0214037244308E-01 -4.5687945758601E-02
     4  3.0000000000000E-02  1.5304058066517E-01 -6.8294912005883E-02
     5  4.0000000000000E-02  2.0373739670814E-01 -9.0619544885486E-02
     6  5.0000000000000E-02  2.5416398541293E-01 -1.1257116078981E-01
     7  6.0000000000000E-02  3.0425432289167E-01 -1.3406195413507E-01
     8  7.0000000000000E-02  3.5394338268972E-01 -1.5500764301345E-01
     9  8.0000000000000E-02  4.0316731118358E-01 -1.7532806708009E-01
    10  9.0000000000000E-02  4.5186359039569E-01 -1.9494772956829E-01
    11  1.0000000000000E-01  4.9997118658238E-01 -2.1379627608594E-01
    12  1.1000000000000E-01  5.4743068314975E-01 -2.3180890370682E-01
    13  1.2000000000000E-01  5.9418439667146E-01 -2.4892669482301E-01
    14  1.3000000000000E-01  6.4017647501997E-01 -2.6509687125596E-01
    15  1.4000000000000E-01  6.8535297687504E-01 -2.8027296522168E-01
    16  1.5000000000000E-01  7.2966193213755E-01 -2.9441490489567E-01
    17  1.6000000000000E-01  7.7305338304881E-01 -3.0748901351105E-01
    18  1.7000000000000E-01  8.1547940609295E-01 -3.1946792213386E-01
    19  1.8000000000000E-01  8.5689411503797E-01 -3.3033039747731E-01
    20  1.9000000000000E-01  8.9725364574660E-01 -3.4006108732565E-01
    21  2.0000000000000E-01  9.3651612365754E-01 -3.4865018732319E-01
    22  2.1000000000000E-01  9.7464161509684E-01 -3.5609303402901E-01
    23  2.2000000000000E-01  1.0115920638252E+00 -3.6238963022767E-01
    24  2.3000000000000E-01  1.0473312144557E+00 -3.6754410950723E-01
    25  2.4000000000000E-01  1.0818245245864E+00 -3.7156414805264E-01
    26  2.5000000000000E-01  1.1150390676758E+00 -3.7446033244384E-01
    27  2.6000000000000E-01  1.1469434288523E+00 -3.7624549298050E-01
    28  2.7000000000000E-01  1.1775075959775E+00 -3.7693401266982E-01
    29  2.8000000000000E-01  1.2067028483866E+00 -3.7654112249965E-01
    30  2.9000000000000E-01  1.2345016457956E+00 -3.7508219397009E-01
    31  3.0000000000000E-01  1.2608775199049E+00 -3.7257204006479E-01
    32  3.1000000000000E-01  1.2858049712236E+00 -3.6902423590597E-01
    33  3.2000000000000E-01  1.3092593736106E+00 -3.6445047024987E-01
    34  3.3000000000000E-01  1.3312168889545E+00 -3.5885993874289E-01
    35  3.4000000000000E-01  1.3516543943123E+00 -3.5225878947203E-01
    36  3.5000000000000E-01  1.3705494236867E+00 -3.4464963081221E-01
    37  3.6000000000000E-01  1.3878801264519E+00 -3.3603111089770E-01
    38  3.7000000000000E-01  1.4036252442304E+00 -3.2639757723680E-01
    39  3.8000000000000E-01  1.4177641077973E+00 -3.1573882405233E-01
    40  3.9000000000000E-01  1.4302766553202E+00 -3.0403993387646E-01
    41  4.0000000000000E-01  1.4411434729679E+00 -2.9128121877018E-01
    42  4.1000000000000E-01  1.4503458586088E+00 -2.7743826528414E-01
    43  4.2000000000000E-01  1.4578659090012E+00 -2.6248208594759E-01
    44  4.3000000000000E-01  1.4636866305404E+00 -2.4637937867743E-01
    45  4.4000000000000E-01  1.4677920732802E+00 -2.2909289405785E-01
    46  4.5000000000000E-01  1.4701674875952E+00 -2.1058190897042E-01
    47  4.6000000000000E-01  1.4707995024962E+00 -1.9080280357127E-01
    48  4.7000000000000E-01  1.4696763242600E+00 -1.6970973713551E-01
    49  4.8000000000000E-01  1.4667879536914E+00 -1.4725541683695E-01
    50  4.9000000000000E-01  1.4621264200044E+00 -1.2339195212366E-01
    51  5.0000000000000E-01  1.4556860289938E+00 -9.8071786001612E-02
    52  5.1000000000000E-01  1.4474636228711E+00 -7.1248693272602E-02
    53  5.2000000000000E-01  1.4374588488736E+00 -4.2878834600477E-02
    54  5.3000000000000E-01  1.4256744335058E+00 -1.2921854221666E-02
    55  5.4000000000000E-01  1.4121164590697E+00  1.8657991813815E-02
    56  5.5000000000000E-01  1.3967946389590E+00  5.1890690774579E-02
    57  5.6000000000000E-01  1.3797225880612E+00  8.6799326290650E-02
    58  5.7000000000000E-01  1.3609180845105E+00  1.2339894431431E-01
    59  5.8000000000000E-01  1.3404033189856E+00  1.6169544730219E-01
    60  5.9000000000000E-01  1.3182051277335E+00  2.0168453203732E-01
    61  6.0000000000000E-01  1.2943552055426E+00  2.4335068643840E-01
    62  6.1000000000000E-01  1.2688902949639E+00  2.8666626044499E-01
    63  6.2000000000000E-01  1.2418523482168E+00  3.3159062561839E-01
    64  6.3000000000000E-01  1.2132886583829E+00  3.7806943746186E-01
    65  6.4000000000000E-01  1.1832519567173E+00  4.2603401364459E-01
    66  6.5000000000000E-01  1.1518004731645E+00  4.7540084031591E-01
    67  6.6000000000000E-01  1.1189979574743E+00  5.2607121753076E-01
    68  6.7000000000000E-01  1.0849136586508E+00  5.7793105348221E-01
    69  6.8000000000000E-01  1.0496222608492E+00  6.3085081576603E-01
    70  6.9000000000000E-01  1.0132037742413E+00  6.8468564630134E-01
    71  7.0000000000000E-01  9.7574337980836E-01  7.3927564481313E-01
    72  7.1000000000000E-01  9.3733122748017E-01  7.9444632397025E-01
    73  7.2000000000000E-01  8.9806218751651E-01  8.5000923738027E-01
    74  7.3000000000000E-01  8.5803555551993E-01  9.0576277969583E-01
    75  7.4000000000000E-01  8.1735471196705E-01  9.6149315610433E-01
    76  7.5000000000000E-01  7.7612673764865E-01  1.0169755164779E+00
    77  7.6000000000000E-01  7.3446198690652E-01  1.0719752474774E+00
    78  7.7000000000000E-01  6.9247362104572E-01  1.1262494139540E+00
    79  7.8000000000000E-01  6.5027710477523E-01  1.1795483390996E+00
    80  7.9000000000000E-01  6.0798966898539E-01  1.2316173109871E+00
    81  8.0000000000000E-01  5.6572974359915E-01  1.2821984014306E+00
    82  8.1000000000000E-01  5.2361636463217E-01  1.3310323815156E+00
    83  8.2000000000000E-01  4.8176855995869E-01  1.3778607167067E+00
    84  8.3000000000000E-01  4.4030471860083E-01  1.4224276231698E+00
    85  8.4000000000000E-01  3.9934194863485E-01  1.4644821658528E+00
    86  8.5000000000000E-01  3.5899542903473E-01  1.5037803779736E+00
    87  8.6000000000000E-01  3.1937776094787E-01  1.5400873808841E+00
    88  8.7000000000000E-01  2.8059832401664E-01  1.5731794828168E+00
    89  8.8000000000000E-01  2.4276264342205E-01  1.6028462347935E+00
    90  8.9000000000000E-01  2.0597177332775E-01  1.6288924219874E+00
    91  9.0000000000000E-01  1.7032170234650E-01  1.6511399690791E+00
    92  9.1000000000000E-01  1.3590278653300E-01  1.6694297386449E+00
    93  9.2000000000000E-01  1.0279921523060E-01  1.6836232023511E+00
    94  9.3000000000000E-01  7.1088514863094E-02  1.6936039657013E+00
    95  9.4000000000000E-01  4.0841095470295E-02  1.6992791282833E+00
    96  9.5000000000000E-01  1.2119844438591E-02  1.7005804628859E+00
    97  9.6000000000000E-01 -1.5020228520702E-02  1.6974653984798E+00
    98  9.7000000000000E-01 -4.0532291538921E-02  1.6899177938718E+00
    99  9.8000000000000E-01 -6.4377932786777E-02  1.6779484908340E+00
   100  9.9000000000000E-01 -8.6527342111552E-02  1.6615956376461E+00
   101  1.0000000000000E+00 -1.0695943008707E-01  1.6409247762599E+00
   102  1.0100000000000E+00 -1.2566188303740E-01  1.6160286886746E+00
   103  1.0200000000000E+00 -1.4263115320442E-01  1.5870270005620E+00
   104  1.0300000000000E+00 -1.5787238385342E-01  1.5540655426953E+00
   105  1.0400000000000E+00 -1.7139926974257E-01  1.5173154732653E+00
   106  1.0500000000000E+00 -1.8323385401517E-01  1.4769721667062E+00
   107  1.0600000000000E+00 -1.9340626319911E-01  1.4332538771457E+00
   108  1.0700000000000E+00 -2.0195438261251E-01  1.3864001870399E+00
   109  1.0800000000000E+00 -2.0892347506677E-01  1.3366702539023E+00
   110  1.0900000000000E+00 -2.1436574632531E-01  1.2843408702687E+00
   111  1.1000000000000E+00 -2.1833986130908E-01  1.2297043541342E+00
   112  1.1100000000000E+00 -2.2091041553330E-01  1.1730662890159E+00
   113  1.1200000000000E+00 -2.2214736670828E-01  1.1147431345310E+00
   114  1.1300000000000E+00 -2.2212543183376E-01  1.0550597298873E+00
   115  1.1400000000000E+00 -2.2092345545863E-01  9.9434671397471E-01
   116  1.1500000000000E+00 -2.1862375505899E-01  9.3293788676829E-01
   117  1.1600000000000E+00 -2.1531144970627E-01  8.7116753752867E-01
   118  1.1700000000000E+00 -2.1107377834912E-01  8.0936776576907E-01
   119  1.1800000000000E+00 -2.0599941411608E-01  7.4786582116813E-01
   120  1.1900000000000E+00 -2.0017778106014E-01  6.8698148852276E-01
   121  1.2000000000000E+00 -1.9369837970941E-01  6.2702454345982E-01
   122  1.2100000000000E+00 -1.8665012766078E-01  5.6829230395979E-01
   123  1.2200000000000E+00 -1.7912072125825E-01  5.1106730179852E-01
   124  1.2300000000000E+00 -1.7119602413248E-01  4.5561509678052E-01
   125  1.2400000000000E+00 -1.6295948805138E-01  4.0218225515253E-01
   126  1.2500000000000E+00 -1.5449161114076E-01  3.5099451183849E-01
   127  1.2600000000000E+00 -1.4586943808626E-01  3.0225513415957E-01
   128  1.2700000000000E+00 -1.3716610643048E-01  2.5614350252531E-01
   129  1.2800000000000E+00 -1.2845044252970E-01  2.1281392119188E-01
   130  1.2900000000000E+00 -1.1978661014716E-01  1.7239466964714E-01
   131  1.3000000000000E+00 -1.1123381403983E-01  1.3498730251299E-01
   132  1.3100000000000E+00 -1.0284606024124E-01  1.0066620305703E-01
   133  1.3200000000000E+00 -9.4671974074547E-02  6.9478392552168E-02
   134  1.3300000000000E+00 -8.6754676246368E-02  4.1443594820934E-02
   135  1.3400000000000E+00 -7.9131716682369E-02  1.6554552378314E-02
   136  1.3500000000000E+00 -7.1835065079255E-02 -5.2224123074971E-03
   137  1.3600000000000E+00 -6.4891156472153E-02 -2.3946599760517E-02
   138  1.3700000000000E+00 -5.8320989460771E-02 -3.9701912720677E-02
   139  1.3800000000000E+00 -5.2140274103314E-02 -5.2595626367749E-02
   140  1.3900000000000E+00 -4.6359625890574E-02 -6.2756966749322E-02
   141  1.4000000000000E+00 -4.0984801653405E-02 -7.0335516932433E-02
   142  1.4100000000000E+00 -3.6016972745374E-02 -7.5499472504607E-02
   143  1.4200000000000E+00 -3.1453030382765E-02 -7.8433769930877E-02
   144  1.4300000000000E+00 -2.7285917621934E-02 -7.9338112903831E-02
   145  1.4400000000000E+00 -2.3504982115809E-02 -7.8424923178800E-02
   146  1.4500000000000E+00 -2.0096343518545E-02 -7.5917243458610E-02
   147  1.4600000000000E+00 -1.7043269204681E-02 -7.2046620663651E-02
   148  1.4700000000000E+00 -1.4326551839013E-02 -6.7050998383394E-02
   149  1.4800000000000E+00 -1.1924881250638E-02 -6.1172653143721E-02
   150  1.4900000000000E+00 -9.8152126590881E-03 -5.4656155503159E-02
   151  1.5000000000000E+00 -7.9730914437069E-03 -4.7746568179731E-02
   152  1.5100000000000E+00 -6.3733739447167E-03 -4.0685460015848E-02
   153  1.5200000000000E+00 -4.9928093069002E-03 -3.3696653781131E-02
   154  1.5300000000000E+00 -3.8121029246451E-03 -2.6979872155223E-02
   155  1.5400000000000E+00 -2.8171669204191E-03 -2.0707484710266E-02
   156  1.5500000000000E+00 -1.9905238290620E-03 -1.5046357211426E-02
   157  1.5600000000000E+00 -1.3177974010994E-03 -1.0140653113376E-02
   158  1.5700000000000E+00 -7.8788758963701E-04 -6.1115508474037E-03
   159  1.5800000000000E+00 -3.9437933415095E-04 -3.0530466423089E-03
   160  1.5900000000000E+00 -1.3341070969889E-04 -1.0210000297100E-03
   161  1.6000000000000E+00 -1.3539822760397E-05 -1.0118276205993E-04
   162  1.6100000000000E+00  2.4137826307803E-06  1.7967380029887E-05
   163  1.6200000000000E+00 -7.6079397845059E-07 -5.7278024884706E-06
   164  1.63  0.  0.
   165  1.64  0. -0.
   166  1.65  0.  0.
   167  1.66  0.  0.
   168  1.67  0.  0.
   169  1.68  0.  0.
   170  1.69  0.  0.
   171  1.70  0.  0.
   172  1.71  0.  0.
   173  1.72  0.  0.
   174  1.73  0.  0.
   175  1.74  0.  0.
   176  1.75  0.  0.
   177  1.76  0.  0.
   178  1.77  0.  0.
   179  1.78  0.  0.
   180  1.79  0.  0.
   181  1.80  0.  0.
   182  1.81  0.  0.
   183  1.82  0.  0.
   184  1.83  0.  0.
   185  1.84  0.  0.
   186  1.85  0.  0.
   187  1.86  0.  0.
   188  1.87  0.  0.
   189  1.88  0.  0.
   190  1.89  0.  0.
   191  1.90  0.  0.
   192  1.91  0.  0.
   193  1.92  0.  0.
   194  1.93  0.  0.
   195  1.94  0.  0.
   196  1.95  0.  0.
   197  1.96  0.  0.
   198  1.97  0.  0.
   199  1.98  0.  0.
   200  1.99  0.  0.
   201  2.00  0.  0.
   202  2.01  0.  0.
   203  2.02  0.  0.
   204  2.03  0.  0.
   205  2.04  0.  0.
   206  2.05  0.  0.
   207  2.06  0.  0.
   208  2.07  0.  0.
   209  2.08  0.  0.
   210  2.09  0.  0.
   211  2.10  0.  0.
   212  2.11  0.  0.
   213  2.12  0.  0.
   214  2.13  0.  0.
   215  2.14  0.  0.
   216  2.15  0.  0.
   217  2.16  0.  0.
   218  2.17  0.  0.
   219  2.18  0.  0.
   220  2.19  0.  0.
   221  2.20  0.  0.
   222  2.21  0.  0.
   223  2.22  0.  0.
   224  2.23  0.  0.
   225  2.24  0.  0.
   226  2.25  0.  0.
   227  2.26  0.  0.
   228  2.27  0.  0.
   229  2.28  0.  0.
   230  2.29  0.  0.
   231  2.30  0.  0.
   232  2.31  0.  0.
   233  2.32  0.  0.
   234  2.33  0.  0.
   235  2.34  0.  0.
   236  2.35  0.  0.
   237  2.36  0.  0.
   238  2.37  0.  0.
   239  2.38  0.  0.
   240  2.39  0.  0.
   241  2.40  0.  0.
   242  2.41  0.  0.
   243  2.42  0.  0.
   244  2.43  0.  0.
   245  2.44  0.  0.
   246  2.45  0.  0.
   247  2.46  0.  0.
   248  2.47  0.  0.
   249  2.48  0.  0.
   250  2.49  0.  0.
   251  2.50  0.  0.
   252  2.51  0.  0.
   253  2.52  0.  0.
   254  2.53  0.  0.
   255  2.54  0.  0.
   256  2.55  0.  0.
   257  2.56  0.  0.
   258  2.57  0.  0.
   259  2.58  0.  0.
   260  2.59  0.  0.
   261  2.60  0.  0.
   262  2.61  0.  0.
   263  2.62  0.  0.
   264  2.63  0.  0.
   265  2.64  0.  0.
   266  2.65  0.  0.
   267  2.66  0.  0.
   268  2.67  0.  0.
   269  2.68  0.  0.
   270  2.69  0.  0.
   271  2.70  0.  0.
   272  2.71  0.  0.
   273  2.72  0.  0.
   274  2.73  0.  0.
   275  2.74  0.  0.
   276  2.75  0.  0.
   277  2.76  0.  0.
   278  2.77  0.  0.
   279  2.78  0.  0.
   280  2.79  0.  0.
   281  2.80  0.  0.
   282  2.81  0.  0.
   283  2.82  0.  0.
   284  2.83  0.  0.
   285  2.84  0.  0.
   286  2.85  0.  0.
   287  2.86  0.  0.
   288  2.87  0.  0.
   289  2.88  0.  0.
   290  2.89  0.  0.
   291  2.90  0.  0.
   292  2.91  0.  0.
   293  2.92  0.  0.
   294  2.93  0.  0.
   295  2.94  0.  0.
   296  2.95  0.  0.
   297  2.96  0.  0.
   298  2.97  0.  0.
   299  2.98  0.  0.
   300  2.99  0.  0.
   301  3.00  0.  0.
   302  3.01  0.  0.
   303  3.02  0.  0.
   304  3.03  0.  0.
   305  3.04  0.  0.
   306  3.05  0.  0.
   307  3.06  0.  0.
   308  3.07  0.  0.
   309  3.08  0.  0.
   310  3.09  0.  0.
   311  3.10  0.  0.
   312  3.11  0.  0.
   313  3.12  0.  0.
   314  3.13  0.  0.
   315  3.14  0.  0.
   316  3.15  0.  0.
   317  3.16  0.  0.
   318  3.17  0.  0.
   319  3.18  0.  0.
   320  3.19  0.  0.
   321  3.20  0.  0.
   322  3.21  0.  0.
   323  3.22  0.  0.
   324  3.23  0.  0.
   325  3.24  0.  0.
   326  3.25  0.  0.
   327  3.26  0.  0.
   328  3.27  0.  0.
   329  3.28  0.  0.
   330  3.29  0.  0.
   331  3.30  0.  0.
   332  3.31  0.  0.
   333  3.32  0.  0.
   334  3.33  0.  0.
   335  3.34  0.  0.
   336  3.35  0.  0.
   337  3.36  0.  0.
   338  3.37  0.  0.
   339  3.38  0.  0.
   340  3.39  0.  0.
   341  3.40  0.  0.
   342  3.41  0.  0.
   343  3.42  0.  0.
   344  3.43  0.  0.
   345  3.44  0.  0.
   346  3.45  0.  0.
   347  3.46  0.  0.
   348  3.47  0.  0.
   349  3.48  0.  0.
   350  3.49  0.  0.
   351  3.50  0.  0.
   352  3.51  0.  0.
   353  3.52  0.  0.
   354  3.53  0.  0.
   355  3.54  0.  0.
   356  3.55  0.  0.
   357  3.56  0.  0.
   358  3.57  0.  0.
   359  3.58  0.  0.
   360  3.59  0.  0.
   361  3.60  0.  0.
   362  3.61  0.  0.
   363  3.62  0.  0.
   364  3.63  0.  0.
   365  3.64  0.  0.
   366  3.65  0.  0.
   367  3.66  0.  0.
   368  3.67  0.  0.
   369  3.68  0.  0.
   370  3.69  0.  0.
   371  3.70  0.  0.
   372  3.71  0.  0.
   373  3.72  0.  0.
   374  3.73  0.  0.
   375  3.74  0.  0.
   376  3.75  0.  0.
   377  3.76  0.  0.
   378  3.77  0.  0.
   379  3.78  0.  0.
   380  3.79  0.  0.
   381  3.80  0.  0.
   382  3.81  0.  0.
   383  3.82  0.  0.
   384  3.83  0.  0.
   385  3.84  0.  0.
   386  3.85  0.  0.
   387  3.86  0.  0.
   388  3.87  0.  0.
   389  3.88  0.  0.
   390  3.89  0.  0.
   391  3.90  0.  0.
   392  3.91  0.  0.
   393  3.92  0.  0.
   394  3.93  0.  0.
   395  3.94  0.  0.
   396  3.95  0.  0.
   397  3.96  0.  0.
   398  3.97  0.  0.
   399  3.98  0.  0.
   400  3.99  0.  0.
   401  4.00  0.  0.
   402  4.01  0.  0.
   403  4.02  0.  0.
   404  4.03  0.  0.
   405  4.04  0.  0.
   406  4.05  0.  0.
   407  4.06  0.  0.
   408  4.07  0.  0.
   409  4.08  0.  0.
   410  4.09  0.  0.
   411  4.10  0.  0.
   412  4.11  0.  0.
   413  4.12  0.  0.
   414  4.13  0.  0.
   415  4.14  0.  0.
   416  4.15  0.  0.
   417  4.16  0.  0.
   418  4.17  0.  0.
   419  4.18  0.  0.
   420  4.19  0.  0.
   421  4.20  0.  0.
   422  4.21  0.  0.
   423  4.22  0.  0.
   424  4.23  0.  0.
   425  4.24  0.  0.
   426  4.25  0.  0.
   427  4.26  0.  0.
   428  4.27  0.  0.
   429  4.28  0.  0.
   430  4.29  0.  0.
   431  4.30  0.  0.
   432  4.31  0.  0.
   433  4.32  0.  0.
   434  4.33  0.  0.
   435  4.34  0.  0.
   436  4.35  0.  0.
   437  4.36  0.  0.
   438  4.37  0.  0.
   439  4.38  0.  0.
   440  4.39  0.  0.
   441  4.40  0.  0.
   442  4.41  0.  0.
   443  4.42  0.  0.
   444  4.43  0.  0.
   445  4.44  0.  0.
   446  4.45  0.  0.
   447  4.46  0.  0.
   448  4.47  0.  0.
   449  4.48  0.  0.
   450  4.49  0.  0.
   451  4.50  0.  0.
   452  4.51  0.  0.
   453  4.52  0.  0.
   454  4.53  0.  0.
   455  4.54  0.  0.
   456  4.55  0.  0.
   457  4.56  0.  0.
   458  4.57  0.  0.
   459  4.58  0.  0.
   460  4.59  0.  0.
   461  4.60  0.  0.
   462  4.61  0.  0.
   463  4.62  0.  0.
   464  4.63  0.  0.
   465  4.64  0.  0.
   466  4.65  0.  0.
   467  4.66  0.  0.
   468  4.67  0.  0.
   469  4.68  0.  0.
   470  4.69  0.  0.
   471  4.70  0.  0.
   472  4.71  0.  0.
   473  4.72  0.  0.
   474  4.73  0.  0.
   475  4.74  0.  0.
   476  4.75  0.  0.
   477  4.76  0.  0.
   478  4.77  0.  0.
   479  4.78  0.  0.
   480  4.79  0.  0.
   481  4.80  0.  0.
   482  4.81  0.  0.
   483  4.82  0.  0.
   484  4.83  0.  0.
   485  4.84  0.  0.
   486  4.85  0.  0.
   487  4.86  0.  0.
   488  4.87  0.  0.
   489  4.88  0.  0.
   490  4.89  0.  0.
   491  4.90  0.  0.
   492  4.91  0.  0.
   493  4.92  0.  0.
   494  4.93  0.  0.
   495  4.94  0.  0.
   496  4.95  0.  0.
   497  4.96  0.  0.
   498  4.97  0.  0.
   499  4.98  0.  0.
   500  4.99  0.  0.
   501  5.00  0.  0.
   502  5.01  0.  0.
   503  5.02  0.  0.
   504  5.03  0.  0.
   505  5.04  0.  0.
   506  5.05  0.  0.
   507  5.06  0.  0.
   508  5.07  0.  0.
   509  5.08  0.  0.
   510  5.09  0.  0.
   511  5.10  0.  0.
   512  5.11  0.  0.
   513  5.12  0.  0.
   514  5.13  0.  0.
   515  5.14  0.  0.
   516  5.15  0.  0.
   517  5.16  0.  0.
   518  5.17  0.  0.
   519  5.18  0.  0.
   520  5.19  0.  0.
   521  5.20  0.  0.
   522  5.21  0.  0.
   523  5.22  0.  0.
   524  5.23  0.  0.
   525  5.24  0.  0.
   526  5.25  0.  0.
   527  5.26  0.  0.
   528  5.27  0.  0.
   529  5.28  0.  0.
   530  5.29  0.  0.
   531  5.30  0.  0.
   532  5.31  0.  0.
   533  5.32  0.  0.
   534  5.33  0.  0.
   535  5.34  0.  0.
   536  5.35  0.  0.
   537  5.36  0.  0.
   538  5.37  0.  0.
   539  5.38  0.  0.
   540  5.39  0.  0.
   541  5.40  0.  0.
   542  5.41  0.  0.
   543  5.42  0.  0.
   544  5.43  0.  0.
   545  5.44  0.  0.
   546  5.45  0.  0.
   547  5.46  0.  0.
   548  5.47  0.  0.
   549  5.48  0.  0.
   550  5.49  0.  0.
   551  5.50  0.  0.
   552  5.51  0.  0.
   553  5.52  0.  0.
   554  5.53  0.  0.
   555  5.54  0.  0.
   556  5.55  0.  0.
   557  5.56  0.  0.
   558  5.57  0.  0.
   559  5.58  0.  0.
   560  5.59  0.  0.
   561  5.60  0.  0.
   562  5.61  0.  0.
   563  5.62  0.  0.
   564  5.63  0.  0.
   565  5.64  0.  0.
   566  5.65  0.  0.
   567  5.66  0.  0.
   568  5.67  0.  0.
   569  5.68  0.  0.
   570  5.69  0.  0.
   571  5.70  0.  0.
   572  5.71  0.  0.
   573  5.72  0.  0.
   574  5.73  0.  0.
   575  5.74  0.  0.
   576  5.75  0.  0.
   577  5.76  0.  0.
   578  5.77  0.  0.
   579  5.78  0.  0.
   580  5.79  0.  0.
   581  5.80  0.  0.
   582  5.81  0.  0.
   583  5.82  0.  0.
   584  5.83  0.  0.
   585  5.84  0.  0.
   586  5.85  0.  0.
   587  5.86  0.  0.
   588  5.87  0.  0.
   589  5.88  0.  0.
   590  5.89  0.  0.
   591  5.90  0.  0.
   592  5.91  0.  0.
   593  5.92  0.  0.
   594  5.93  0.  0.
   595  5.94  0.  0.
   596  5.95  0.  0.
   597  5.96  0.  0.
   598  5.97  0.  0.
   599  5.98  0.  0.
   600  5.99  0.  0.
   1                         5.7448174194776E+00  4.6140399533791E-01
     1  0.0000000000000E+00 -4.6516913099204E-09  2.2806196882386E-08
     2  1.0000000000000E-02  1.1879895369467E-03 -2.2361482863256E-04
     3  2.0000000000000E-02  4.7511153895380E-03 -9.0757256386237E-04
     4  3.0000000000000E-02  1.0686759368451E-02 -2.0907195699463E-03
     5  4.0000000000000E-02  1.8990261112253E-02 -3.8361697914418E-03
     6  5.0000000000000E-02  2.9654483440486E-02 -6.2289105023053E-03
     7  6.0000000000000E-02  4.2669224378516E-02 -9.3725503534690E-03
     8  7.0000000000000E-02  5.8020495662986E-02 -1.3385306292144E-02
     9  8.0000000000000E-02  7.5689692188412E-02 -1.8395348732294E-02
    10  9.0000000000000E-02  9.5652680791092E-02 -2.4535643759288E-02
    11  1.0000000000000E-01  1.1787883986969E-01 -3.1938446596238E-02
    12  1.1000000000000E-01  1.4233008352019E-01 -4.0729611601124E-02
    13  1.2000000000000E-01  1.6895990505011E-01 -5.1022890382523E-02
    14  1.3000000000000E-01  1.9771247489588E-01 -6.2914391029331E-02
    15  1.4000000000000E-01  2.2852182708869E-01 -7.6477367900211E-02
    16  1.5000000000000E-01  2.6131116652119E-01 -9.1757502999879E-02
    17  1.6000000000000E-01  2.9599232640938E-01 -1.0876882691407E-01
    18  1.7000000000000E-01  3.3246540159995E-01 -1.2749040994088E-01
    19  1.8000000000000E-01  3.7061857884798E-01 -1.4786393292684E-01
    20  1.9000000000000E-01  4.1032818000896E-01 -1.6979222297950E-01
    21  2.0000000000000E-01  4.5145892839910E-01 -1.9313881236731E-01
    22  2.1000000000000E-01  4.9386444254005E-01 -2.1772855028427E-01
    23  2.2000000000000E-01  5.3738795528898E-01 -2.4334926755761E-01
    24  2.3000000000000E-01  5.8186325013989E-01 -2.6975446464490E-01
    25  2.4000000000000E-01  6.2711580044498E-01 -2.9666696424197E-01
    26  2.5000000000000E-01  6.7296409161750E-01 -3.2378344232712E-01
    27  2.6000000000000E-01  7.1922110120512E-01 -3.5077972627937E-01
    28  2.7000000000000E-01  7.6569590721336E-01 -3.7731672654702E-01
    29  2.8000000000000E-01  8.1219539134406E-01 -4.0304684984104E-01
    30  2.9000000000000E-01  8.5852600100272E-01 -4.2762072751730E-01
    31  3.0000000000000E-01  9.0449553210449E-01 -4.5069408310967E-01
    32  3.1000000000000E-01  9.4991489392699E-01 -4.7193455816735E-01
    33  3.2000000000000E-01  9.9459981754623E-01 -4.9102831578770E-01
    34  3.3000000000000E-01  1.0383724707439E+00 -5.0768624652630E-01
    35  3.4000000000000E-01  1.0810629446582E+00 -5.2164961157804E-01
    36  3.5000000000000E-01  1.1225105807997E+00 -5.3269497298441E-01
    37  3.6000000000000E-01  1.1625651112795E+00 -5.4063827972885E-01
    38  3.7000000000000E-01  1.2010875900808E+00 -5.4533800141266E-01
    39  3.8000000000000E-01  1.2379510988082E+00 -5.4669722712686E-01
    40  3.9000000000000E-01  1.2730412164174E+00 -5.4466467543447E-01
    41  4.0000000000000E-01  1.3062562487843E+00 -5.3923459126527E-01
    42  4.1000000000000E-01  1.3375072204493E+00 -5.3044553616713E-01
    43  4.2000000000000E-01  1.3667176372681E+00 -5.1837810889864E-01
    44  4.3000000000000E-01  1.3938230348565E+00 -5.0315166292866E-01
    45  4.4000000000000E-01  1.4187703334314E+00 -4.8492011519782E-01
    46  4.5000000000000E-01  1.4415170247831E+00 -4.6386696571009E-01
    47  4.6000000000000E-01  1.4620302214995E+00 -4.4019966944388E-01
    48  4.7000000000000E-01  1.4802856020877E+00 -4.1414352007815E-01
    49  4.8000000000000E-01  1.4962662881835E+00 -3.8593521860123E-01
    50  4.9000000000000E-01  1.5099616915478E+00 -3.5581630861642E-01
    51  5.0000000000000E-01  1.5213663689568E+00 -3.2402666381714E-01
    52  5.1000000000000E-01  1.5304789223951E+00 -2.9079821155924E-01
    53  5.2000000000000E-01  1.5373009801726E+00 -2.5634906973468E-01
    54  5.3000000000000E-01  1.5418362917479E+00 -2.2087826242458E-01
    55  5.4000000000000E-01  1.5440899652407E+00 -1.8456116339165E-01
    56  5.5000000000000E-01  1.5440678719507E+00 -1.4754579581137E-01
    57  5.6000000000000E-01  1.5417762368039E+00 -1.0995009230301E-01
    58  5.7000000000000E-01  1.5372214276741E+00 -7.1860191979007E-02
    59  5.8000000000000E-01  1.5304099501421E+00 -3.3329821642225E-02
    60  5.9000000000000E-01  1.5213486476460E+00  5.6192227501229E-03
    61  6.0000000000000E-01  1.5100451003259E+00  4.4995509802443E-02
    62  6.1000000000000E-01  1.4965082093772E+00  8.4835368258669E-02
    63  6.2000000000000E-01  1.4807489475740E+00  1.2519932114821E-01
    64  6.3000000000000E-01  1.4627812510032E+00  1.6616766317191E-01
    65  6.4000000000000E-01  1.4426230221141E+00  2.0783531111285E-01
    66  6.5000000000000E-01  1.4202972100932E+00  2.5030607859946E-01
    67  6.6000000000000E-01  1.3958329314442E+00  2.9368654390155E-01
    68  6.7000000000000E-01  1.3692665915809E+00  3.3807969209973E-01
    69  6.8000000000000E-01  1.3406429673047E+00  3.8357852055884E-01
    70  6.9000000000000E-01  1.3100162102659E+00  4.3025979892512E-01
    71  7.0000000000000E-01  1.2774507329104E+00  4.7817817176544E-01
    72  7.1000000000000E-01  1.2430219409586E+00  5.2736078354156E-01
    73  7.2000000000000E-01  1.2068167800884E+00  5.7780259207614E-01
    74  7.3000000000000E-01  1.1689340691121E+00  6.2946251837674E-01
    75  7.4000000000000E-01  1.1294845974140E+00  6.8226055813298E-01
    76  7.5000000000000E-01  1.0885909706238E+00  7.3607595400350E-01
    77  7.6000000000000E-01  1.0463871952460E+00  7.9074649867883E-01
    78  7.7000000000000E-01  1.0030180000910E+00  8.4606900745053E-01
    79  7.8000000000000E-01  9.5863789963296E-01  9.0180096649862E-01
    80  7.9000000000000E-01  9.1341001167404E-01  9.5766333023129E-01
    81  8.0000000000000E-01  8.6750464870041E-01  1.0133444086945E+00
    82  8.1000000000000E-01  8.2109770888695E-01  1.0685047552163E+00
    83  8.2000000000000E-01  7.7436889864641E-01  1.1227829359317E+00
    84  8.3000000000000E-01  7.2749982375889E-01  1.1758020374537E+00
    85  8.4000000000000E-01  6.8067199030298E-01  1.2271767474367E+00
    86  8.5000000000000E-01  6.3406475971766E-01  1.2765208257380E+00
    87  8.6000000000000E-01  5.8785330425479E-01  1.3234547718122E+00
    88  8.7000000000000E-01  5.4220660977313E-01  1.3676134872318E+00
    89  8.8000000000000E-01  4.9728557224322E-01  1.4086537310246E+00
    90  8.9000000000000E-01  4.5324123248521E-01  1.4462611699083E+00
    91  9.0000000000000E-01  4.1021319058632E-01  1.4801568353879E+00
    92  9.1000000000000E-01  3.6832823721722E-01  1.5101028148061E+00
    93  9.2000000000000E-01  3.2769923379304E-01  1.5359070234016E+00
    94  9.3000000000000E-01  2.8842426724270E-01  1.5574269287003E+00
    95  9.4000000000000E-01  2.5058609822163E-01  1.5745721264732E+00
    96  9.5000000000000E-01  2.1425191411476E-01  1.5873056982927E+00
    97  9.6000000000000E-01  1.7947339032864E-01  1.5956443135447E+00
    98  9.7000000000000E-01  1.4628705537765E-01  1.5996570727211E+00
    99  9.8000000000000E-01  1.1471494734915E-01  1.5994631229680E+00
   100  9.9000000000000E-01  8.4765541702915E-02  1.5952281102666E+00
   101  1.0000000000000E+00  5.6434923234870E-02  1.5871595643305E+00
   102  1.0100000000000E+00  2.9708168608413E-02  1.5755013414580E+00
   103  1.0200000000000E+00  4.5609003160261E-03  1.5605272763294E+00
   104  1.0300000000000E+00 -1.9039031566687E-02  1.5425342153780E+00
   105  1.0400000000000E+00 -4.1129786806454E-02  1.5218346213043E+00
   106  1.0500000000000E+00 -6.1753740649136E-02  1.4987489500024E+00
   107  1.0600000000000E+00 -8.0955707432539E-02  1.4735980073551E+00
   108  1.0700000000000E+00 -9.8781231308919E-02  1.4466954937944E+00
   109  1.0800000000000E+00 -1.1527499123278E-01  1.4183409392156E+00
   110  1.0900000000000E+00 -1.3047936408923E-01  1.3888132199138E+00
   111  1.1000000000000E+00 -1.4443318533245E-01  1.3583648329323E+00
   112  1.1100000000000E+00 -1.5717074091309E-01  1.3272170821129E+00
   113  1.1200000000000E+00 -1.6872101770032E-01  1.2955563046069E+00
   114  1.1300000000000E+00 -1.7910723229813E-01  1.2635312376448E+00
   115  1.1400000000000E+00 -1.8834665021152E-01  1.2312515933477E+00
   116  1.1500000000000E+00 -1.9645069908097E-01  1.1987878757127E+00
   117  1.1600000000000E+00 -2.0342537124845E-01  1.1661724389296E+00
   118  1.1700000000000E+00 -2.0927190263808E-01  1.1334017515265E+00
   119  1.1800000000000E+00 -2.1398770689857E-01  1.1004397967967E+00
   120  1.1900000000000E+00 -2.1756753632842E-01  1.0672225080736E+00
   121  1.2000000000000E+00 -2.2000483438248E-01  1.0336631081161E+00
   122  1.2100000000000E+00 -2.2129323880051E-01  9.9965819625311E-01
   123  1.2200000000000E+00 -2.2142818974003E-01  9.6509440563878E-01
   124  1.2300000000000E+00 -2.2040859385958E-01  9.2985543650030E-01
   125  1.2400000000000E+00 -2.1823849321648E-01  8.9382926027816E-01
   126  1.2500000000000E+00 -2.1492868714266E-01  8.5691528415676E-01
   127  1.2600000000000E+00 -2.1049825600411E-01  8.1903126601541E-01