Y     ONCVPSP-4.0.1  r_core=   1.60378   1.50164   1.55652
     39.0000     11.0000      250217    zatom,zion,pspd
     8       2   2     4   600     0    pspcod,pspxc,lmax,lloc,mmax,r2well
  5.99000000  4.00000000  0.00000000    rchrg fchrg qchrg
     2     2     2     0    nproj
     3     1           extension_switch
     3     3     0    nprojso
   0                         9.8446324543854E+00  8.1310119391124E-01
     1  0.0000000000000E+00 -1.2143491767702E-10  5.2650928061837E-10
     2  1.0000000000000E-02  5.1070512251666E-02 -2.2868138278594E-02
     3  2.0000000000000E-02  1.0207311906662E-01 -4.5641510376290E-02
     4  3.0000000000000E-02  1.5294012229793E-01 -6.8226091246288E-02
     5  4.0000000000000E-02  2.0360423611275E-01 -9.0529328056476E-02
     6  5.0000000000000E-02  2.5399878751692E-01 -1.1246085129879E-01
     7  6.0000000000000E-02  3.0405791020806E-01 -1.3393315627951E-01
     8  7.0000000000000E-02  3.5371672967763E-01 -1.5486224574327E-01
     9  8.0000000000000E-02  4.0291153760395E-01 -1.7516822490995E-01
    10  9.0000000000000E-02  4.5157995372694E-01 -1.9477584084922E-01
    11  1.0000000000000E-01  4.9966107356982E-01 -2.1361495887407E-01
    12  1.1000000000000E-01  5.4709560057039E-01 -2.3162096949316E-01
    13  1.2000000000000E-01  5.9382596140342E-01 -2.4873512041109E-01
    14  1.3000000000000E-01  6.3979640351150E-01 -2.6490476909373E-01
    15  1.4000000000000E-01  6.8495307411366E-01 -2.8008355251039E-01
    16  1.5000000000000E-01  7.2924408022343E-01 -2.9423147181051E-01
    17  1.6000000000000E-01  7.7261952947964E-01 -3.0731489087740E-01
    18  1.7000000000000E-01  8.1503155186909E-01 -3.1930644890727E-01
    19  1.8000000000000E-01  8.5643430269705E-01 -3.3018488837627E-01
    20  1.9000000000000E-01  8.9678394743610E-01 -3.3993480096264E-01
    21  2.0000000000000E-01  9.3603862935165E-01 -3.4854629517251E-01
    22  2.1000000000000E-01  9.7415842106115E-01 -3.5601459055851E-01
    23  2.2000000000000E-01  1.0111052614280E+00 -3.6233954450676E-01
    24  2.3000000000000E-01  1.0468428794199E+00 -3.6752511858500E-01
    25  2.4000000000000E-01  1.0813367067688E+00 -3.7157879237829E-01
    26  2.5000000000000E-01  1.1145537814541E+00 -3.7451093357659E-01
    27  2.6000000000000E-01  1.1464626441920E+00 -3.7633413380852E-01
    28  2.7000000000000E-01  1.1770332302403E+00 -3.7706252032762E-01
    29  2.8000000000000E-01  1.2062367589347E+00 -3.7671105414108E-01
    30  2.9000000000000E-01  1.2340456234352E+00 -3.7529482551993E-01
    31  3.0000000000000E-01  1.2604332832005E+00 -3.7282835803685E-01
    32  3.1000000000000E-01  1.2853741617057E+00 -3.6932493233913E-01
    33  3.2000000000000E-01  1.3088435518881E+00 -3.6479594077677E-01
    34  3.3000000000000E-01  1.3308175317306E+00 -3.5925028376895E-01
    35  3.4000000000000E-01  1.3512728922941E+00 -3.5269381840669E-01
    36  3.5000000000000E-01  1.3701870803665E+00 -3.4512886925759E-01
    37  3.6000000000000E-01  1.3875381577277E+00 -3.3655381066639E-01
    38  3.7000000000000E-01  1.4033047788259E+00 -3.2696272903729E-01
    39  3.8000000000000E-01  1.4174661884281E+00 -3.1634517264977E-01
    40  3.9000000000000E-01  1.4300022405492E+00 -3.0468599550852E-01
    41  4.0000000000000E-01  1.4408934396820E+00 -2.9196530057163E-01
    42  4.1000000000000E-01  1.4501210050434E+00 -2.7815848645180E-01
    43  4.2000000000000E-01  1.4576669582335E+00 -2.6323640035784E-01
    44  4.3000000000000E-01  1.4635142343681E+00 -2.4716559865269E-01
    45  4.4000000000000E-01  1.4676468163969E+00 -2.2990871496698E-01
    46  4.5000000000000E-01  1.4700498919745E+00 -2.1142493433980E-01
    47  4.6000000000000E-01  1.4707100318924E+00 -1.9167057037927E-01
    48  4.7000000000000E-01  1.4696153887349E+00 -1.7059974096348E-01
    49  4.8000000000000E-01  1.4667559140784E+00 -1.4816513655402E-01
    50  4.9000000000000E-01  1.4621235922222E+00 -1.2431887379060E-01
    51  5.0000000000000E-01  1.4557126881263E+00 -9.9013425691701E-02
    52  5.1000000000000E-01  1.4475200069367E+00 -7.2202618522873E-02
    53  5.2000000000000E-01  1.4375451622085E+00 -4.3842684226758E-02
    54  5.3000000000000E-01  1.4257908496985E+00 -1.3893356253889E-02
    55  5.4000000000000E-01  1.4122631233866E+00  1.7681004294015E-02
    56  5.5000000000000E-01  1.3969716702139E+00  5.0910266082328E-02
    57  5.6000000000000E-01  1.3799300798862E+00  8.5817383029722E-02
    58  5.7000000000000E-01  1.3611561060011E+00  1.2241726283635E-01
    59  5.8000000000000E-01  1.3406719146983E+00  1.6071566382201E-01
    60  5.9000000000000E-01  1.3185043170288E+00  2.0070813545646E-01
    61  6.0000000000000E-01  1.2946849812737E+00  2.4237901789229E-01
    62  6.1000000000000E-01  1.2692506215265E+00  2.8570051555155E-01
    63  6.2000000000000E-01  1.2422431589818E+00  3.3063185936805E-01
    64  6.3000000000000E-01  1.2137098525494E+00  3.7711857165335E-01
    65  6.4000000000000E-01  1.1837033956285E+00  4.2509184673370E-01
    66  6.5000000000000E-01  1.1522819761441E+00  4.7446805951185E-01
    67  6.6000000000000E-01  1.1195092972459E+00  5.2514841294133E-01
    68  6.7000000000000E-01  1.0854545564144E+00  5.7701873407974E-01
    69  6.8000000000000E-01  1.0501923810943E+00  6.2994942691954E-01
    70  6.9000000000000E-01  1.0138027193845E+00  6.8379558859522E-01
    71  7.0000000000000E-01  9.7637068474709E-01  7.3839729385382E-01
    72  7.1000000000000E-01  9.3798635416059E-01  7.9358005086441E-01
    73  7.2000000000000E-01  8.9874451961469E-01  8.4915542955628E-01
    74  7.3000000000000E-01  8.5874439333862E-01  9.0492186173150E-01
    75  7.4000000000000E-01  8.1808926765034E-01  9.6066561021967E-01
    76  7.5000000000000E-01  7.7688613081574E-01  1.0161619023525E+00
    77  7.6000000000000E-01  7.3524524080402E-01  1.0711762210562E+00
    78  7.7000000000000E-01  6.9327965931379E-01  1.1254657449151E+00
    79  7.8000000000000E-01  6.5110474891816E-01  1.1787809266713E+00
    80  7.9000000000000E-01  6.0883763663084E-01  1.2308671978184E+00
    81  8.0000000000000E-01  5.6659664762272E-01  1.2814667852439E+00
    82  8.1000000000000E-01  5.2450071321530E-01  1.3303206242924E+00
    83  8.2000000000000E-01  4.8266875763812E-01  1.3771703511907E+00
    84  8.3000000000000E-01  4.4121906835700E-01  1.4217603565016E+00
    85  8.4000000000000E-01  4.0026865505512E-01  1.4638398801870E+00
    86  8.5000000000000E-01  3.5993260257496E-01  1.5031651279679E+00
    87  8.6000000000000E-01  3.2032342330269E-01  1.5395013879890E+00
    88  8.7000000000000E-01  2.8155041459593E-01  1.5726251263362E+00
    89  8.8000000000000E-01  2.4371902691683E-01  1.6023260397311E+00
    90  8.9000000000000E-01  2.0693024833550E-01  1.6284090437339E+00
    91  9.0000000000000E-01  1.7128001101179E-01  1.6506961750415E+00
    92  9.1000000000000E-01  1.3685862514607E-01  1.6690283869606E+00
    93  9.2000000000000E-01  1.0375024571329E-01  1.6832672178708E+00
    94  9.3000000000000E-01  7.2032377058964E-02  1.6932963134649E+00
    95  9.4000000000000E-01  4.1775420143928E-02  1.6990227847529E+00
    96  9.5000000000000E-01  1.3042266878172E-02  1.7003783852320E+00
    97  9.6000000000000E-01 -1.4112054413623E-02  1.6973204922518E+00
    98  9.7000000000000E-01 -3.9640678797173E-02  1.6898328794117E+00
    99  9.8000000000000E-01 -6.3505146695234E-02  1.6779262688161E+00
   100  9.9000000000000E-01 -8.5675585433189E-02  1.6616386541477E+00
   101  1.0000000000000E+00 -1.0613082834067E-01  1.6410353877832E+00
   102  1.0100000000000E+00 -1.2485846997316E-01  1.6162090275494E+00
   103  1.0200000000000E+00 -1.4185485662539E-01  1.5872789411679E+00
   104  1.0300000000000E+00 -1.5712501193024E-01  1.5543906689396E+00
   105  1.0400000000000E+00 -1.7068249796754E-01  1.5177150477510E+00
   106  1.0500000000000E+00 -1.8254921293768E-01  1.4774471020117E+00
   107  1.0600000000000E+00 -1.9275512707944E-01  1.4338047096248E+00
   108  1.0700000000000E+00 -2.0133795912409E-01  1.3870270535297E+00
   109  1.0800000000000E+00 -2.0834279616848E-01  1.3373728716996E+00
   110  1.0900000000000E+00 -2.1382166041530E-01  1.2851185207076E+00
   111  1.1000000000000E+00 -2.1783302676031E-01  1.2305558700599E+00
   112  1.1100000000000E+00 -2.2044129569793E-01  1.1739900464138E+00
   113  1.1200000000000E+00 -2.2171622646449E-01  1.1157370485241E+00
   114  1.1300000000000E+00 -2.2173233573314E-01  1.0561212552713E+00
   115  1.1400000000000E+00 -2.2056826751672E-01  9.9547285040929E-01
   116  1.1500000000000E+00 -2.1830614021458E-01  9.3412518869325E-01
   117  1.1600000000000E+00 -2.1503087695832E-01  8.7241212881855E-01
   118  1.1700000000000E+00 -2.1082952556207E-01  8.1066535908732E-01
   119  1.1800000000000E+00 -2.0579057446713E-01  7.4921174192588E-01
   120  1.1900000000000E+00 -2.0000327108415E-01  6.8837070329283E-01
   121  1.2000000000000E+00 -1.9355694887949E-01  6.2845169264205E-01
   122  1.2100000000000E+00 -1.8654036942607E-01  5.6975173844143E-01
   123  1.2200000000000E+00 -1.7904108544345E-01  5.1255312330187E-01
   124  1.2300000000000E+00 -1.7114483058862E-01  4.5712120154209E-01
   125  1.2400000000000E+00 -1.6293494143234E-01  4.0370238053231E-01
   126  1.2500000000000E+00 -1.5449181666697E-01  3.5252228541657E-01
   127  1.2600000000000E+00 -1.4589241814468E-01  3.0378412483970E-01
   128  1.2700000000000E+00 -1.3720981784961E-01  2.5766727313200E-01
   129  1.2800000000000E+00 -1.2851279435912E-01  2.1432608202030E-01
   130  1.2900000000000E+00 -1.1986548176420E-01  1.7388893240215E-01
   131  1.3000000000000E+00 -1.1132707340018E-01  1.3645753405751E-01
   132  1.3100000000000E+00 -1.0295158208714E-01  1.0210647837880E-01
   133  1.3200000000000E+00 -9.4787657912196E-02  7.0883046353822E-02
   134  1.3300000000000E+00 -8.6878463905180E-02  4.2807271139711E-02
   135  1.3400000000000E+00 -7.9261609270512E-02  1.7872251649903E-02
   136  1.3500000000000E+00 -7.1969139154759E-02 -3.9552893123114E-03
   137  1.3600000000000E+00 -6.5027579254963E-02 -2.2734211677459E-02
   138  1.3700000000000E+00 -5.8458032919498E-02 -3.8547941536361E-02
   139  1.3800000000000E+00 -5.2276327760402E-02 -5.1503246059523E-02
   140  1.3900000000000E+00 -4.6493208201406E-02 -6.1728817075815E-02
   141  1.4000000000000E+00 -4.1114569828241E-02 -6.9373682787336E-02
   142  1.4100000000000E+00 -3.6141730897757E-02 -7.4605469199783E-02
   143  1.4200000000000E+00 -3.1571735904241E-02 -7.7608534723028E-02
   144  1.4300000000000E+00 -2.7397685700045E-02 -7.8582003025104E-02
   145  1.4400000000000E+00 -2.3609088330597E-02 -7.7737720573464E-02
   146  1.4500000000000E+00 -2.0192224471635E-02 -7.5298166368564E-02
   147  1.4600000000000E+00 -1.7130521154540E-02 -7.1494342143332E-02
   148  1.4700000000000E+00 -1.4404927335665E-02 -6.6563671762738E-02
   149  1.4800000000000E+00 -1.1994283772204E-02 -6.0747944460301E-02
   150  1.4900000000000E+00 -9.8756893747302E-03 -5.4291282242991E-02
   151  1.5000000000000E+00 -8.0248237961698E-03 -4.7438346323559E-02
   152  1.5100000000000E+00 -6.4166708681601E-03 -4.0430330403758E-02
   153  1.5200000000000E+00 -5.0281162788829E-03 -3.3490606661323E-02
   154  1.5300000000000E+00 -3.8399936588974E-03 -2.6818459148076E-02
   155  1.5400000000000E+00 -2.8383379458093E-03 -2.0585828245478E-02
   156  1.5500000000000E+00 -2.0057783510489E-03 -1.4959224881787E-02
   157  1.5600000000000E+00 -1.3279774372987E-03 -1.0082729511340E-02
   158  1.5700000000000E+00 -7.9398500162375E-04 -6.0769670818694E-03
   159  1.5800000000000E+00 -3.9740722744639E-04 -3.0358985068140E-03
   160  1.5900000000000E+00 -1.3441534095421E-04 -1.0153034876413E-03
   161  1.6000000000000E+00 -1.3631503197918E-05 -1.0064400124225E-04
   162  1.6100000000000E+00  2.4341540776332E-06  1.7858511006445E-05
   163  1.6200000000000E+00 -7.6704138541992E-07 -5.6939049635267E-06
   164  1.63  0.  0.
   165  1.64  0.  0.
   166  1.65  0.  0.
   167  1.66  0.  0.
   168  1.67  0.  0.
   169  1.68  0.  0.
   170  1.69  0.  0.
   171  1.70  0.  0.
   172  1.71  0.  0.
   173  1.72  0.  0.
   174  1.73  0.  0.
   175  1.74  0.  0.
   176  1.75  0.  0.
   177  1.76  0.  0.
   178  1.77  0.  0.
   179  1.78  0.  0.
   180  1.79  0.  0.
   181  1.80  0.  0.
   182  1.81  0.  0.
   183  1.82  0.  0.
   184  1.83  0.  0.
   185  1.84  0.  0.
   186  1.85  0.  0.
   187  1.86  0.  0.
   188  1.87  0.  0.
   189  1.88  0.  0.
   190  1.89  0.  0.
   191  1.90  0.  0.
   192  1.91  0.  0.
   193  1.92  0.  0.
   194  1.93  0.  0.
   195  1.94  0.  0.
   196  1.95  0.  0.
   197  1.96  0.  0.
   198  1.97  0.  0.
   199  1.98  0.  0.
   200  1.99  0.  0.
   201  2.00  0.  0.
   202  2.01  0.  0.
   203  2.02  0.  0.
   204  2.03  0.  0.
   205  2.04  0.  0.
   206  2.05  0.  0.
   207  2.06  0.  0.
   208  2.07  0.  0.
   209  2.08  0.  0.
   210  2.09  0.  0.
   211  2.10  0.  0.
   212  2.11  0.  0.
   213  2.12  0.  0.
   214  2.13  0.  0.
   215  2.14  0.  0.
   216  2.15  0.  0.
   217  2.16  0.  0.
   218  2.17  0.  0.
   219  2.18  0.  0.
   220  2.19  0.  0.
   221  2.20  0.  0.
   222  2.21  0.  0.
   223  2.22  0.  0.
   224  2.23  0.  0.
   225  2.24  0.  0.
   226  2.25  0.  0.
   227  2.26  0.  0.
   228  2.27  0.  0.
   229  2.28  0.  0.
   230  2.29  0.  0.
   231  2.30  0.  0.
   232  2.31  0.  0.
   233  2.32  0.  0.
   234  2.33  0.  0.
   235  2.34  0.  0.
   236  2.35  0.  0.
   237  2.36  0.  0.
   238  2.37  0.  0.
   239  2.38  0.  0.
   240  2.39  0.  0.
   241  2.40  0.  0.
   242  2.41  0.  0.
   243  2.42  0.  0.
   244  2.43  0.  0.
   245  2.44  0.  0.
   246  2.45  0.  0.
   247  2.46  0.  0.
   248  2.47  0.  0.
   249  2.48  0.  0.
   250  2.49  0.  0.
   251  2.50  0.  0.
   252  2.51  0.  0.
   253  2.52  0.  0.
   254  2.53  0.  0.
   255  2.54  0.  0.
   256  2.55  0.  0.
   257  2.56  0.  0.
   258  2.57  0.  0.
   259  2.58  0.  0.
   260  2.59  0.  0.
   261  2.60  0.  0.
   262  2.61  0.  0.
   263  2.62  0.  0.
   264  2.63  0.  0.
   265  2.64  0.  0.
   266  2.65  0.  0.
   267  2.66  0.  0.
   268  2.67  0.  0.
   269  2.68  0.  0.
   270  2.69  0.  0.
   271  2.70  0.  0.
   272  2.71  0.  0.
   273  2.72  0.  0.
   274  2.73  0.  0.
   275  2.74  0.  0.
   276  2.75  0.  0.
   277  2.76  0.  0.
   278  2.77  0.  0.
   279  2.78  0.  0.
   280  2.79  0.  0.
   281  2.80  0.  0.
   282  2.81  0.  0.
   283  2.82  0.  0.
   284  2.83  0.  0.
   285  2.84  0.  0.
   286  2.85  0.  0.
   287  2.86  0.  0.
   288  2.87  0.  0.
   289  2.88  0.  0.
   290  2.89  0.  0.
   291  2.90  0.  0.
   292  2.91  0.  0.
   293  2.92  0.  0.
   294  2.93  0.  0.
   295  2.94  0.  0.
   296  2.95  0.  0.
   297  2.96  0.  0.
   298  2.97  0.  0.
   299  2.98  0.  0.
   300  2.99  0.  0.
   301  3.00  0.  0.
   302  3.01  0.  0.
   303  3.02  0.  0.
   304  3.03  0.  0.
   305  3.04  0.  0.
   306  3.05  0.  0.
   307  3.06  0.  0.
   308  3.07  0.  0.
   309  3.08  0.  0.
   310  3.09  0.  0.
   311  3.10  0.  0.
   312  3.11  0.  0.
   313  3.12  0.  0.
   314  3.13  0.  0.
   315  3.14  0.  0.
   316  3.15  0.  0.
   317  3.16  0.  0.
   318  3.17  0.  0.
   319  3.18  0.  0.
   320  3.19  0.  0.
   321  3.20  0.  0.
   322  3.21  0.  0.
   323  3.22  0.  0.
   324  3.23  0.  0.
   325  3.24  0.  0.
   326  3.25  0.  0.
   327  3.26  0.  0.
   328  3.27  0.  0.
   329  3.28  0.  0.
   330  3.29  0.  0.
   331  3.30  0.  0.
   332  3.31  0.  0.
   333  3.32  0.  0.
   334  3.33  0.  0.
   335  3.34  0.  0.
   336  3.35  0.  0.
   337  3.36  0.  0.
   338  3.37  0.  0.
   339  3.38  0.  0.
   340  3.39  0.  0.
   341  3.40  0.  0.
   342  3.41  0.  0.
   343  3.42  0.  0.
   344  3.43  0.  0.
   345  3.44  0.  0.
   346  3.45  0.  0.
   347  3.46  0.  0.
   348  3.47  0.  0.
   349  3.48  0.  0.
   350  3.49  0.  0.
   351  3.50  0.  0.
   352  3.51  0.  0.
   353  3.52  0.  0.
   354  3.53  0.  0.
   355  3.54  0.  0.
   356  3.55  0.  0.
   357  3.56  0.  0.
   358  3.57  0.  0.
   359  3.58  0.  0.
   360  3.59  0.  0.
   361  3.60  0.  0.
   362  3.61  0.  0.
   363  3.62  0.  0.
   364  3.63  0.  0.
   365  3.64  0.  0.
   366  3.65  0.  0.
   367  3.66  0.  0.
   368  3.67  0.  0.
   369  3.68  0.  0.
   370  3.69  0.  0.
   371  3.70  0.  0.
   372  3.71  0.  0.
   373  3.72  0.  0.
   374  3.73  0.  0.
   375  3.74  0.  0.
   376  3.75  0.  0.
   377  3.76  0.  0.
   378  3.77  0.  0.
   379  3.78  0.  0.
   380  3.79  0.  0.
   381  3.80  0.  0.
   382  3.81  0.  0.
   383  3.82  0.  0.
   384  3.83  0.  0.
   385  3.84  0.  0.
   386  3.85  0.  0.
   387  3.86  0.  0.
   388  3.87  0.  0.
   389  3.88  0.  0.
   390  3.89  0.  0.
   391  3.90  0.  0.
   392  3.91  0.  0.
   393  3.92  0.  0.
   394  3.93  0.  0.
   395  3.94  0.  0.
   396  3.95  0.  0.
   397  3.96  0.  0.
   398  3.97  0.  0.
   399  3.98  0.  0.
   400  3.99  0.  0.
   401  4.00  0.  0.
   402  4.01  0.  0.
   403  4.02  0.  0.
   404  4.03  0.  0.
   405  4.04  0.  0.
   406  4.05  0.  0.
   407  4.06  0.  0.
   408  4.07  0.  0.
   409  4.08  0.  0.
   410  4.09  0.  0.
   411  4.10  0.  0.
   412  4.11  0.  0.
   413  4.12  0.  0.
   414  4.13  0.  0.
   415  4.14  0.  0.
   416  4.15  0.  0.
   417  4.16  0.  0.
   418  4.17  0.  0.
   419  4.18  0.  0.
   420  4.19  0.  0.
   421  4.20  0.  0.
   422  4.21  0.  0.
   423  4.22  0.  0.
   424  4.23  0.  0.
   425  4.24  0.  0.
   426  4.25  0.  0.
   427  4.26  0.  0.
   428  4.27  0.  0.
   429  4.28  0.  0.
   430  4.29  0.  0.
   431  4.30  0.  0.
   432  4.31  0.  0.
   433  4.32  0.  0.
   434  4.33  0.  0.
   435  4.34  0.  0.
   436  4.35  0.  0.
   437  4.36  0.  0.
   438  4.37  0.  0.
   439  4.38  0.  0.
   440  4.39  0.  0.
   441  4.40  0.  0.
   442  4.41  0.  0.
   443  4.42  0.  0.
   444  4.43  0.  0.
   445  4.44  0.  0.
   446  4.45  0.  0.
   447  4.46  0.  0.
   448  4.47  0.  0.
   449  4.48  0.  0.
   450  4.49  0.  0.
   451  4.50  0.  0.
   452  4.51  0.  0.
   453  4.52  0.  0.
   454  4.53  0.  0.
   455  4.54  0.  0.
   456  4.55  0.  0.
   457  4.56  0.  0.
   458  4.57  0.  0.
   459  4.58  0.  0.
   460  4.59  0.  0.
   461  4.60  0.  0.
   462  4.61  0.  0.
   463  4.62  0.  0.
   464  4.63  0.  0.
   465  4.64  0.  0.
   466  4.65  0.  0.
   467  4.66  0.  0.
   468  4.67  0.  0.
   469  4.68  0.  0.
   470  4.69  0.  0.
   471  4.70  0.  0.
   472  4.71  0.  0.
   473  4.72  0.  0.
   474  4.73  0.  0.
   475  4.74  0.  0.
   476  4.75  0.  0.
   477  4.76  0.  0.
   478  4.77  0.  0.
   479  4.78  0.  0.
   480  4.79  0.  0.
   481  4.80  0.  0.
   482  4.81  0.  0.
   483  4.82  0.  0.
   484  4.83  0.  0.
   485  4.84  0.  0.
   486  4.85  0.  0.
   487  4.86  0.  0.
   488  4.87  0.  0.
   489  4.88  0.  0.
   490  4.89  0.  0.
   491  4.90  0.  0.
   492  4.91  0.  0.
   493  4.92  0.  0.
   494  4.93  0.  0.
   495  4.94  0.  0.
   496  4.95  0.  0.
   497  4.96  0.  0.
   498  4.97  0.  0.
   499  4.98  0.  0.
   500  4.99  0.  0.
   501  5.00  0.  0.
   502  5.01  0.  0.
   503  5.02  0.  0.
   504  5.03  0.  0.
   505  5.04  0.  0.
   506  5.05  0.  0.
   507  5.06  0.  0.
   508  5.07  0.  0.
   509  5.08  0.  0.
   510  5.09  0.  0.
   511  5.10  0.  0.
   512  5.11  0.  0.
   513  5.12  0.  0.
   514  5.13  0.  0.
   515  5.14  0.  0.
   516  5.15  0.  0.
   517  5.16  0.  0.
   518  5.17  0.  0.
   519  5.18  0.  0.
   520  5.19  0.  0.
   521  5.20  0.  0.
   522  5.21  0.  0.
   523  5.22  0.  0.
   524  5.23  0.  0.
   525  5.24  0.  0.
   526  5.25  0.  0.
   527  5.26  0.  0.
   528  5.27  0.  0.
   529  5.28  0.  0.
   530  5.29  0.  0.
   531  5.30  0.  0.
   532  5.31  0.  0.
   533  5.32  0.  0.
   534  5.33  0.  0.
   535  5.34  0.  0.
   536  5.35  0.  0.
   537  5.36  0.  0.
   538  5.37  0.  0.
   539  5.38  0.  0.
   540  5.39  0.  0.
   541  5.40  0.  0.
   542  5.41  0.  0.
   543  5.42  0.  0.
   544  5.43  0.  0.
   545  5.44  0.  0.
   546  5.45  0.  0.
   547  5.46  0.  0.
   548  5.47  0.  0.
   549  5.48  0.  0.
   550  5.49  0.  0.
   551  5.50  0.  0.
   552  5.51  0.  0.
   553  5.52  0.  0.
   554  5.53  0.  0.
   555  5.54  0.  0.
   556  5.55  0.  0.
   557  5.56  0.  0.
   558  5.57  0.  0.
   559  5.58  0.  0.
   560  5.59  0.  0.
   561  5.60  0.  0.
   562  5.61  0.  0.
   563  5.62  0.  0.
   564  5.63  0.  0.
   565  5.64  0.  0.
   566  5.65  0.  0.
   567  5.66  0.  0.
   568  5.67  0.  0.
   569  5.68  0.  0.
   570  5.69  0.  0.
   571  5.70  0.  0.
   572  5.71  0.  0.
   573  5.72  0.  0.
   574  5.73  0.  0.
   575  5.74  0.  0.
   576  5.75  0.  0.
   577  5.76  0.  0.
   578  5.77  0.  0.
   579  5.78  0.  0.
   580  5.79  0.  0.
   581  5.80  0.  0.
   582  5.81  0.  0.
   583  5.82  0.  0.
   584  5.83  0.  0.
   585  5.84  0.  0.
   586  5.85  0.  0.
   587  5.86  0.  0.
   588  5.87  0.  0.
   589  5.88  0.  0.
   590  5.89  0.  0.
   591  5.90  0.  0.
   592  5.91  0.  0.
   593  5.92  0.  0.
   594  5.93  0.  0.
   595  5.94  0.  0.
   596  5.95  0.  0.
   597  5.96  0.  0.
   598  5.97  0.  0.
   599  5.98  0.  0.
   600  5.99  0.  0.
   1                         5.7417552768980E+00  4.6379439491021E-01
     1  0.0000000000000E+00 -4.6542616843892E-09  2.2389152511126E-08
     2  1.0000000000000E-02  1.1877399069355E-03 -2.3755725659126E-04
     3  2.0000000000000E-02  4.7501180923391E-03 -9.6301624252104E-04
     4  3.0000000000000E-02  1.0684520000084E-02 -2.2142544022575E-03
     5  4.0000000000000E-02  1.8986291208152E-02 -4.0528011441716E-03
     6  5.0000000000000E-02  2.9648302614386E-02 -6.5614881510046E-03
     7  6.0000000000000E-02  4.2660362239884E-02 -9.8412579737467E-03
     8  7.0000000000000E-02  5.8008493471037E-02 -1.4007225707188E-02
     9  8.0000000000000E-02  7.5674104215521E-02 -1.9184110934557E-02
    10  9.0000000000000E-02  9.5633075385117E-02 -2.5501176179083E-02
    11  1.0000000000000E-01  1.1785480022275E-01 -3.3086823266470E-02
    12  1.1000000000000E-01  1.4230120816989E-01 -4.2063009847673E-02
    13  1.2000000000000E-01  1.6892580815737E-01 -5.2539654542035E-02
    14  1.3000000000000E-01  1.9767278636047E-01 -6.4609200553248E-02
    15  1.4000000000000E-01  2.2847619257864E-01 -7.8341504136159E-02
    16  1.5000000000000E-01  2.6125924750463E-01 -9.3779206041040E-02
    17  1.6000000000000E-01  2.9593380028609E-01 -1.1093373125809E-01
    18  1.7000000000000E-01  3.3239996203527E-01 -1.2978204538141E-01
    19  1.8000000000000E-01  3.7054593641209E-01 -1.5026427518099E-01
    20  1.9000000000000E-01  4.1024806322071E-01 -1.7228227709174E-01
    21  2.0000000000000E-01  4.5137108526488E-01 -1.9569921096755E-01
    22  2.1000000000000E-01  4.9376864266463E-01 -2.2034014834596E-01
    23  2.2000000000000E-01  5.3728399261751E-01 -2.4599371541425E-01
    24  2.3000000000000E-01  5.8175094636829E-01 -2.7241474167873E-01
    25  2.4000000000000E-01  6.2699500911047E-01 -2.9932785684008E-01
    26  2.5000000000000E-01  6.7283470285310E-01 -3.2643195137394E-01
    27  2.6000000000000E-01  7.1908304711167E-01 -3.5340539157410E-01
    28  2.7000000000000E-01  7.6554916777187E-01 -3.7991185803875E-01
    29  2.8000000000000E-01  8.1204000076035E-01 -4.0560665839128E-01
    30  2.9000000000000E-01  8.5836205434673E-01 -4.3014335094821E-01
    31  3.0000000000000E-01  9.0432319207936E-01 -4.5318050648706E-01
    32  3.1000000000000E-01  9.4973439757929E-01 -4.7438843050828E-01
    33  3.2000000000000E-01  9.9441148270912E-01 -4.9345566857709E-01
    34  3.3000000000000E-01  1.0381767019912E+00 -5.1009512248193E-01
    35  3.4000000000000E-01  1.0808602385393E+00 -5.2404961492733E-01
    36  3.5000000000000E-01  1.1223015301237E+00 -5.3509675502520E-01
    37  3.6000000000000E-01  1.1623504082241E+00 -5.4305297556410E-01
    38  3.7000000000000E-01  1.2008680279134E+00 -5.4777663541048E-01
    39  3.8000000000000E-01  1.2377275720298E+00 -5.4917010581086E-01
    40  3.9000000000000E-01  1.2728147191652E+00 -5.4718078711728E-01
    41  4.0000000000000E-01  1.3060278713670E+00 -5.4180103177755E-01
    42  4.1000000000000E-01  1.3372781439273E+00 -5.3306697950130E-01
    43  4.2000000000000E-01  1.3664891260401E+00 -5.2105634048996E-01
    44  4.3000000000000E-01  1.3935964272603E+00 -5.0588519166510E-01
    45  4.4000000000000E-01  1.4185470304240E+00 -4.8770387812617E-01
    46  4.5000000000000E-01  1.4412984768162E+00 -4.6669213684731E-01
    47  4.6000000000000E-01  1.4618179137636E+00 -4.4305358117993E-01
    48  4.7000000000000E-01  1.4800810383473E+00 -4.1700970245139E-01
    49  4.8000000000000E-01  1.4960709734779E+00 -3.8879355833009E-01
    50  4.9000000000000E-01  1.5097771140744E+00 -3.5864332627827E-01
    51  5.0000000000000E-01  1.5211939814924E+00 -3.2679590407764E-01
    52  5.1000000000000E-01  1.5303201236400E+00 -2.9348073797287E-01
    53  5.2000000000000E-01  1.5371570964230E+00 -2.5891405245975E-01
    54  5.3000000000000E-01  1.5417085593137E+00 -2.2329364431603E-01
    55  5.4000000000000E-01  1.5439795140251E+00 -1.8679438743911E-01
    56  5.5000000000000E-01  1.5439757105973E+00 -1.4956457485340E-01
    57  5.6000000000000E-01  1.5417032397939E+00 -1.1172320043450E-01
    58  5.7000000000000E-01  1.5371683247226E+00 -7.3358256125495E-02
    59  5.8000000000000E-01  1.5303773181983E+00 -3.4526091435853E-02
    60  5.9000000000000E-01  1.5213369057461E+00  4.7481483783971E-03
    61  6.0000000000000E-01  1.5100545074864E+00  4.4469020002347E-02
    62  6.1000000000000E-01  1.4965388656424E+00  8.4668260803773E-02
    63  6.2000000000000E-01  1.4808007982569E+00  1.2540132327812E-01
    64  6.3000000000000E-01  1.4628540940777E+00  1.6674306730390E-01
    65  6.4000000000000E-01  1.4427165186328E+00  2.0878273698802E-01
    66  6.5000000000000E-01  1.4204108974243E+00  2.5161837006413E-01
    67  6.6000000000000E-01  1.3959662390398E+00  2.9535080489356E-01
    68  6.7000000000000E-01  1.3694188589154E+00  3.4007746261121E-01
    69  6.8000000000000E-01  1.3408134635524E+00  3.8588608948893E-01
    70  6.9000000000000E-01  1.3102041552296E+00  4.3284864692544E-01
    71  7.0000000000000E-01  1.2776553186639E+00  4.8101553352781E-01
    72  7.1000000000000E-01  1.2432423536312E+00  5.3041031558450E-01
    73  7.2000000000000E-01  1.2070522211993E+00  5.8102512905392E-01
    74  7.3000000000000E-01  1.1691837758547E+00  6.3281689834994E-01
    75  7.4000000000000E-01  1.1297478613022E+00  6.8570449518059E-01
    76  7.5000000000000E-01  1.0888671539370E+00  7.3956693508590E-01
    77  7.6000000000000E-01  1.0466757447527E+00  7.9424268082542E-01
    78  7.7000000000000E-01  1.0033184575862E+00  8.4953009117481E-01
    79  7.8000000000000E-01  9.5894990889926E-01  9.0518902184676E-01
    80  7.9000000000000E-01  9.1373332155800E-01  9.6094355304173E-01
    81  8.0000000000000E-01  8.6783911209327E-01  1.0164857864555E+00
    82  8.1000000000000E-01  8.2144327750272E-01  1.0714806243132E+00
    83  8.2000000000000E-01  7.7472561360173E-01  1.1255714150114E+00
    84  8.3000000000000E-01  7.2786780207335E-01  1.1783863250227E+00
    85  8.4000000000000E-01  6.8105140755462E-01  1.2295452755606E+00
    86  8.5000000000000E-01  6.3445582920137E-01  1.2786672657209E+00
    87  8.6000000000000E-01  5.8825625309973E-01  1.3253778918909E+00
    88  8.7000000000000E-01  5.4262165257456E-01  1.3693168665147E+00
    89  8.8000000000000E-01  4.9771288285348E-01  1.4101453380067E+00
    90  8.9000000000000E-01  4.5368091468284E-01  1.4475528178008E+00
    91  9.0000000000000E-01  4.1066524840120E-01  1.4812635300893E+00
    92  9.1000000000000E-01  3.6879254573010E-01  1.5110420145151E+00
    93  9.2000000000000E-01  3.2817551124833E-01  1.5366978315345E+00
    94  9.3000000000000E-01  2.8891204931294E-01  1.5580892438447E+00
    95  9.4000000000000E-01  2.5108471524033E-01  1.5751257745291E+00
    96  9.5000000000000E-01  2.1476047205022E-01  1.5877695726683E+00
    97  9.6000000000000E-01  1.7999075620685E-01  1.5960355492628E+00
    98  9.7000000000000E-01  1.4681184777685E-01  1.5999902795502E+00
    99  9.8000000000000E-01  1.1524553248518E-01  1.5997497012270E+00
   100  9.9000000000000E-01  8.5300035503816E-02  1.5954756708036E+00
   101  1.0000000000000E+00  5.6971199669183E-02  1.5873714713953E+00
   102  1.0100000000000E+00  3.0243874386068E-02  1.5756763938463E+00
   103  1.0200000000000E+00  5.0934759277772E-03  1.5606595383636E+00
   104  1.0300000000000E+00 -1.8512324662313E-02  1.5426130051078E+00
   105  1.0400000000000E+00 -4.0611833196973E-02  1.5218446588668E+00
   106  1.0500000000000E+00 -6.1247532684610E-02  1.4986706645123E+00
   107  1.0600000000000E+00 -8.0464302292591E-02  1.4734079961084E+00
   108  1.0700000000000E+00 -9.8307704202537E-02  1.4463671231054E+00
   109  1.0800000000000E+00 -1.1482238563284E-01  1.4178450719904E+00
   110  1.0900000000000E+00 -1.3005064000465E-01  1.3881190512080E+00
   111  1.1000000000000E+00 -1.4403116670066E-01  1.3574408113633E+00
   112  1.1100000000000E+00 -1.5679806325173E-01  1.3260318921942E+00
   113  1.1200000000000E+00 -1.6838007718692E-01  1.2940798829299E+00
   114  1.1300000000000E+00 -1.7880013745018E-01  1.2617357944129E+00
   115  1.1400000000000E+00 -1.8807517731436E-01  1.2291126101236E+00
   116  1.1500000000000E+00 -1.9621625245856E-01  1.1962850503917E+00
   117  1.1600000000000E+00 -2.0322894939255E-01  1.1632905499072E+00
   118  1.1700000000000E+00 -2.0911407110586E-01  1.1301314147704E+00
   119  1.1800000000000E+00 -2.1386857875929E-01  1.0967780920200E+00
   120  1.1900000000000E+00 -2.1748676078929E-01  1.0631734533781E+00
   121  1.2000000000000E+00 -2.1996159405534E-01  1.0292379662553E+00
   122  1.2100000000000E+00 -2.2128625588772E-01  9.9487559995171E-01
   123  1.2200000000000E+00 -2.2145574122508E-01  9.5998029409273E-01
   124  1.2300000000000E+00 -2.2046853558841E-01  9.2444280014365E-01
   125  1.2400000000000E+00 -2.1832829255554E-01  8.8815769600660E-01
   126  1.2500000000000E+00 -2.1504546370280E-01  8.5103036830930E-01
   127  1.2600000000000E+00 -2.1063882973064E-01  8.1298375739371E-01