Sb    ONCVPSP-4.0.1  r_core=   2.00296   2.10115   1.80928
     51.0000     15.0000      231019    zatom,zion,pspd
     8       2   2     4   600     0    pspcod,pspxc,lmax,lloc,mmax,r2well
  5.99000000  5.00000000  0.00000000    rchrg fchrg qchrg
     2     2     2     0     0    nproj
     1     1           extension_switch
   0                         6.7967840012069E+00  1.2736673817181E+00
     1  0.0000000000000E+00  1.7188197740103E-10 -4.2818193435323E-10
     2  1.0000000000000E-02 -5.3190506877827E-03  5.8865039070200E-02
     3  2.0000000000000E-02 -1.0482090564153E-02  1.1730685576619E-01
     4  3.0000000000000E-02 -1.5334161790553E-02  1.7490499988724E-01
     5  4.0000000000000E-02 -1.9722405600085E-02  2.3124454792782E-01
     6  5.0000000000000E-02 -2.3497094691812E-02  2.8591882240432E-01
     7  6.0000000000000E-02 -2.6512645177070E-02  3.3853205866012E-01
     8  7.0000000000000E-02 -2.8628601464116E-02  3.8870200214563E-01
     9  8.0000000000000E-02 -2.9710587639286E-02  4.3606241959798E-01
    10  9.0000000000000E-02 -2.9631219115869E-02  4.8026550807599E-01
    11  1.0000000000000E-01 -2.8270968574652E-02  5.2098418643592E-01
    12  1.1000000000000E-01 -2.5518980511290E-02  5.5791425455973E-01
    13  1.2000000000000E-01 -2.1273829033414E-02  5.9077640646564E-01
    14  1.3000000000000E-01 -1.5444213912918E-02  6.1931808433531E-01
    15  1.4000000000000E-01 -7.9495902938870E-03  6.4331516147941E-01
    16  1.5000000000000E-01  1.2792721180901E-03  6.6257344332624E-01
    17  1.6000000000000E-01  1.2299804106571E-02  6.7692997665141E-01
    18  1.7000000000000E-01  2.5157229478352E-02  6.8625415846344E-01
    19  1.8000000000000E-01  3.9884237824499E-02  6.9044863721387E-01
    20  1.9000000000000E-01  5.6500739732915E-02  6.8945000030241E-01
    21  2.0000000000000E-01  7.5013706142072E-02  6.8322924319268E-01
    22  2.1000000000000E-01  9.5417092978206E-02  6.7179201683112E-01
    23  2.2000000000000E-01  1.1769185166151E-01  6.5517865146508E-01
    24  2.3000000000000E-01  1.4180602550456E-01  6.3346395637566E-01
    25  2.4000000000000E-01  1.6771493146141E-01  6.0675679646931E-01
    26  2.5000000000000E-01  1.9536142612278E-01  5.7519944809962E-01
    27  2.6000000000000E-01  2.2467625429410E-01  5.3896673790895E-01
    28  2.7000000000000E-01  2.5557847794355E-01  4.9826496988004E-01
    29  2.8000000000000E-01  2.8797598276953E-01  4.5333064716056E-01
    30  2.9000000000000E-01  3.2176605911480E-01  4.0442899656141E-01
    31  3.0000000000000E-01  3.5683605345158E-01  3.5185230492248E-01
    32  3.1000000000000E-01  3.9306408618152E-01  2.9591807778051E-01
    33  3.2000000000000E-01  4.3031983103951E-01  2.3696703195286E-01
    34  3.3000000000000E-01  4.6846535096468E-01  1.7536093476231E-01
    35  3.4000000000000E-01  5.0735598490788E-01  1.1148030366227E-01
    36  3.5000000000000E-01  5.4684127968578E-01  4.5721980972927E-02
    37  3.6000000000000E-01  5.8676596066987E-01 -2.1503400700274E-02
    38  3.7000000000000E-01  6.2697093481672E-01 -8.9774046029913E-02
    39  3.8000000000000E-01  6.6729431930557E-01 -1.5865970051344E-01
    40  3.9000000000000E-01  7.0757248885342E-01 -2.2772441245027E-01
    41  4.0000000000000E-01  7.4764113462695E-01 -2.9652933535207E-01
    42  4.1000000000000E-01  7.8733632756731E-01 -3.6463555246136E-01
    43  4.2000000000000E-01  8.2649557888814E-01 -4.3160690484397E-01
    44  4.3000000000000E-01  8.6495889050064E-01 -4.9701280443236E-01
    45  4.4000000000000E-01  9.0256978816238E-01 -5.6043101343085E-01
    46  4.5000000000000E-01  9.3917633023858E-01 -6.2145037165094E-01
    47  4.6000000000000E-01  9.7463208510650E-01 -6.7967345362612E-01
    48  4.7000000000000E-01  1.0087970704238E+00 -7.3471913775851E-01
    49  4.8000000000000E-01  1.0415386477200E+00 -7.8622507027399E-01
    50  4.9000000000000E-01  1.0727323660561E+00 -8.3385000740561E-01
    51  5.0000000000000E-01  1.1022627488261E+00 -8.7727601998280E-01
    52  5.1000000000000E-01  1.1300240181500E+00 -9.1621054547302E-01
    53  5.2000000000000E-01  1.1559207517211E+00 -9.5038827349829E-01
    54  5.3000000000000E-01  1.1798684674242E+00 -9.7957285192414E-01
    55  5.4000000000000E-01  1.2017941315321E+00 -1.0035584017893E+00
    56  5.5000000000000E-01  1.2216365868078E+00 -1.0221708306004E+00
    57  5.6000000000000E-01  1.2393468973923E+00 -1.0352689348525E+00
    58  5.7000000000000E-01  1.2548886079361E+00 -1.0427452840417E+00
    59  5.8000000000000E-01  1.2682379150295E+00 -1.0445268799053E+00
    60  5.9000000000000E-01  1.2793837496056E+00 -1.0405755861407E+00
    61  6.0000000000000E-01  1.2883277696202E+00 -1.0308883254211E+00
    62  6.1000000000000E-01  1.2950842629512E+00 -1.0154970421111E+00
    63  6.2000000000000E-01  1.2996799611062E+00 -9.9446843070289E-01
    64  6.3000000000000E-01  1.3021537649718E+00 -9.6790343161165E-01
    65  6.4000000000000E-01  1.3025563844752E+00 -9.3593649758785E-01
    66  6.5000000000000E-01  1.3009498946635E+00 -8.9873463560956E-01
    67  6.6000000000000E-01  1.2974072113199E+00 -8.5649623069626E-01
    68  6.7000000000000E-01  1.2920114898349E+00 -8.0944965962781E-01
    69  6.8000000000000E-01  1.2848554516265E+00 -7.5785170404682E-01
    70  6.9000000000000E-01  1.2760406429497E+00 -7.0198577385661E-01
    71  7.0000000000000E-01  1.2656766314509E+00 -6.4215995319160E-01
    72  7.1000000000000E-01  1.2538801463045E+00 -5.7870488252094E-01
    73  7.2000000000000E-01  1.2407741682056E+00 -5.1197149163891E-01
    74  7.3000000000000E-01  1.2264869758902E+00 -4.4232859938946E-01
    75  7.4000000000000E-01  1.2111511562047E+00 -3.7016039695650E-01
    76  7.5000000000000E-01  1.1949025850432E+00 -2.9586383241957E-01
    77  7.6000000000000E-01  1.1778793867191E+00 -2.1984591501857E-01
    78  7.7000000000000E-01  1.1602208795294E+00 -1.4252095818460E-01
    79  7.8000000000000E-01  1.1420665154041E+00 -6.4307780871788E-02
    80  7.9000000000000E-01  1.1235548216094E+00  1.4373112937487E-02
    81  8.0000000000000E-01  1.1048223524903E+00  9.3102356488581E-02
    82  8.1000000000000E-01  1.0860026591946E+00  1.7146452415874E-01
    83  8.2000000000000E-01  1.0672252852159E+00  2.4905089699747E-01
    84  8.3000000000000E-01  1.0486147954314E+00  3.2546217013935E-01
    85  8.4000000000000E-01  1.0302898460813E+00  4.0031108272191E-01
    86  8.5000000000000E-01  1.0123623028632E+00  4.7322495148126E-01
    87  8.6000000000000E-01  9.9493641396789E-01  5.4384808988197E-01
    88  8.7000000000000E-01  9.7810804449676E-01  6.1184409545772E-01
    89  8.8000000000000E-01  9.6196397825325E-01  6.7689798899286E-01
    90  8.9000000000000E-01  9.4658129240811E-01  7.3871819025387E-01
    91  9.0000000000000E-01  9.3202680999964E-01  7.9703831617777E-01
    92  9.1000000000000E-01  9.1835663464933E-01  8.5161878873210E-01
    93  9.2000000000000E-01  9.0561577125541E-01  9.0224824107013E-01
    94  9.3000000000000E-01  8.9383783577622E-01  9.4874471210390E-01
    95  9.4000000000000E-01  8.8304485653605E-01  9.9095662119663E-01
    96  9.5000000000000E-01  8.7324716878430E-01  1.0287635163228E+00
    97  9.6000000000000E-01  8.6444340351925E-01  1.0620765907458E+00
    98  9.7000000000000E-01  8.5662057085562E-01  1.0908389650081E+00
    99  9.8000000000000E-01  8.4975423747712E-01  1.1150257328029E+00
   100  9.9000000000000E-01  8.4380879697598E-01  1.1346437710849E+00
   101  1.0000000000000E+00  8.3873783114761E-01  1.1497313165695E+00
   102  1.0100000000000E+00  8.3448455958544E-01  1.1603573125492E+00
   103  1.0200000000000E+00  8.3098237421512E-01  1.1666205317068E+00
   104  1.0300000000000E+00  8.2815545472335E-01  1.1686484823193E+00
   105  1.0400000000000E+00  8.2591946018126E-01  1.1665961069039E+00
   106  1.0500000000000E+00  8.2418229154010E-01  1.1606442839477E+00
   107  1.0600000000000E+00  8.2284491909416E-01  1.1509981448773E+00
   108  1.0700000000000E+00  8.2180226846569E-01  1.1378852198400E+00
   109  1.0800000000000E+00  8.2094415817625E-01  1.1215534271843E+00
   110  1.0900000000000E+00  8.2015628142935E-01  1.1022689227284E+00
   111  1.1000000000000E+00  8.1932122434797E-01  1.0803138259800E+00
   112  1.1100000000000E+00  8.1831951258766E-01  1.0559838414109E+00
   113  1.1200000000000E+00  8.1703067798704E-01  1.0295857936897E+00
   114  1.1300000000000E+00  8.1533433672356E-01  1.0014350964266E+00
   115  1.1400000000000E+00  8.1311127031566E-01  9.7185317448013E-01
   116  1.1500000000000E+00  8.1024450075536E-01  9.4116486020912E-01
   117  1.1600000000000E+00  8.0662035106713E-01  9.0969578423098E-01
   118  1.1700000000000E+00  8.0212948267127E-01  8.7776978125431E-01
   119  1.1800000000000E+00  7.9666790108236E-01  8.4570633139906E-01
   120  1.1900000000000E+00  7.9013792169461E-01  8.1381805709746E-01
   121  1.2000000000000E+00  7.8244908769446E-01  7.8240829518816E-01
   122  1.2100000000000E+00  7.7351903249666E-01  7.5176876317297E-01
   123  1.2200000000000E+00  7.6327427951619E-01  7.2217733781486E-01
   124  1.2300000000000E+00  7.5165097256867E-01  6.9389596330971E-01
   125  1.2400000000000E+00  7.3859553072540E-01  6.6716870518351E-01
   126  1.2500000000000E+00  7.2406522203643E-01  6.4221996485312E-01
   127  1.2600000000000E+00  7.0802865117260E-01  6.1925286844686E-01
   128  1.2700000000000E+00  6.9046615671378E-01  5.9844784203738E-01
   129  1.2800000000000E+00  6.7137011452872E-01  5.7996138388755E-01
   130  1.2900000000000E+00  6.5074514444117E-01  5.6392504267171E-01
   131  1.3000000000000E+00  6.2860821815098E-01  5.5044460892692E-01
   132  1.3100000000000E+00  6.0498866717424E-01  5.3959952521668E-01
   133  1.3200000000000E+00  5.7992809037684E-01  5.3144251866970E-01
   134  1.3300000000000E+00  5.5348016149102E-01  5.2599945770904E-01
   135  1.3400000000000E+00  5.2571033781910E-01  5.2326943292870E-01
   136  1.3500000000000E+00  4.9669547214263E-01  5.2322506020041E-01
   137  1.3600000000000E+00  4.6652333064961E-01  5.2581300225188E-01
   138  1.3700000000000E+00  4.3529202047211E-01  5.3095470313493E-01
   139  1.3800000000000E+00  4.0310933117633E-01  5.3854732823391E-01
   140  1.3900000000000E+00  3.7009199527041E-01  5.4846490074416E-01
   141  1.4000000000000E+00  3.3636487347417E-01  5.6055962391855E-01
   142  1.4100000000000E+00  3.0206007113442E-01  5.7466337682601E-01
   143  1.4200000000000E+00  2.6731599275641E-01  5.9058936992112E-01
   144  1.4300000000000E+00  2.3227634215769E-01  6.0813394538466E-01
   145  1.4400000000000E+00  1.9708907622542E-01  6.2707850598539E-01
   146  1.4500000000000E+00  1.6190532067066E-01  6.4719155513767E-01
   147  1.4600000000000E+00  1.2687825651897E-01  6.6823082989672E-01
   148  1.4700000000000E+00  9.2161986353818E-02  6.8994550785099E-01
   149  1.4800000000000E+00  5.7910389533174E-02  7.1207846825068E-01
   150  1.4900000000000E+00  2.4275975731308E-02  7.3436858724779E-01
   151  1.5000000000000E+00 -8.5912537867268E-03  7.5655304683281E-01
   152  1.5100000000000E+00 -4.0544927770057E-02  7.7836963692833E-01
   153  1.5200000000000E+00 -7.1443400173675E-02  7.9955903014626E-01
   154  1.5300000000000E+00 -1.0115080981435E-01  8.1986700893178E-01
   155  1.5400000000000E+00 -1.2953809561184E-01  8.3904662520064E-01
   156  1.5500000000000E+00 -1.5648395885253E-01  8.5686027312595E-01
   157  1.5600000000000E+00 -1.8187576429596E-01  8.7308165643583E-01
   158  1.5700000000000E+00 -2.0561037239672E-01  8.8749763244699E-01
   159  1.5800000000000E+00 -2.2759489541355E-01  8.9990991588656E-01
   160  1.5900000000000E+00 -2.4774737074083E-01  9.1013662683685E-01
   161  1.6000000000000E+00 -2.6599734637063E-01  9.1801367944082E-01
   162  1.6100000000000E+00 -2.8228636835518E-01  9.2339593709221E-01
   163  1.6200000000000E+00 -2.9656841698220E-01  9.2615879827271E-01
   164  1.6300000000000E+00 -3.0881033709356E-01  9.2620051392361E-01
   165  1.6400000000000E+00 -3.1899215854989E-01  9.2344367556477E-01
   166  1.6500000000000E+00 -3.2710727733986E-01  9.1783584549217E-01
   167  1.6600000000000E+00 -3.3316253713621E-01  9.0935002327305E-01
   168  1.6700000000000E+00 -3.3717820729090E-01  8.9798488662186E-01
   169  1.6800000000000E+00 -3.3918785788195E-01  8.8376481584150E-01
   170  1.6900000000000E+00 -3.3923813273035E-01  8.6673970246686E-01
   171  1.7000000000000E+00 -3.3738842204138E-01  8.4698454405065E-01
   172  1.7100000000000E+00 -3.3371043710882E-01  8.2459882897109E-01
   173  1.7200000000000E+00 -3.2828769027154E-01  7.9970571682357E-01
   174  1.7300000000000E+00 -3.2121488403825E-01  7.7245102159269E-01
   175  1.7400000000000E+00 -3.1259721399239E-01  7.4300200637287E-01
   176  1.7500000000000E+00 -3.0254959074923E-01  7.1154599990422E-01
   177  1.7600000000000E+00 -2.9119578685749E-01  6.7828884660282E-01
   178  1.7700000000000E+00 -2.7866751511207E-01  6.4345320308115E-01
   179  1.7800000000000E+00 -2.6510344526970E-01  6.0727669536386E-01
   180  1.7900000000000E+00 -2.5064816663053E-01  5.7000995209813E-01
   181  1.8000000000000E+00 -2.3545110436340E-01  5.3191453002749E-01
   182  1.8100000000000E+00 -2.1966539780624E-01  4.9326074883623E-01
   183  1.8200000000000E+00 -2.0344674926462E-01  4.5432545317139E-01
   184  1.8300000000000E+00 -1.8695225205767E-01  4.1538972020703E-01
   185  1.8400000000000E+00 -1.7033920671977E-01  3.7673653152423E-01
   186  1.8500000000000E+00 -1.5376393435815E-01  3.3864842834011E-01
   187  1.8600000000000E+00 -1.3738059619006E-01  3.0140516922764E-01
   188  1.8700000000000E+00 -1.2134002911891E-01  2.6528141151753E-01
   189  1.8800000000000E+00 -1.0578859702003E-01  2.3054441361116E-01
   190  1.8900000000000E+00 -9.0867106184396E-02  1.9745186930464E-01
   191  1.9000000000000E+00 -7.6709699211793E-02  1.6624967837451E-01
   192  1.9100000000000E+00 -6.3442410652739E-02  1.3716886853576E-01
   193  1.9200000000000E+00 -5.1182255307846E-02  1.1042373075123E-01
   194  1.9300000000000E+00 -4.0038206682498E-02  8.6214491911113E-02
   195  1.9400000000000E+00 -3.0108823244819E-02  6.4722048812976E-02
   196  1.9500000000000E+00 -2.1481398206717E-02  4.6106200354866E-02
   197  1.9600000000000E+00 -1.4231344686630E-02  3.0504403765133E-02
   198  1.9700000000000E+00 -8.4231970043526E-03  1.8033966864109E-02
   199  1.9800000000000E+00 -4.0993359247875E-03  8.7680295365221E-03
   200  1.9900000000000E+00 -1.3048780311687E-03  2.7887290440370E-03
   201  2.0000000000000E+00 -1.1697118125873E-04  2.4978942225231E-04
   202  2.0100000000000E+00  4.5976746886315E-05 -9.8149687066485E-05
   203  2.0200000000000E+00 -1.6565669252601E-05  3.5376974874622E-05
   204  2.03  0. -0.
   205  2.04  0. -0.
   206  2.05  0. -0.
   207  2.06  0.  0.
   208  2.07  0.  0.
   209  2.08  0.  0.
   210  2.09  0.  0.
   211  2.10  0.  0.
   212  2.11  0.  0.
   213  2.12  0.  0.
   214  2.13  0.  0.
   215  2.14  0.  0.
   216  2.15  0.  0.
   217  2.16  0.  0.
   218  2.17  0.  0.
   219  2.18  0.  0.
   220  2.19  0.  0.
   221  2.20  0.  0.
   222  2.21  0.  0.
   223  2.22  0.  0.
   224  2.23  0.  0.
   225  2.24  0.  0.
   226  2.25  0.  0.
   227  2.26  0.  0.
   228  2.27  0.  0.
   229  2.28  0.  0.
   230  2.29  0.  0.
   231  2.30  0.  0.
   232  2.31  0.  0.
   233  2.32  0.  0.
   234  2.33  0.  0.
   235  2.34  0.  0.
   236  2.35  0.  0.
   237  2.36  0.  0.
   238  2.37  0.  0.
   239  2.38  0.  0.
   240  2.39  0.  0.
   241  2.40  0.  0.
   242  2.41  0.  0.
   243  2.42  0.  0.
   244  2.43  0.  0.
   245  2.44  0.  0.
   246  2.45  0.  0.
   247  2.46  0.  0.
   248  2.47  0.  0.
   249  2.48  0.  0.
   250  2.49  0.  0.
   251  2.50  0.  0.
   252  2.51  0.  0.
   253  2.52  0.  0.
   254  2.53  0.  0.
   255  2.54  0.  0.
   256  2.55  0.  0.
   257  2.56  0.  0.
   258  2.57  0.  0.
   259  2.58  0.  0.
   260  2.59  0.  0.
   261  2.60  0.  0.
   262  2.61  0.  0.
   263  2.62  0.  0.
   264  2.63  0.  0.
   265  2.64  0.  0.
   266  2.65  0.  0.
   267  2.66  0.  0.
   268  2.67  0.  0.
   269  2.68  0.  0.
   270  2.69  0.  0.
   271  2.70  0.  0.
   272  2.71  0.  0.
   273  2.72  0.  0.
   274  2.73  0.  0.
   275  2.74  0.  0.
   276  2.75  0.  0.
   277  2.76  0.  0.
   278  2.77  0.  0.
   279  2.78  0.  0.
   280  2.79  0.  0.
   281  2.80  0.  0.
   282  2.81  0.  0.
   283  2.82  0.  0.
   284  2.83  0.  0.
   285  2.84  0.  0.
   286  2.85  0.  0.
   287  2.86  0.  0.
   288  2.87  0.  0.
   289  2.88  0.  0.
   290  2.89  0.  0.
   291  2.90  0.  0.
   292  2.91  0.  0.
   293  2.92  0.  0.
   294  2.93  0.  0.
   295  2.94  0.  0.
   296  2.95  0.  0.
   297  2.96  0.  0.
   298  2.97  0.  0.
   299  2.98  0.  0.
   300  2.99  0.  0.
   301  3.00  0.  0.
   302  3.01  0.  0.
   303  3.02  0.  0.
   304  3.03  0.  0.
   305  3.04  0.  0.
   306  3.05  0.  0.
   307  3.06  0.  0.
   308  3.07  0.  0.
   309  3.08  0.  0.
   310  3.09  0.  0.
   311  3.10  0.  0.
   312  3.11  0.  0.
   313  3.12  0.  0.
   314  3.13  0.  0.
   315  3.14  0.  0.
   316  3.15  0.  0.
   317  3.16  0.  0.
   318  3.17  0.  0.
   319  3.18  0.  0.
   320  3.19  0.  0.
   321  3.20  0.  0.
   322  3.21  0.  0.
   323  3.22  0.  0.
   324  3.23  0.  0.
   325  3.24  0.  0.
   326  3.25  0.  0.
   327  3.26  0.  0.
   328  3.27  0.  0.
   329  3.28  0.  0.
   330  3.29  0.  0.
   331  3.30  0.  0.
   332  3.31  0.  0.
   333  3.32  0.  0.
   334  3.33  0.  0.
   335  3.34  0.  0.
   336  3.35  0.  0.
   337  3.36  0.  0.
   338  3.37  0.  0.
   339  3.38  0.  0.
   340  3.39  0.  0.
   341  3.40  0.  0.
   342  3.41  0.  0.
   343  3.42  0.  0.
   344  3.43  0.  0.
   345  3.44  0.  0.
   346  3.45  0.  0.
   347  3.46  0.  0.
   348  3.47  0.  0.
   349  3.48  0.  0.
   350  3.49  0.  0.
   351  3.50  0.  0.
   352  3.51  0.  0.
   353  3.52  0.  0.
   354  3.53  0.  0.
   355  3.54  0.  0.
   356  3.55  0.  0.
   357  3.56  0.  0.
   358  3.57  0.  0.
   359  3.58  0.  0.
   360  3.59  0.  0.
   361  3.60  0.  0.
   362  3.61  0.  0.
   363  3.62  0.  0.
   364  3.63  0.  0.
   365  3.64  0.  0.
   366  3.65  0.  0.
   367  3.66  0.  0.
   368  3.67  0.  0.
   369  3.68  0.  0.
   370  3.69  0.  0.
   371  3.70  0.  0.
   372  3.71  0.  0.
   373  3.72  0.  0.
   374  3.73  0.  0.
   375  3.74  0.  0.
   376  3.75  0.  0.
   377  3.76  0.  0.
   378  3.77  0.  0.
   379  3.78  0.  0.
   380  3.79  0.  0.
   381  3.80  0.  0.
   382  3.81  0.  0.
   383  3.82  0.  0.
   384  3.83  0.  0.
   385  3.84  0.  0.
   386  3.85  0.  0.
   387  3.86  0.  0.
   388  3.87  0.  0.
   389  3.88  0.  0.
   390  3.89  0.  0.
   391  3.90  0.  0.
   392  3.91  0.  0.
   393  3.92  0.  0.
   394  3.93  0.  0.
   395  3.94  0.  0.
   396  3.95  0.  0.
   397  3.96  0.  0.
   398  3.97  0.  0.
   399  3.98  0.  0.
   400  3.99  0.  0.
   401  4.00  0.  0.
   402  4.01  0.  0.
   403  4.02  0.  0.
   404  4.03  0.  0.
   405  4.04  0.  0.
   406  4.05  0.  0.
   407  4.06  0.  0.
   408  4.07  0.  0.
   409  4.08  0.  0.
   410  4.09  0.  0.
   411  4.10  0.  0.
   412  4.11  0.  0.
   413  4.12  0.  0.
   414  4.13  0.  0.
   415  4.14  0.  0.
   416  4.15  0.  0.
   417  4.16  0.  0.
   418  4.17  0.  0.
   419  4.18  0.  0.
   420  4.19  0.  0.
   421  4.20  0.  0.
   422  4.21  0.  0.
   423  4.22  0.  0.
   424  4.23  0.  0.
   425  4.24  0.  0.
   426  4.25  0.  0.
   427  4.26  0.  0.
   428  4.27  0.  0.
   429  4.28  0.  0.
   430  4.29  0.  0.
   431  4.30  0.  0.
   432  4.31  0.  0.
   433  4.32  0.  0.
   434  4.33  0.  0.
   435  4.34  0.  0.
   436  4.35  0.  0.
   437  4.36  0.  0.
   438  4.37  0.  0.
   439  4.38  0.  0.
   440  4.39  0.  0.
   441  4.40  0.  0.
   442  4.41  0.  0.
   443  4.42  0.  0.
   444  4.43  0.  0.
   445  4.44  0.  0.
   446  4.45  0.  0.
   447  4.46  0.  0.
   448  4.47  0.  0.
   449  4.48  0.  0.
   450  4.49  0.  0.
   451  4.50  0.  0.
   452  4.51  0.  0.
   453  4.52  0.  0.
   454  4.53  0.  0.
   455  4.54  0.  0.
   456  4.55  0.  0.
   457  4.56  0.  0.
   458  4.57  0.  0.
   459  4.58  0.  0.
   460  4.59  0.  0.
   461  4.60  0.  0.
   462  4.61  0.  0.
   463  4.62  0.  0.
   464  4.63  0.  0.
   465  4.64  0.  0.
   466  4.65  0.  0.
   467  4.66  0.  0.
   468  4.67  0.  0.
   469  4.68  0.  0.
   470  4.69  0.  0.
   471  4.70  0.  0.
   472  4.71  0.  0.
   473  4.72  0.  0.
   474  4.73  0.  0.
   475  4.74  0.  0.
   476  4.75  0.  0.
   477  4.76  0.  0.
   478  4.77  0.  0.
   479  4.78  0.  0.
   480  4.79  0.  0.
   481  4.80  0.  0.
   482  4.81  0.  0.
   483  4.82  0.  0.
   484  4.83  0.  0.
   485  4.84  0.  0.
   486  4.85  0.  0.
   487  4.86  0.  0.
   488  4.87  0.  0.
   489  4.88  0.  0.
   490  4.89  0.  0.
   491  4.90  0.  0.
   492  4.91  0.  0.
   493  4.92  0.  0.
   494  4.93  0.  0.
   495  4.94  0.  0.
   496  4.95  0.  0.
   497  4.96  0.  0.
   498  4.97  0.  0.
   499  4.98  0.  0.
   500  4.99  0.  0.
   501  5.00  0.  0.
   502  5.01  0.  0.
   503  5.02  0.  0.
   504  5.03  0.  0.
   505  5.04  0.  0.
   506  5.05  0.  0.
   507  5.06  0.  0.
   508  5.07  0.  0.
   509  5.08  0.  0.
   510  5.09  0.  0.
   511  5.10  0.  0.
   512  5.11  0.  0.
   513  5.12  0.  0.
   514  5.13  0.  0.
   515  5.14  0.  0.
   516  5.15  0.  0.
   517  5.16  0.  0.
   518  5.17  0.  0.
   519  5.18  0.  0.
   520  5.19  0.  0.
   521  5.20  0.  0.
   522  5.21  0.  0.
   523  5.22  0.  0.
   524  5.23  0.  0.
   525  5.24  0.  0.
   526  5.25  0.  0.
   527  5.26  0.  0.
   528  5.27  0.  0.
   529  5.28  0.  0.
   530  5.29  0.  0.
   531  5.30  0.  0.
   532  5.31  0.  0.
   533  5.32  0.  0.
   534  5.33  0.  0.
   535  5.34  0.  0.
   536  5.35  0.  0.
   537  5.36  0.  0.
   538  5.37  0.  0.
   539  5.38  0.  0.
   540  5.39  0.  0.
   541  5.40  0.  0.
   542  5.41  0.  0.
   543  5.42  0.  0.
   544  5.43  0.  0.
   545  5.44  0.  0.
   546  5.45  0.  0.
   547  5.46  0.  0.
   548  5.47  0.  0.
   549  5.48  0.  0.
   550  5.49  0.  0.
   551  5.50  0.  0.
   552  5.51  0.  0.
   553  5.52  0.  0.
   554  5.53  0.  0.
   555  5.54  0.  0.
   556  5.55  0.  0.
   557  5.56  0.  0.
   558  5.57  0.  0.
   559  5.58  0.  0.
   560  5.59  0.  0.
   561  5.60  0.  0.
   562  5.61  0.  0.
   563  5.62  0.  0.
   564  5.63  0.  0.
   565  5.64  0.  0.
   566  5.65  0.  0.
   567  5.66  0.  0.
   568  5.67  0.  0.
   569  5.68  0.  0.
   570  5.69  0.  0.
   571  5.70  0.  0.
   572  5.71  0.  0.
   573  5.72  0.  0.
   574  5.73  0.  0.
   575  5.74  0.  0.
   576  5.75  0.  0.
   577  5.76  0.  0.
   578  5.77  0.  0.
   579  5.78  0.  0.
   580  5.79  0.  0.
   581  5.80  0.  0.
   582  5.81  0.  0.
   583  5.82  0.  0.
   584  5.83  0.  0.
   585  5.84  0.  0.
   586  5.85  0.  0.
   587  5.86  0.  0.
   588  5.87  0.  0.
   589  5.88  0.  0.
   590  5.89  0.  0.
   591  5.90  0.  0.
   592  5.91  0.  0.
   593  5.92  0.  0.
   594  5.93  0.  0.
   595  5.94  0.  0.
   596  5.95  0.  0.
   597  5.96  0.  0.
   598  5.97  0.  0.
   599  5.98  0.  0.
   600  5.99  0.  0.
   1                         5.4640943096116E+00  7.0230266419137E-01
     1  0.0000000000000E+00 -3.3373905722334E-10  8.0437035851477E-10
     2  1.0000000000000E-02  1.0841368463308E-04  3.2739259857901E-04
     3  2.0000000000000E-02  4.3583058461650E-04  1.3040815115106E-03
     4  3.0000000000000E-02  9.8875629689260E-04  2.9136524856792E-03
     5  4.0000000000000E-02  1.7779605225645E-03  5.1289226561873E-03
     6  5.0000000000000E-02  2.8183682451524E-03  7.9122003892090E-03
     7  6.0000000000000E-02  4.1289086133795E-03  1.1215646088220E-02
     8  7.0000000000000E-02  5.7323227508340E-03  1.4981731016254E-02
     9  8.0000000000000E-02  7.6549320485932E-03  1.9143790382477E-02
    10  9.0000000000000E-02  9.9263688191953E-03  2.3626666164670E-02
    11  1.0000000000000E-01  1.2579271498759E-02  2.8347434396435E-02
    12  1.1000000000000E-01  1.5648946876298E-02  3.3216210944277E-02
    13  1.2000000000000E-01  1.9173002103154E-02  3.8137029140807E-02
    14  1.3000000000000E-01  2.3190949488924E-02  4.3008782030979E-02
    15  1.4000000000000E-01  2.7743787321288E-02  4.7726221433406E-02
    16  1.5000000000000E-01  3.2873560154061E-02  5.2181005522546E-02
    17  1.6000000000000E-01  3.8622902188847E-02  5.6262786204058E-02
    18  1.7000000000000E-01  4.5034567529518E-02  5.9860327188239E-02
    19  1.8000000000000E-01  5.2150951214073E-02  6.2862643368350E-02
    20  1.9000000000000E-01  6.0013605024109E-02  6.5160151884348E-02
    21  2.0000000000000E-01  6.8662752137454E-02  6.6645825100237E-02
    22  2.1000000000000E-01  7.8136804723608E-02  6.7216335646360E-02
    23  2.2000000000000E-01  8.8471888584235E-02  6.6773183677741E-02
    24  2.3000000000000E-01  9.9701378911781E-02  6.5223796576331E-02
    25  2.4000000000000E-01  1.1185545117831E-01  6.2482591478810E-02
    26  2.5000000000000E-01  1.2496065107418E-01  5.8471991241840E-02
    27  2.6000000000000E-01  1.3903948729267E-01  5.3123384762043E-02
    28  2.7000000000000E-01  1.5411005080267E-01  4.6378022946972E-02
    29  2.8000000000000E-01  1.7018566406848E-01  3.8187842083499E-02
    30  2.9000000000000E-01  1.8727456346367E-01  2.8516206868649E-02
    31  3.0000000000000E-01  2.0537961788810E-01  1.7338565951521E-02
    32  3.1000000000000E-01  2.2449808633247E-01  4.6430134798585E-03
    33  3.2000000000000E-01  2.4462141684825E-01 -9.5692491536415E-03
    34  3.3000000000000E-01  2.6573508907097E-01 -2.5283556416357E-02
    35  3.4000000000000E-01  2.8781850211689E-01 -4.2471530842913E-02
    36  3.5000000000000E-01  3.1084490932741E-01 -6.1090947753763E-02
    37  3.6000000000000E-01  3.3478140097495E-01 -8.1085715017983E-02
    38  3.7000000000000E-01  3.5958893567243E-01 -1.0238596948805E-01
    39  3.8000000000000E-01  3.8522242084624E-01 -1.2490829080724E-01
    40  3.9000000000000E-01  4.1163084224497E-01 -1.4855603234831E-01
    41  4.0000000000000E-01  4.3875744206458E-01 -1.7321976809219E-01
    42  4.1000000000000E-01  4.6653994487830E-01 -1.9877785330480E-01
    43  4.2000000000000E-01  4.9491083017027E-01 -2.2509709592635E-01
    44  4.3000000000000E-01  5.2379764988760E-01 -2.5203353465803E-01
    45  4.4000000000000E-01  5.5312338904983E-01 -2.7943331882280E-01
    46  4.5000000000000E-01  5.8280686709117E-01 -3.0713368419824E-01
    47  4.6000000000000E-01  6.1276317726116E-01 -3.3496401817642E-01
    48  4.7000000000000E-01  6.4290416107740E-01 -3.6274700680627E-01
    49  4.8000000000000E-01  6.7313891451251E-01 -3.9029985552459E-01
    50  4.9000000000000E-01  7.0337432230833E-01 -4.1743557468851E-01
    51  5.0000000000000E-01  7.3351561654748E-01 -4.4396432039259E-01
    52  5.1000000000000E-01  7.6346695537643E-01 -4.6969478049160E-01
    53  5.2000000000000E-01  7.9313201756918E-01 -4.9443559526263E-01
    54  5.3000000000000E-01  8.2241460844721E-01 -5.1799680173081E-01
    55  5.4000000000000E-01  8.5121927253161E-01 -5.4019129035680E-01
    56  5.5000000000000E-01  8.7945190819932E-01 -5.6083626254468E-01
    57  5.6000000000000E-01  9.0702037954752E-01 -5.7975467727885E-01
    58  5.7000000000000E-01  9.3383512064051E-01 -5.9677667514065E-01
    59  5.8000000000000E-01  9.5980972732139E-01 -6.1174096799129E-01
    60  5.9000000000000E-01  9.8486153181800E-01 -6.2449618273811E-01
    61  6.0000000000000E-01  1.0089121554586E+00 -6.3490214782645E-01
    62  6.1000000000000E-01  1.0318880349368E+00 -6.4283111141946E-01
    63  6.2000000000000E-01  1.0537209177289E+00 -6.4816888064041E-01
    64  6.3000000000000E-01  1.0743483224654E+00 -6.5081587175639E-01
    65  6.4000000000000E-01  1.0937139602955E+00 -6.5068806177358E-01
    66  6.5000000000000E-01  1.1117681135549E+00 -6.4771783259114E-01
    67  6.6000000000000E-01  1.1284679683490E+00 -6.4185469961691E-01
    68  6.7000000000000E-01  1.1437778980013E+00 -6.3306591758029E-01
    69  6.8000000000000E-01  1.1576696946773E+00 -6.2133695717842E-01
    70  6.9000000000000E-01  1.1701227468868E+00 -6.0667184715614E-01
    71  7.0000000000000E-01  1.1811241609767E+00 -5.8909337744033E-01
    72  7.1000000000000E-01  1.1906688251632E+00 -5.6864316001798E-01
    73  7.2000000000000E-01  1.1987594150984E+00 -5.4538154535602E-01
    74  7.3000000000000E-01  1.2054063404311E+00 -5.1938739330207E-01
    75  7.4000000000000E-01  1.2106276322954E+00 -4.9075769856906E-01
    76  7.5000000000000E-01  1.2144487721364E+00 -4.5960707208389E-01
    77  7.6000000000000E-01  1.2169024627662E+00 -4.2606708066215E-01
    78  7.7000000000000E-01  1.2180283430217E+00 -3.9028544864726E-01
    79  7.8000000000000E-01  1.2178726478677E+00 -3.5242512631310E-01
    80  7.9000000000000E-01  1.2164878162532E+00 -3.1266323096550E-01
    81  8.0000000000000E-01  1.2139320494795E+00 -2.7118986777924E-01
    82  8.1000000000000E-01  1.2102688232698E+00 -2.2820683846427E-01
    83  8.2000000000000E-01  1.2055663571392E+00 -1.8392624685834E-01
    84  8.3000000000000E-01  1.1998970450530E+00 -1.3856901148457E-01
    85  8.4000000000000E-01  1.1933368517150E+00 -9.2363295981615E-02
    86  8.5000000000000E-01  1.1859646791538E+00 -4.5542869105165E-02
    87  8.6000000000000E-01  1.1778617085636E+00  1.6545932972600E-03
    88  8.7000000000000E-01  1.1691107226099E+00  4.8989251326618E-02
    89  8.8000000000000E-01  1.1597954136193E+00  9.6220875566436E-02
    90  8.9000000000000E-01  1.1499996832426E+00  1.4311063918570E-01
    91  9.0000000000000E-01  1.1398069393039E+00  1.8942291339174E-01
    92  9.1000000000000E-01  1.1292993956243E+00  2.3492705183520E-01
    93  9.2000000000000E-01  1.1185573806421E+00  2.7939914950663E-01
    94  9.3000000000000E-01  1.1076586606283E+00  3.2262376172098E-01
    95  9.4000000000000E-01  1.0966777832336E+00  3.6439556896288E-01
    96  9.5000000000000E-01  1.0856854469828E+00  4.0452097366240E-01
    97  9.6000000000000E-01  1.0747479021732E+00  4.4281961538596E-01
    98  9.7000000000000E-01  1.0639263884160E+00  4.7912579145988E-01
    99  9.8000000000000E-01  1.0532766138064E+00  5.1328977068969E-01