Sb    ONCVPSP-4.0.1  r_core=   2.00296   2.10115   1.80928
     51.0000     15.0000      250925    zatom,zion,pspd
     8   -1012   2     4   600     0    pspcod,pspxc,lmax,lloc,mmax,r2well
  5.99000000  5.00000000  0.00000000    rchrg fchrg qchrg
     2     3     2     0    nproj
     3     1           extension_switch
     4     3     0    nprojso
   0                         6.7993267988741E+00  1.2738263786396E+00
     1  0.0000000000000E+00  1.7225348578065E-10 -4.2895964558198E-10
     2  1.0000000000000E-02 -5.3489268371279E-03  5.8853488480122E-02
     3  2.0000000000000E-02 -1.0541620270557E-02  1.1728345967330E-01
     4  3.0000000000000E-02 -1.5422901785505E-02  1.7486917207665E-01
     5  4.0000000000000E-02 -1.9839695756722E-02  2.3119541807401E-01
     6  5.0000000000000E-02 -2.3642063716206E-02  2.8585524678462E-01
     7  6.0000000000000E-02 -2.6684218130558E-02  3.3845263430199E-01
     8  7.0000000000000E-02 -2.8825509060575E-02  3.8860508429135E-01
     9  8.0000000000000E-02 -2.9931377247941E-02  4.3594614234247E-01
    10  9.0000000000000E-02 -2.9874267387276E-02  4.8012780800693E-01
    11  1.0000000000000E-01 -2.8534495595156E-02  5.2082282907960E-01
    12  1.1000000000000E-01 -2.5801065379440E-02  5.5772686341204E-01
    13  1.2000000000000E-01 -2.1572426740783E-02  5.9056049436458E-01
    14  1.3000000000000E-01 -1.5757173401399E-02  6.1907108691045E-01
    15  1.4000000000000E-01 -8.2746735520679E-03  6.4303447239435E-01
    16  1.5000000000000E-01  9.4437006546871E-04  6.6225645101269E-01
    17  1.6000000000000E-01  1.1957434469734E-02  6.7657410221826E-01
    18  1.7000000000000E-01  2.4809768394414E-02  6.8585689445120E-01
    19  1.8000000000000E-01  3.9534064636054E-02  6.9000758685365E-01
    20  1.9000000000000E-01  5.6150215023516E-02  6.8896291693080E-01
    21  2.0000000000000E-01  7.4665149702154E-02  6.8269406946750E-01
    22  2.1000000000000E-01  9.5072761877108E-02  6.7120692338995E-01
    23  2.2000000000000E-01  1.1735391860212E-01  6.5454207466755E-01
    24  2.3000000000000E-01  1.4147655763675E-01  6.3277463477266E-01
    25  2.4000000000000E-01  1.6739586982895E-01  6.0601380564662E-01
    26  2.5000000000000E-01  1.9505456591536E-01  5.7440223355089E-01
    27  2.6000000000000E-01  2.2438322607225E-01  5.3811514560296E-01
    28  2.7000000000000E-01  2.5530072999882E-01  4.9735927419953E-01
    29  2.8000000000000E-01  2.8771476477574E-01  4.5237157590549E-01
    30  2.9000000000000E-01  3.2152240721848E-01  4.0341775272683E-01
    31  3.0000000000000E-01  3.5661077694087E-01  3.5079058498173E-01
    32  3.1000000000000E-01  3.9285775586285E-01  2.9480808622668E-01
    33  3.2000000000000E-01  4.3013276944024E-01  2.3581149187651E-01
    34  3.3000000000000E-01  4.6829762446797E-01  1.7416309427002E-01
    35  3.4000000000000E-01  5.0720739791296E-01  1.1024393796963E-01
    36  3.5000000000000E-01  5.4671137087314E-01  4.4451390035931E-02
    37  3.6000000000000E-01  5.8665400143619E-01 -2.2803399119006E-02
    38  3.7000000000000E-01  6.2687592992901E-01 -9.1098127930446E-02
    39  3.8000000000000E-01  6.6721500980837E-01 -1.6000205189871E-01
    40  3.9000000000000E-01  7.0750735724616E-01 -2.2907875023693E-01
    41  4.0000000000000E-01  7.4758841231224E-01 -2.9788893291534E-01
    42  4.1000000000000E-01  7.8729400455362E-01 -3.6599326974037E-01
    43  4.2000000000000E-01  8.2646141571326E-01 -4.3295522289712E-01
    44  4.3000000000000E-01  8.6493043232507E-01 -4.9834386429496E-01
    45  4.4000000000000E-01  9.0254438096472E-01 -5.6173665909093E-01
    46  4.5000000000000E-01  9.3915113902794E-01 -6.2272219692293E-01
    47  4.6000000000000E-01  9.7460411405051E-01 -6.8090285266691E-01
    48  4.7000000000000E-01  1.0087631847745E+00 -7.3589735893636E-01
    49  4.8000000000000E-01  1.0414955974048E+00 -7.8734327306847E-01
    50  4.9000000000000E-01  1.0726768107846E+00 -8.3489932198555E-01
    51  5.0000000000000E-01  1.1021912845527E+00 -8.7824760908063E-01
    52  5.1000000000000E-01  1.1299332047148E+00 -9.1709566814724E-01
    53  5.2000000000000E-01  1.1558071414839E+00 -9.5117835035147E-01
    54  5.3000000000000E-01  1.1797286346923E+00 -9.8025953132285E-01
    55  5.4000000000000E-01  1.2016247025750E+00 -1.0041336266135E+00
    56  5.5000000000000E-01  1.2214342702419E+00 -1.0226269050350E+00
    57  5.6000000000000E-01  1.2391085147145E+00 -1.0355985907210E+00
    58  5.7000000000000E-01  1.2546111239765E+00 -1.0429417461750E+00
    59  5.8000000000000E-01  1.2679184680931E+00 -1.0445839300310E+00
    60  5.9000000000000E-01  1.2790196810686E+00 -1.0404876247814E+00
    61  6.0000000000000E-01  1.2879166527470E+00 -1.0306504312888E+00
    62  6.1000000000000E-01  1.2946239306993E+00 -1.0151050284938E+00
    63  6.2000000000000E-01  1.2991685326904E+00 -9.9391889835002E-01
    64  6.3000000000000E-01  1.3015896709622E+00 -9.6719381763877E-01
    65  6.4000000000000E-01  1.3019383902116E+00 -9.3506511994042E-01
    66  6.5000000000000E-01  1.3002771217773E+00 -8.9770073264744E-01
    67  6.6000000000000E-01  1.2966791571632E+00 -8.5529999548689E-01
    68  6.7000000000000E-01  1.2912280446304E+00 -8.0809226856647E-01
    69  6.8000000000000E-01  1.2840169131632E+00 -7.5633533945494E-01
    70  6.9000000000000E-01  1.2751477286664E+00 -7.0031364024651E-01
    71  7.0000000000000E-01  1.2647304877639E+00 -6.4033628692585E-01
    72  7.1000000000000E-01  1.2528823550555E+00 -5.7673495463697E-01
    73  7.2000000000000E-01  1.2397267501228E+00 -5.0986160365548E-01
    74  7.3000000000000E-01  1.2253923909785E+00 -4.4008607195898E-01
    75  7.4000000000000E-01  1.2100123009990E+00 -3.6779355127710E-01
    76  7.5000000000000E-01  1.1937227866828E+00 -2.9338196437250E-01
    77  7.6000000000000E-01  1.1766623938238E+00 -2.1725926204897E-01
    78  7.7000000000000E-01  1.1589708498802E+00 -1.3984065899775E-01
    79  7.8000000000000E-01  1.1407880004552E+00 -6.1545828071050E-02
    80  7.9000000000000E-01  1.1222527478834E+00  1.7203927090397E-02
    81  8.0000000000000E-01  1.1035019999295E+00  9.5988500956085E-02
    82  8.1000000000000E-01  1.0846696365687E+00  1.7439179636446E-01
    83  8.2000000000000E-01  1.0658855027062E+00  2.5200449607718E-01
    84  8.3000000000000E-01  1.0472744345356E+00  3.2842677581464E-01
    85  8.4000000000000E-01  1.0289553270072E+00  4.0327093935634E-01
    86  8.5000000000000E-01  1.0110402495967E+00  4.7616395683258E-01
    87  8.6000000000000E-01  9.9363361722398E-01  5.4674988802038E-01
    88  8.7000000000000E-01  9.7683142277994E-01  6.1469217327974E-01
    89  8.8000000000000E-01  9.6072053727088E-01  6.7967577572357E-01
    90  8.9000000000000E-01  9.4537808309666E-01  7.4140915929738E-01
    91  9.0000000000000E-01  9.3087088543756E-01  7.9962608864711E-01
    92  9.1000000000000E-01  9.1725500614263E-01  8.5408723796559E-01
    93  9.2000000000000E-01  9.0457536389244E-01  9.0458159742200E-01
    94  9.3000000000000E-01  8.9286544375626E-01  9.5092766728257E-01
    95  9.4000000000000E-01  8.8214709858220E-01  9.9297443141525E-01
    96  9.5000000000000E-01  8.7243044395545E-01  1.0306021035225E+00
    97  9.6000000000000E-01  8.6371384773662E-01  1.0637226411547E+00
    98  9.7000000000000E-01  8.5598401445926E-01  1.0922800243057E+00
    99  9.8000000000000E-01  8.4921616412381E-01  1.1162502971739E+00
   100  9.9000000000000E-01  8.4337430418468E-01  1.1356413734632E+00
   101  1.0000000000000E+00  8.3841159279040E-01  1.1504926073995E+00
   102  1.0100000000000E+00  8.3427079061150E-01  1.1608741344197E+00
   103  1.0200000000000E+00  8.3088479788251E-01  1.1668859872494E+00
   104  1.0300000000000E+00  8.2817727259856E-01  1.1686569948007E+00
   105  1.0400000000000E+00  8.2606332514916E-01  1.1663434729896E+00
   106  1.0500000000000E+00  8.2445028404799E-01  1.1601277181626E+00
   107  1.0600000000000E+00  8.2323852683250E-01  1.1502163153423E+00
   108  1.0700000000000E+00  8.2232236966521E-01  1.1368382749223E+00
   109  1.0800000000000E+00  8.2159100867680E-01  1.1202430127603E+00
   110  1.0900000000000E+00  8.2092950564993E-01  1.1006981898228E+00
   111  1.1000000000000E+00  8.2021981026018E-01  1.0784874286105E+00
   112  1.1100000000000E+00  8.1934181076677E-01  1.0539079245381E+00
   113  1.1200000000000E+00  8.1817440478573E-01  1.0272679712440E+00
   114  1.1300000000000E+00  8.1659658158371E-01  9.9888441945260E-01
   115  1.1400000000000E+00  8.1448850720361E-01  9.6908008951399E-01
   116  1.1500000000000E+00  8.1173260367569E-01  9.3818115807628E-01
   117  1.1600000000000E+00  8.0821461357986E-01  9.0651453952304E-01
   118  1.1700000000000E+00  8.0382464130762E-01  8.7440528281498E-01
   119  1.1800000000000E+00  7.9845816252473E-01  8.4217400421796E-01
   120  1.1900000000000E+00  7.9201699355791E-01  8.1013437607728E-01
   121  1.2000000000000E+00  7.8441021271843E-01  7.7859069131468E-01
   122  1.2100000000000E+00  7.7555502593244E-01  7.4783552267780E-01
   123  1.2200000000000E+00  7.6537756946549E-01  7.1814749497760E-01
   124  1.2300000000000E+00  7.5381364301073E-01  6.8978918759838E-01
   125  1.2400000000000E+00  7.4080936694555E-01  6.6300518347973E-01
   126  1.2500000000000E+00  7.2632175815068E-01  6.3802027955070E-01
   127  1.2600000000000E+00  7.1031921942555E-01  6.1503787224917E-01
   128  1.2700000000000E+00  6.9278193821253E-01  5.9423853030946E-01
   129  1.2800000000000E+00  6.7370219106275E-01  5.7577876544372E-01
   130  1.2900000000000E+00  6.5308455102910E-01  5.5979000989674E-01
   131  1.3000000000000E+00  6.3094599594742E-01  5.4637780814093E-01
   132  1.3100000000000E+00  6.0731591636625E-01  5.3562122819766E-01
   133  1.3200000000000E+00  5.8223602269779E-01  5.2757249624544E-01
   134  1.3300000000000E+00  5.5576015198122E-01  5.2225685632077E-01
   135  1.3400000000000E+00  5.2795397546669E-01  5.1967265505212E-01
   136  1.3500000000000E+00  4.9889460904549E-01  5.1979164948688E-01
   137  1.3600000000000E+00  4.6867012934878E-01  5.2255953422229E-01
   138  1.3700000000000E+00  4.3737899911996E-01  5.2789668222230E-01
   139  1.3800000000000E+00  4.0512940621772E-01  5.3569909192820E-01
   140  1.3900000000000E+00  3.7203852133318E-01  5.4583953154360E-01
   141  1.4000000000000E+00  3.3823168018515E-01  5.5816886973755E-01
   142  1.4100000000000E+00  3.0384149659964E-01  5.7251758045016E-01
   143  1.4200000000000E+00  2.6900691346882E-01  5.8869740803484E-01
   144  1.4300000000000E+00  2.3387219912168E-01  6.0650317762879E-01
   145  1.4400000000000E+00  1.9858589711598E-01  6.2571473442876E-01
   146  1.4500000000000E+00  1.6329973787383E-01  6.4609899447147E-01
   147  1.4600000000000E+00  1.2816752093173E-01  6.6741208858125E-01
   148  1.4700000000000E+00  9.3343976852579E-02  6.8940158036427E-01
   149  1.4800000000000E+00  5.8983618052904E-02  7.1180873850603E-01
   150  1.4900000000000E+00  2.5239587930084E-02  7.3437084316488E-01
   151  1.5000000000000E+00 -7.7374822697740E-03  7.5682350596354E-01
   152  1.5100000000000E+00 -3.9800599422331E-02  7.7890298295644E-01
   153  1.5200000000000E+00 -7.0807508008436E-02  8.0034845999836E-01
   154  1.5300000000000E+00 -1.0062175395568E-01  8.2090429015804E-01
   155  1.5400000000000E+00 -1.2911370392783E-01  8.4032216320606E-01
   156  1.5500000000000E+00 -1.5616151146897E-01  8.5836318775958E-01
   157  1.5600000000000E+00 -1.8165202179385E-01  8.7479986737454E-01
   158  1.5700000000000E+00 -2.0548160746942E-01  8.8941795274458E-01
   159  1.5800000000000E+00 -2.2755692773395E-01  9.0201815299745E-01
   160  1.5900000000000E+00 -2.4779560476515E-01  9.1241769036759E-01
   161  1.6000000000000E+00 -2.6612681177979E-01  9.2045169482844E-01
   162  1.6100000000000E+00 -2.8249176283912E-01  9.2597436438454E-01
   163  1.6200000000000E+00 -2.9684415079657E-01  9.2886055493091E-01
   164  1.6300000000000E+00 -3.0915057869106E-01  9.2900810044881E-01
   165  1.6400000000000E+00 -3.1939088118104E-01  9.2633930323030E-01
   166  1.6500000000000E+00 -3.2755830651819E-01  9.2080156544949E-01
   167  1.6600000000000E+00 -3.3365959858866E-01  9.1236785607236E-01
   168  1.6700000000000E+00 -3.3771497503442E-01  9.0103695120346E-01
   169  1.6800000000000E+00 -3.3975800206388E-01  8.8683345705607E-01
   170  1.6900000000000E+00 -3.3983536687281E-01  8.6980761619472E-01
   171  1.7000000000000E+00 -3.3800654933612E-01  8.5003489900874E-01
   172  1.7100000000000E+00 -3.3434339541712E-01  8.2761538432169E-01
   173  1.7200000000000E+00 -3.2892959549501E-01  8.0267293473086E-01
   174  1.7300000000000E+00 -3.2186007153961E-01  7.7535417391091E-01
   175  1.7400000000000E+00 -3.1324027776133E-01  7.4582727469405E-01
   176  1.7500000000000E+00 -3.0318542002665E-01  7.1428056824279E-01
   177  1.7600000000000E+00 -2.9181959995139E-01  6.8092098604950E-01
   178  1.7700000000000E+00 -2.7927489016084E-01  6.4597234781783E-01
   179  1.7800000000000E+00 -2.6569034773244E-01  6.0967350949551E-01
   180  1.7900000000000E+00 -2.5121097330973E-01  5.7227638682560E-01
   181  1.8000000000000E+00 -2.3598662379218E-01  5.3404387075669E-01
   182  1.8100000000000E+00 -2.2017088686084E-01  4.9524765189328E-01
   183  1.8200000000000E+00 -2.0391992589195E-01  4.5616597187037E-01
   184  1.8300000000000E+00 -1.8739130403782E-01  4.1708132009534E-01
   185  1.8400000000000E+00 -1.7074279641393E-01  3.7827809471046E-01
   186  1.8500000000000E+00 -1.5413119942348E-01  3.4004024688972E-01
   187  1.8600000000000E+00 -1.3771114627382E-01  3.0264892769246E-01
   188  1.8700000000000E+00 -1.2163393857626E-01  2.6638015874567E-01
   189  1.8800000000000E+00 -1.0604639372193E-01  2.3150252405753E-01
   190  1.8900000000000E+00 -9.1089756543522E-02  1.9827499415524E-01
   191  1.9000000000000E+00 -7.6898589525297E-02  1.6694468686941E-01
   192  1.9100000000000E+00 -6.3599324497448E-02  1.3774377952432E-01
   193  1.9200000000000E+00 -5.1309347529778E-02  1.1088763514790E-01
   194  1.9300000000000E+00 -4.0137976091309E-02  8.6577468370478E-02
   195  1.9400000000000E+00 -3.0184081253241E-02  6.4995071226350E-02
   196  1.9500000000000E+00 -2.1535234748904E-02  4.6301038312327E-02
   197  1.9600000000000E+00 -1.4267091817114E-02  3.0633516804543E-02
   198  1.9700000000000E+00 -8.4443944051189E-03  1.8110407534693E-02
   199  1.9800000000000E+00 -4.1096673860645E-03  8.8052436538528E-03
   200  1.9900000000000E+00 -1.3081703253376E-03  2.8005818338689E-03
   201  2.0000000000000E+00 -1.1726654346378E-04  2.5085767749389E-04
   202  2.0100000000000E+00  4.6092936690450E-05 -9.8565112193425E-05
   203  2.0200000000000E+00 -1.6607513759757E-05  3.5526858585684E-05
   204  2.03  0.  0.
   205  2.04  0.  0.
   206  2.05  0.  0.
   207  2.06  0.  0.
   208  2.07  0.  0.
   209  2.08  0.  0.
   210  2.09  0.  0.
   211  2.10  0.  0.
   212  2.11  0.  0.
   213  2.12  0.  0.
   214  2.13  0.  0.
   215  2.14  0.  0.
   216  2.15  0.  0.
   217  2.16  0.  0.
   218  2.17  0.  0.
   219  2.18  0.  0.
   220  2.19  0.  0.
   221  2.20  0.  0.
   222  2.21  0.  0.
   223  2.22  0.  0.
   224  2.23  0.  0.
   225  2.24  0.  0.
   226  2.25  0.  0.
   227  2.26  0.  0.
   228  2.27  0.  0.
   229  2.28  0.  0.
   230  2.29  0.  0.
   231  2.30  0.  0.
   232  2.31  0.  0.
   233  2.32  0.  0.
   234  2.33  0.  0.
   235  2.34  0.  0.
   236  2.35  0.  0.
   237  2.36  0.  0.
   238  2.37  0.  0.
   239  2.38  0.  0.
   240  2.39  0.  0.
   241  2.40  0.  0.
   242  2.41  0.  0.
   243  2.42  0.  0.
   244  2.43  0.  0.
   245  2.44  0.  0.
   246  2.45  0.  0.
   247  2.46  0.  0.
   248  2.47  0.  0.
   249  2.48  0.  0.
   250  2.49  0.  0.
   251  2.50  0.  0.
   252  2.51  0.  0.
   253  2.52  0.  0.
   254  2.53  0.  0.
   255  2.54  0.  0.
   256  2.55  0.  0.
   257  2.56  0.  0.
   258  2.57  0.  0.
   259  2.58  0.  0.
   260  2.59  0.  0.
   261  2.60  0.  0.
   262  2.61  0.  0.
   263  2.62  0.  0.
   264  2.63  0.  0.
   265  2.64  0.  0.
   266  2.65  0.  0.
   267  2.66  0.  0.
   268  2.67  0.  0.
   269  2.68  0.  0.
   270  2.69  0.  0.
   271  2.70  0.  0.
   272  2.71  0.  0.
   273  2.72  0.  0.
   274  2.73  0.  0.
   275  2.74  0.  0.
   276  2.75  0.  0.
   277  2.76  0.  0.
   278  2.77  0.  0.
   279  2.78  0.  0.
   280  2.79  0.  0.
   281  2.80  0.  0.
   282  2.81  0.  0.
   283  2.82  0.  0.
   284  2.83  0.  0.
   285  2.84  0.  0.
   286  2.85  0.  0.
   287  2.86  0.  0.
   288  2.87  0.  0.
   289  2.88  0.  0.
   290  2.89  0.  0.
   291  2.90  0.  0.
   292  2.91  0.  0.
   293  2.92  0.  0.
   294  2.93  0.  0.
   295  2.94  0.  0.
   296  2.95  0.  0.
   297  2.96  0.  0.
   298  2.97  0.  0.
   299  2.98  0.  0.
   300  2.99  0.  0.
   301  3.00  0.  0.
   302  3.01  0.  0.
   303  3.02  0.  0.
   304  3.03  0.  0.
   305  3.04  0.  0.
   306  3.05  0.  0.
   307  3.06  0.  0.
   308  3.07  0.  0.
   309  3.08  0.  0.
   310  3.09  0.  0.
   311  3.10  0.  0.
   312  3.11  0.  0.
   313  3.12  0.  0.
   314  3.13  0.  0.
   315  3.14  0.  0.
   316  3.15  0.  0.
   317  3.16  0.  0.
   318  3.17  0.  0.
   319  3.18  0.  0.
   320  3.19  0.  0.
   321  3.20  0.  0.
   322  3.21  0.  0.
   323  3.22  0.  0.
   324  3.23  0.  0.
   325  3.24  0.  0.
   326  3.25  0.  0.
   327  3.26  0.  0.
   328  3.27  0.  0.
   329  3.28  0.  0.
   330  3.29  0.  0.
   331  3.30  0.  0.
   332  3.31  0.  0.
   333  3.32  0.  0.
   334  3.33  0.  0.
   335  3.34  0.  0.
   336  3.35  0.  0.
   337  3.36  0.  0.
   338  3.37  0.  0.
   339  3.38  0.  0.
   340  3.39  0.  0.
   341  3.40  0.  0.
   342  3.41  0.  0.
   343  3.42  0.  0.
   344  3.43  0.  0.
   345  3.44  0.  0.
   346  3.45  0.  0.
   347  3.46  0.  0.
   348  3.47  0.  0.
   349  3.48  0.  0.
   350  3.49  0.  0.
   351  3.50  0.  0.
   352  3.51  0.  0.
   353  3.52  0.  0.
   354  3.53  0.  0.
   355  3.54  0.  0.
   356  3.55  0.  0.
   357  3.56  0.  0.
   358  3.57  0.  0.
   359  3.58  0.  0.
   360  3.59  0.  0.
   361  3.60  0.  0.
   362  3.61  0.  0.
   363  3.62  0.  0.
   364  3.63  0.  0.
   365  3.64  0.  0.
   366  3.65  0.  0.
   367  3.66  0.  0.
   368  3.67  0.  0.
   369  3.68  0.  0.
   370  3.69  0.  0.
   371  3.70  0.  0.
   372  3.71  0.  0.
   373  3.72  0.  0.
   374  3.73  0.  0.
   375  3.74  0.  0.
   376  3.75  0.  0.
   377  3.76  0.  0.
   378  3.77  0.  0.
   379  3.78  0.  0.
   380  3.79  0.  0.
   381  3.80  0.  0.
   382  3.81  0.  0.
   383  3.82  0.  0.
   384  3.83  0.  0.
   385  3.84  0.  0.
   386  3.85  0.  0.
   387  3.86  0.  0.
   388  3.87  0.  0.
   389  3.88  0.  0.
   390  3.89  0.  0.
   391  3.90  0.  0.
   392  3.91  0.  0.
   393  3.92  0.  0.
   394  3.93  0.  0.
   395  3.94  0.  0.
   396  3.95  0.  0.
   397  3.96  0.  0.
   398  3.97  0.  0.
   399  3.98  0.  0.
   400  3.99  0.  0.
   401  4.00  0.  0.
   402  4.01  0.  0.
   403  4.02  0.  0.
   404  4.03  0.  0.
   405  4.04  0.  0.
   406  4.05  0.  0.
   407  4.06  0.  0.
   408  4.07  0.  0.
   409  4.08  0.  0.
   410  4.09  0.  0.
   411  4.10  0.  0.
   412  4.11  0.  0.
   413  4.12  0.  0.
   414  4.13  0.  0.
   415  4.14  0.  0.
   416  4.15  0.  0.
   417  4.16  0.  0.
   418  4.17  0.  0.
   419  4.18  0.  0.
   420  4.19  0.  0.
   421  4.20  0.  0.
   422  4.21  0.  0.
   423  4.22  0.  0.
   424  4.23  0.  0.
   425  4.24  0.  0.
   426  4.25  0.  0.
   427  4.26  0.  0.
   428  4.27  0.  0.
   429  4.28  0.  0.
   430  4.29  0.  0.
   431  4.30  0.  0.
   432  4.31  0.  0.
   433  4.32  0.  0.
   434  4.33  0.  0.
   435  4.34  0.  0.
   436  4.35  0.  0.
   437  4.36  0.  0.
   438  4.37  0.  0.
   439  4.38  0.  0.
   440  4.39  0.  0.
   441  4.40  0.  0.
   442  4.41  0.  0.
   443  4.42  0.  0.
   444  4.43  0.  0.
   445  4.44  0.  0.
   446  4.45  0.  0.
   447  4.46  0.  0.
   448  4.47  0.  0.
   449  4.48  0.  0.
   450  4.49  0.  0.
   451  4.50  0.  0.
   452  4.51  0.  0.
   453  4.52  0.  0.
   454  4.53  0.  0.
   455  4.54  0.  0.
   456  4.55  0.  0.
   457  4.56  0.  0.
   458  4.57  0.  0.
   459  4.58  0.  0.
   460  4.59  0.  0.
   461  4.60  0.  0.
   462  4.61  0.  0.
   463  4.62  0.  0.
   464  4.63  0.  0.
   465  4.64  0.  0.
   466  4.65  0.  0.
   467  4.66  0.  0.
   468  4.67  0.  0.
   469  4.68  0.  0.
   470  4.69  0.  0.
   471  4.70  0.  0.
   472  4.71  0.  0.
   473  4.72  0.  0.
   474  4.73  0.  0.
   475  4.74  0.  0.
   476  4.75  0.  0.
   477  4.76  0.  0.
   478  4.77  0.  0.
   479  4.78  0.  0.
   480  4.79  0.  0.
   481  4.80  0.  0.
   482  4.81  0.  0.
   483  4.82  0.  0.
   484  4.83  0.  0.
   485  4.84  0.  0.
   486  4.85  0.  0.
   487  4.86  0.  0.
   488  4.87  0.  0.
   489  4.88  0.  0.
   490  4.89  0.  0.
   491  4.90  0.  0.
   492  4.91  0.  0.
   493  4.92  0.  0.
   494  4.93  0.  0.
   495  4.94  0.  0.
   496  4.95  0.  0.
   497  4.96  0.  0.
   498  4.97  0.  0.
   499  4.98  0.  0.
   500  4.99  0.  0.
   501  5.00  0.  0.
   502  5.01  0.  0.
   503  5.02  0.  0.
   504  5.03  0.  0.
   505  5.04  0.  0.
   506  5.05  0.  0.
   507  5.06  0.  0.
   508  5.07  0.  0.
   509  5.08  0.  0.
   510  5.09  0.  0.
   511  5.10  0.  0.
   512  5.11  0.  0.
   513  5.12  0.  0.
   514  5.13  0.  0.
   515  5.14  0.  0.
   516  5.15  0.  0.
   517  5.16  0.  0.
   518  5.17  0.  0.
   519  5.18  0.  0.
   520  5.19  0.  0.
   521  5.20  0.  0.
   522  5.21  0.  0.
   523  5.22  0.  0.
   524  5.23  0.  0.
   525  5.24  0.  0.
   526  5.25  0.  0.
   527  5.26  0.  0.
   528  5.27  0.  0.
   529  5.28  0.  0.
   530  5.29  0.  0.
   531  5.30  0.  0.
   532  5.31  0.  0.
   533  5.32  0.  0.
   534  5.33  0.  0.
   535  5.34  0.  0.
   536  5.35  0.  0.
   537  5.36  0.  0.
   538  5.37  0.  0.
   539  5.38  0.  0.
   540  5.39  0.  0.
   541  5.40  0.  0.
   542  5.41  0.  0.
   543  5.42  0.  0.
   544  5.43  0.  0.
   545  5.44  0.  0.
   546  5.45  0.  0.
   547  5.46  0.  0.
   548  5.47  0.  0.
   549  5.48  0.  0.
   550  5.49  0.  0.
   551  5.50  0.  0.
   552  5.51  0.  0.
   553  5.52  0.  0.
   554  5.53  0.  0.
   555  5.54  0.  0.
   556  5.55  0.  0.
   557  5.56  0.  0.
   558  5.57  0.  0.
   559  5.58  0.  0.
   560  5.59  0.  0.
   561  5.60  0.  0.
   562  5.61  0.  0.
   563  5.62  0.  0.
   564  5.63  0.  0.
   565  5.64  0.  0.
   566  5.65  0.  0.
   567  5.66  0.  0.
   568  5.67  0.  0.
   569  5.68  0.  0.
   570  5.69  0.  0.
   571  5.70  0.  0.
   572  5.71  0.  0.
   573  5.72  0.  0.
   574  5.73  0.  0.
   575  5.74  0.  0.
   576  5.75  0.  0.
   577  5.76  0.  0.
   578  5.77  0.  0.
   579  5.78  0.  0.
   580  5.79  0.  0.
   581  5.80  0.  0.
   582  5.81  0.  0.
   583  5.82  0.  0.
   584  5.83  0.  0.
   585  5.84  0.  0.
   586  5.85  0.  0.
   587  5.86  0.  0.
   588  5.87  0.  0.
   589  5.88  0.  0.
   590  5.89  0.  0.
   591  5.90  0.  0.
   592  5.91  0.  0.
   593  5.92  0.  0.
   594  5.93  0.  0.
   595  5.94  0.  0.
   596  5.95  0.  0.
   597  5.96  0.  0.
   598  5.97  0.  0.
   599  5.98  0.  0.
   600  5.99  0.  0.
   1                         5.4690375049964E+00  7.0511484198422E-01  2.4816905861517E-02
     1  0.0000000000000E+00 -3.3650961964865E-10  8.0250630446477E-10 -1.4625955724323E-09
     2  1.0000000000000E-02  1.0745418168317E-04  3.2528588014847E-04 -1.1841631336651E-03
     3  2.0000000000000E-02  4.3201000851186E-04  1.2956743627681E-03 -4.7256047638921E-03
     4  3.0000000000000E-02  9.8022520920776E-04  2.8948102229049E-03 -1.0591277976281E-02
     5  4.0000000000000E-02  1.7629557882520E-03  5.0956084877690E-03 -1.8726425129820E-02
     6  5.0000000000000E-02  2.7952463347959E-03  7.8605135511600E-03 -2.9055055967921E-02
     7  6.0000000000000E-02  4.0961776984251E-03  1.1141858967401E-02 -4.1480611567818E-02
     8  7.0000000000000E-02  5.6886732640621E-03  1.4882324984996E-02 -5.5886808770042E-02
     9  8.0000000000000E-02  7.5992653948039E-03  1.9015490077716E-02 -7.2138658267121E-02
    10  9.0000000000000E-02  9.8578239363761E-03  2.3466471956292E-02 -9.0083648118397E-02
    11  1.0000000000000E-01  1.2497248987854E-02  2.8152652802818E-02 -1.0955308310658E-01
    12  1.1000000000000E-01  1.5553130437920E-02  3.2984482768205E-02 -1.3036356907190E-01
    13  1.2000000000000E-01  1.9063377042055E-02  3.7866355115717E-02 -1.5231863016027E-01
    14  1.3000000000000E-01  2.3067818071599E-02  4.2697545785868E-02 -1.7521044581347E-01
    15  1.4000000000000E-01  2.7607780798531E-02  4.7373209604449E-02 -1.9882169331805E-01
    16  1.5000000000000E-01  3.2725647288457E-02  5.1785424860493E-02 -2.2292748082640E-01
    17  1.6000000000000E-01  3.8464394156839E-02  5.5824277548557E-02 -2.4729735497239E-01
    18  1.7000000000000E-01  4.4867119098638E-02  5.9378976203239E-02 -2.7169736653433E-01
    19  1.8000000000000E-01  5.1976558127876E-02  6.2338987956512E-02 -2.9589217705249E-01
    20  1.9000000000000E-01  5.9834597560176E-02  6.4595186222727E-02 -3.1964718889472E-01
    21  2.0000000000000E-01  6.8481784837151E-02  6.6041000264228E-02 -3.4273068098317E-01
    22  2.1000000000000E-01  7.7956842325945E-02  6.6573556813820E-02 -3.6491593225225E-01
    23  2.2000000000000E-01  8.8296188229879E-02  6.6094803930170E-02 -3.8598331490364E-01
    24  2.3000000000000E-01  9.9533468716741E-02  6.4512607338756E-02 -4.0572233966075E-01
    25  2.4000000000000E-01  1.1169910530982E-01  6.1741809664461E-02 -4.2393363550023E-01
    26  2.5000000000000E-01  1.2481986149357E-01  5.7705243191575E-02 -4.4043084675360E-01
    27  2.6000000000000E-01  1.3891843236130E-01  5.2334687091680E-02 -4.5504243102345E-01
    28  2.7000000000000E-01  1.5401306097699E-01  4.5571760437952E-02 -4.6761334204452E-01
    29  2.8000000000000E-01  1.7011718493877E-01  3.7368742773564E-02 -4.7800658243460E-01
    30  2.9000000000000E-01  1.8723911641791E-01  2.7689314519232E-02 -4.8610461222077E-01
    31  3.0000000000000E-01  2.0538175870703E-01  1.6509210087257E-02 -4.9181060008419E-01
    32  3.1000000000000E-01  2.2454236204478E-01  3.8167772127524E-03 -4.9504950543743E-01
    33  3.2000000000000E-01  2.4471232119475E-01 -1.0386563287195E-02 -4.9576898072154E-01
    34  3.3000000000000E-01  2.6587701694466E-01 -2.6085962363745E-02 -4.9394008467942E-01
    35  3.4000000000000E-01  2.8801570336038E-01 -4.3252896434612E-02 -4.8955779881629E-01
    36  3.5000000000000E-01  3.1110144228135E-01 -6.1845033329669E-02 -4.8264134078774E-01
    37  3.6000000000000E-01  3.3510108618018E-01 -8.1806213008498E-02 -4.7323427004963E-01
    38  3.7000000000000E-01  3.5997531013415E-01 -1.0306654467151E-01 -4.6140438275131E-01
    39  3.8000000000000E-01  3.8567869327135E-01 -1.2554262096133E-01 -4.4724339454022E-01
    40  3.9000000000000E-01  4.1215984966297E-01 -1.4913784901106E-01 -4.3086641166170E-01
    41  4.0000000000000E-01  4.3936160823820E-01 -1.7374289714839E-01 -4.1241119246806E-01
    42  4.1000000000000E-01  4.6722124090299E-01 -1.9923625511582E-01 -3.9203720318304E-01
    43  4.2000000000000E-01  4.9567073765056E-01 -2.2548490472585E-01 -3.6992447348854E-01
    44  4.3000000000000E-01  5.2463712706449E-01 -2.5234509694210E-01 -3.4627225919545E-01
    45  4.4000000000000E-01  5.5404284023606E-01 -2.7966323047155E-01 -3.2129752091807E-01
    46  4.5000000000000E-01  5.8380611575068E-01 -3.0727682607602E-01 -2.9523322927486E-01
    47  4.6000000000000E-01  6.1384144304543E-01 -3.3501558996980E-01 -2.6832650867915E-01
    48  4.7000000000000E-01  6.4406004110507E-01 -3.6270255887263E-01 -2.4083663324308E-01
    49  4.8000000000000E-01  6.7437036914934E-01 -3.9015531853933E-01 -2.1303288968966E-01
    50  4.9000000000000E-01  7.0467866567294E-01 -4.1718728689599E-01 -1.8519232343480E-01
    51  5.0000000000000E-01  7.3488951193389E-01 -4.4360905228347E-01 -1.5759738515531E-01
    52  5.1000000000000E-01  7.6490641574848E-01 -4.6922975674909E-01 -1.3053349618793E-01
    53  5.2000000000000E-01  7.9463241124366E-01 -4.9385851383999E-01 -1.0428655199923E-01
    54  5.3000000000000E-01  8.2397067004267E-01 -5.1730584994397E-01 -7.9140383717482E-02
    55  5.4000000000000E-01  8.5282511921908E-01 -5.3938515789766E-01 -5.5374198317752E-02
    56  5.5000000000000E-01  8.8110106124885E-01 -5.5991415134322E-01 -3.3260018493776E-02
    57  5.6000000000000E-01  9.0870579112197E-01 -5.7871630816479E-01 -1.3060143528105E-02
    58  5.7000000000000E-01  9.3554920574473E-01 -5.9562229127863E-01  4.9753474179413E-03
    59  5.8000000000000E-01  9.6154440077195E-01 -6.1047133508633E-01  2.0611028234290E-02
    60  5.9000000000000E-01  9.8660825005598E-01 -6.2311258603097E-01  3.3628473887062E-02
    61  6.0000000000000E-01  1.0106619629855E+00 -6.3340638592120E-01  4.3828502822283E-02
    62  6.1000000000000E-01  1.0336316151130E+00 -6.4122548700714E-01  5.1033293614224E-02
    63  6.2000000000000E-01  1.0554486476341E+00 -6.4645618820447E-01  5.5088356477374E-02
    64  6.3000000000000E-01  1.0760503314819E+00 -6.4899938236562E-01  5.5864341181017E-02
    65  6.4000000000000E-01  1.0953801920413E+00 -6.4877150508811E-01  5.3258663988816E-02
    66  6.5000000000000E-01  1.1133883907567E+00 -6.4570537622518E-01  4.7196937483055E-02
    67  6.6000000000000E-01  1.1300320602173E+00 -6.3975092601928E-01  3.7634188520810E-02
    68  6.7000000000000E-01  1.1452755896400E+00 -6.3087579860931E-01  2.4555851094406E-02
    69  6.8000000000000E-01  1.1590908580361E+00 -6.1906582656217E-01  7.9785225223057E-03
    70  6.9000000000000E-01  1.1714574127434E+00 -6.0432537104169E-01 -1.2049526831698E-02
    71  7.0000000000000E-01  1.1823625914179E+00 -5.8667752324674E-01 -3.5448098237890E-02
    72  7.1000000000000E-01  1.1918015860210E+00 -5.6616416381688E-01 -6.2105069639622E-02
    73  7.2000000000000E-01  1.1997774477869E+00 -5.4284587801138E-01 -9.1876664970934E-02
    74  7.3000000000000E-01  1.2063010326261E+00 -5.1680172560640E-01 -1.2458798956931E-01
    75  7.4000000000000E-01  1.2113908868948E+00 -4.8812886561697E-01 -1.6003383135460E-01
    76  7.5000000000000E-01  1.2150730739470E+00 -4.5694203712613E-01 -1.9797972527128E-01