Sb    ONCVPSP-4.0.1  r_core=   2.00296   2.10115   1.80928
     51.0000     15.0000      250217    zatom,zion,pspd
     8       2   2     4   600     0    pspcod,pspxc,lmax,lloc,mmax,r2well
  5.99000000  5.00000000  0.00000000    rchrg fchrg qchrg
     2     3     2     0    nproj
     3     1           extension_switch
     4     3     0    nprojso
   0                         6.7961059086444E+00  1.2731288934573E+00
     1  0.0000000000000E+00  1.7237294230865E-10 -4.2923520293670E-10
     2  1.0000000000000E-02 -5.3589915239332E-03  5.8872640854724E-02
     3  2.0000000000000E-02 -1.0561679259230E-02  1.1732162919981E-01
     4  3.0000000000000E-02 -1.5452814884017E-02  1.7492608947390E-01
     5  4.0000000000000E-02 -1.9879254116871E-02  2.3127068232067E-01
     6  5.0000000000000E-02 -2.3690991548115E-02  2.8594832857141E-01
     7  6.0000000000000E-02 -2.6742174966586E-02  3.3856288058793E-01
     8  7.0000000000000E-02 -2.8892092549958E-02  3.8873172392415E-01
     9  8.0000000000000E-02 -3.0006126459103E-02  4.3608829269454E-01
    10  9.0000000000000E-02 -2.9956666590538E-02  4.8028448256903E-01
    11  1.0000000000000E-01 -2.8623978494644E-02  5.2099294594634E-01
    12  1.1000000000000E-01 -2.5897019759261E-02  5.5790925458538E-01
    13  1.2000000000000E-01 -2.1674199487144E-02  5.9075391579446E-01
    14  1.3000000000000E-01 -1.5864075859236E-02  6.1927422918543E-01
    15  1.4000000000000E-01 -8.3859871720262E-03  6.4324597198926E-01
    16  1.5000000000000E-01  8.2938783629290E-04  6.6247490199566E-01
    17  1.6000000000000E-01  1.1839544101822E-02  6.7679806831542E-01
    18  1.7000000000000E-01  2.4689742044812E-02  6.8608492136431E-01
    19  1.8000000000000E-01  3.9412679823647E-02  6.9023821472367E-01
    20  1.9000000000000E-01  5.6028248262687E-02  6.8919469283929E-01
    21  2.0000000000000E-01  7.4543370147288E-02  6.8292555986719E-01
    22  2.1000000000000E-01  9.4951925030250E-02  6.7143672635674E-01
    23  2.2000000000000E-01  1.1723476013561E-01  6.5476883186753E-01
    24  2.3000000000000E-01  1.4135978738166E-01  6.3299704304030E-01
    25  2.4000000000000E-01  1.6728216597881E-01  6.0623062807372E-01
    26  2.5000000000000E-01  1.9494456949289E-01  5.7461230998996E-01
    27  2.6000000000000E-01  2.2427753570458E-01  5.3831740249391E-01
    28  2.7000000000000E-01  2.5519989704418E-01  4.9755273363444E-01
    29  2.8000000000000E-01  2.8761928884181E-01  4.5255536385250E-01
    30  2.9000000000000E-01  3.2143273210917E-01  4.0359110634187E-01
    31  3.0000000000000E-01  3.5652728706504E-01  3.5095285894437E-01
    32  3.1000000000000E-01  3.9278077313440E-01  2.9495875804487E-01
    33  3.2000000000000E-01  4.3006255069535E-01  2.3595016611381E-01
    34  3.3000000000000E-01  4.6823435942066E-01  1.7428950565826E-01
    35  3.4000000000000E-01  5.0715120766615E-01  1.1035795337939E-01
    36  3.5000000000000E-01  5.4666230699752E-01  4.4553009287055E-02
    37  3.6000000000000E-01  5.8661204562480E-01 -2.2714043614746E-02
    38  3.7000000000000E-01  6.2684099423080E-01 -9.1020772692403E-02
    39  3.8000000000000E-01  6.6718693743904E-01 -1.5993630505412E-01
    40  3.9000000000000E-01  7.0748592397034E-01 -2.2902409532945E-01
    41  4.0000000000000E-01  7.4757332838608E-01 -2.9784473381400E-01
    42  4.1000000000000E-01  7.8728491721257E-01 -3.6595877660802E-01
    43  4.2000000000000E-01  8.2645791218535E-01 -4.3292957916860E-01
    44  4.3000000000000E-01  8.6493204334585E-01 -4.9832611460671E-01
    45  4.4000000000000E-01  9.0255058476588E-01 -5.6172575809564E-01
    46  4.5000000000000E-01  9.3916136576806E-01 -6.2271701891540E-01
    47  4.6000000000000E-01  9.7461775065271E-01 -6.8090220194062E-01
    48  4.7000000000000E-01  1.0087795801326E+00 -7.3589998078392E-01
    49  4.8000000000000E-01  1.0415140679163E+00 -7.8734786533390E-01
    50  4.9000000000000E-01  1.0726966461678E+00 -8.3490454707160E-01
    51  5.0000000000000E-01  1.1022117538998E+00 -8.7825210631090E-01
    52  5.1000000000000E-01  1.1299535627353E+00 -9.1709806637947E-01
    53  5.2000000000000E-01  1.1558266348870E+00 -9.5117728073683E-01
    54  5.3000000000000E-01  1.1797465086595E+00 -9.8025364010451E-01
    55  5.4000000000000E-01  1.2016402072698E+00 -1.0041215878577E+00
    56  5.5000000000000E-01  1.2214466673073E+00 -1.0226074331884E+00
    57  5.6000000000000E-01  1.2391170837059E+00 -1.0355704528899E+00
    58  5.7000000000000E-01  1.2546151686792E+00 -1.0429037740232E+00
    59  5.8000000000000E-01  1.2679173226755E+00 -1.0445350311988E+00
    60  5.9000000000000E-01  1.2790127160223E+00 -1.0404267937289E+00
    61  6.0000000000000E-01  1.2879032805669E+00 -1.0305767594742E+00
    62  6.1000000000000E-01  1.2946036112599E+00 -1.0150177138021E+00
    63  6.2000000000000E-01  1.2991407782753E+00 -9.9381725369260E-01
    64  6.3000000000000E-01  1.3015540509082E+00 -9.6707727865318E-01
    65  6.4000000000000E-01  1.3018945351307E+00 -9.3493325172513E-01
    66  6.5000000000000E-01  1.3002247273230E+00 -8.9755323547558E-01
    67  6.6000000000000E-01  1.2966179873131E+00 -8.5513670945067E-01
    68  6.7000000000000E-01  1.2911579344578E+00 -8.0791317711262E-01
    69  6.8000000000000E-01  1.2839377710770E+00 -7.5614057178082E-01
    70  6.9000000000000E-01  1.2750595381008E+00 -7.0010347253545E-01
    71  7.0000000000000E-01  1.2646333083056E+00 -6.4011114240943E-01
    72  7.1000000000000E-01  1.2527763229979E+00 -5.7649540248190E-01
    73  7.2000000000000E-01  1.2396120784436E+00 -5.0960835668132E-01
    74  7.3000000000000E-01  1.2252693687396E+00 -4.3981998320266E-01
    75  7.4000000000000E-01  1.2098812921729E+00 -3.6751560942930E-01
    76  7.5000000000000E-01  1.1935842284138E+00 -2.9309328811937E-01
    77  7.6000000000000E-01  1.1765167941362E+00 -2.1696109336167E-01
    78  7.7000000000000E-01  1.1588187848504E+00 -1.3953435541999E-01
    79  7.8000000000000E-01  1.1406301108686E+00 -6.1232854062908E-02
    80  7.9000000000000E-01  1.1220897353988E+00  1.7522009687267E-02
    81  8.0000000000000E-01  1.1033346227817E+00  9.6310043259842E-02
    82  8.1000000000000E-01  1.0844987048373E+00  1.7471507352317E-01
    83  8.2000000000000E-01  1.0657118731878E+00  2.5232771898426E-01
    84  8.3000000000000E-01  1.0470990052553E+00  3.2874810338164E-01
    85  8.4000000000000E-01  1.0287790314087E+00  4.0358849125083E-01
    86  8.5000000000000E-01  1.0108640504537E+00  4.7647582658615E-01
    87  8.6000000000000E-01  9.9345850031705E-01  5.4705415640865E-01
    88  8.7000000000000E-01  9.7665839038316E-01  6.1498692187499E-01
    89  8.8000000000000E-01  9.6055060149589E-01  6.7995910051948E-01
    90  8.9000000000000E-01  9.4521225914117E-01  7.4167918430513E-01
    91  9.0000000000000E-01  9.3071018478643E-01  7.9988097936280E-01
    92  9.1000000000000E-01  9.1710042976981E-01  8.5432521461033E-01
    93  9.2000000000000E-01  9.0442789551168E-01  9.0480094785776E-01
    94  9.3000000000000E-01  8.9272604316809E-01  9.5112675951023E-01
    95  9.4000000000000E-01  8.8201669516386E-01  9.9315172556423E-01
    96  9.5000000000000E-01  8.7230993033900E-01  1.0307561632459E+00
    97  9.6000000000000E-01  8.6360407371928E-01  1.0638521443481E+00
    98  9.7000000000000E-01  8.5588578118788E-01  1.0923837730746E+00
    99  9.8000000000000E-01  8.4913021859344E-01  1.1163272269770E+00
   100  9.9000000000000E-01  8.4330133408877E-01  1.1356905613705E+00
   101  1.0000000000000E+00  8.3835222175752E-01  1.1505132794059E+00
   102  1.0100000000000E+00  8.3422557386060E-01  1.1608656717640E+00
   103  1.0200000000000E+00  8.3085421832565E-01  1.1668479316968E+00
   104  1.0300000000000E+00  8.2816173741688E-01  1.1685890528527E+00
   105  1.0400000000000E+00  8.2606316286425E-01  1.1662455189944E+00
   106  1.0500000000000E+00  8.2446574210762E-01  1.1599997963062E+00
   107  1.0600000000000E+00  8.2326976972553E-01  1.1500586405090E+00
   108  1.0700000000000E+00  8.2236947757734E-01  1.1366512324213E+00
   109  1.0800000000000E+00  8.2165397669458E-01  1.1200271569225E+00
   110  1.0900000000000E+00  8.2100824351693E-01  1.1004542414809E+00
   111  1.1000000000000E+00  8.2031414268535E-01  1.0782162714813E+00
   112  1.1100000000000E+00  8.1945147828118E-01  1.0536106005361E+00
   113  1.1200000000000E+00  8.1829906514037E-01  1.0269456747592E+00
   114  1.1300000000000E+00  8.1673581167708E-01  9.9853849063543E-01
   115  1.1400000000000E+00  8.1464180552477E-01  9.6871200661509E-01
   116  1.1500000000000E+00  8.1189939324454E-01  9.3779252889500E-01
   117  1.1600000000000E+00  8.0839424536357E-01  9.0610709202503E-01
   118  1.1700000000000E+00  8.0401639808880E-01  8.7398085498363E-01
   119  1.1800000000000E+00  7.9866126319421E-01  8.4173453320969E-01
   120  1.1900000000000E+00  7.9223059780223E-01  8.0968188675466E-01
   121  1.2000000000000E+00  7.8463342606968E-01  7.7812728423493E-01
   122  1.2100000000000E+00  7.7578690514583E-01  7.4736336161748E-01
   123  1.2200000000000E+00  7.6561712818827E-01  7.1766879407670E-01
   124  1.2300000000000E+00  7.5405985770395E-01  6.8930619820905E-01
   125  1.2400000000000E+00  7.4106118301909E-01  6.6252018080603E-01
   126  1.2500000000000E+00  7.2657809627061E-01  6.3753554916688E-01
   127  1.2600000000000E+00  7.1057898195194E-01  6.1455569658381E-01
   128  1.2700000000000E+00  6.9304401572529E-01  5.9376117518272E-01
   129  1.2800000000000E+00  6.7396546893275E-01  5.7530846674381E-01
   130  1.2900000000000E+00  6.5334791599162E-01  5.5932896048057E-01
   131  1.3000000000000E+00  6.3120834263531E-01  5.4592814504144E-01
   132  1.3100000000000E+00  6.0757615376071E-01  5.3518502021835E-01
   133  1.3200000000000E+00  5.8249308045519E-01  5.2715173201940E-01
   134  1.3300000000000E+00  5.5601298659571E-01  5.2185343290803E-01
   135  1.3400000000000E+00  5.2820157622938E-01  5.1928836714574E-01
   136  1.3500000000000E+00  4.9913600376249E-01  5.1942817929348E-01
   137  1.3600000000000E+00  4.6890438978241E-01  5.2221844207851E-01
   138  1.3700000000000E+00  4.3760524611878E-01  5.2757939800386E-01
   139  1.3800000000000E+00  4.0534681450399E-01  5.3540690730267E-01
   140  1.3900000000000E+00  3.7224632391784E-01  5.4557359311314E-01
   141  1.4000000000000E+00  3.3842917238357E-01  5.5793017311196E-01
   142  1.4100000000000E+00  3.0402803962377E-01  5.7230696528464E-01
   143  1.4200000000000E+00  2.6918193757394E-01  5.8851555406160E-01
   144  1.4300000000000E+00  2.3403520628940E-01  6.0635060170472E-01
   145  1.4400000000000E+00  1.9873646325752E-01  6.2559178861627E-01
   146  1.4500000000000E+00  1.6343751454120E-01  6.4600586516264E-01
   147  1.4600000000000E+00  1.2829223652711E-01  6.6734879667004E-01
   148  1.4700000000000E+00  9.3455437329837E-02  6.8936798246518E-01
   149  1.4800000000000E+00  5.9081707107893E-02  7.1180452921158E-01
   150  1.4900000000000E+00  2.5324266679962E-02  7.3439555832870E-01
   151  1.5000000000000E+00 -7.6661761150706E-03  7.5687652698996E-01
   152  1.5100000000000E+00 -3.9742552890079E-02  7.7898354207208E-01
   153  1.5200000000000E+00 -7.0762534685143E-02  8.0045564647590E-01
   154  1.5300000000000E+00 -1.0058959628876E-01  8.2103705745712E-01
   155  1.5400000000000E+00 -1.2909403599162E-01  8.4047933699170E-01
   156  1.5500000000000E+00 -1.5615394217698E-01  8.5854347475375E-01
   157  1.5600000000000E+00 -1.8165609853663E-01  8.7500186499250E-01
   158  1.5700000000000E+00 -2.0549682015467E-01  8.8964015946340E-01
   159  1.5800000000000E+00 -2.2758271320346E-01  9.0225897940106E-01
   160  1.5900000000000E+00 -2.4783135156086E-01  9.1267547080913E-01
   161  1.6000000000000E+00 -2.6617186522836E-01  9.2072469964280E-01
   162  1.6100000000000E+00 -2.8254543042738E-01  9.2626081261074E-01
   163  1.6200000000000E+00 -2.9690570775707E-01  9.2915862717071E-01
   164  1.6300000000000E+00 -3.0921927367888E-01  9.2931595130790E-01
   165  1.6400000000000E+00 -3.1946594203326E-01  9.2665507354278E-01
   166  1.6500000000000E+00 -3.2763894609971E-01  9.2112339452415E-01
   167  1.6600000000000E+00 -3.3374502067960E-01  9.1269389385915E-01
   168  1.6700000000000E+00 -3.3780438021772E-01  9.0136537030872E-01
   169  1.6800000000000E+00 -3.3985059357130E-01  8.8716246453063E-01
   170  1.6900000000000E+00 -3.3993035634795E-01  8.7013546502036E-01
   171  1.7000000000000E+00 -3.3810316247346E-01  8.5035989921040E-01
   172  1.7100000000000E+00 -3.3444087743747E-01  8.2793591363523E-01
   173  1.7200000000000E+00 -3.2902721641841E-01  8.0298744875871E-01
   174  1.7300000000000E+00 -3.2195713121876E-01  7.7566121570135E-01
   175  1.7400000000000E+00 -3.1333611063996E-01  7.4612548368333E-01
   176  1.7500000000000E+00 -3.0327939958941E-01  7.1456868850337E-01
   177  1.7600000000000E+00 -2.9191114283412E-01  6.8119787379189E-01
   178  1.7700000000000E+00 -2.7936345989245E-01  6.4623697809850E-01
   179  1.7800000000000E+00 -2.6577545808218E-01  6.0992498208810E-01
   180  1.7900000000000E+00 -2.5129219121675E-01  5.7251393121820E-01
   181  1.8000000000000E+00 -2.3606357185703E-01  5.3426685024339E-01
   182  1.8100000000000E+00 -2.2024324538182E-01  4.9545556673409E-01
   183  1.8200000000000E+00 -2.0398743443252E-01  4.5635846149957E-01
   184  1.8300000000000E+00 -1.8745376251453E-01  4.1725816436446E-01
   185  1.8400000000000E+00 -1.7080006569792E-01  3.7843921415829E-01
   186  1.8500000000000E+00 -1.5418320145202E-01  3.4018570203818E-01
   187  1.8600000000000E+00 -1.3775786367192E-01  3.0277891737341E-01
   188  1.8700000000000E+00 -1.2167541379336E-01  2.6649501747285E-01
   189  1.8800000000000E+00 -1.0608272767629E-01  2.3160271843571E-01
   190  1.8900000000000E+00 -9.1121106836922E-02  1.9836111844169E-01
   191  1.9000000000000E+00 -7.6925168150160E-02  1.6701745755993E-01
   192  1.9100000000000E+00 -6.3621394291575E-02  1.3780402764271E-01
   193  1.9200000000000E+00 -5.1327218182458E-02  1.1093629764821E-01
   194  1.9300000000000E+00 -4.0152003220759E-02  8.6615584907614E-02
   195  1.9400000000000E+00 -3.0194662536784E-02  6.5023775706712E-02
   196  1.9500000000000E+00 -2.1542805507728E-02  4.6321549423439E-02
   197  1.9600000000000E+00 -1.4272120346903E-02  3.0647128040174E-02
   198  1.9700000000000E+00 -8.4473775895010E-03  1.8118478199806E-02
   199  1.9800000000000E+00 -4.1111222217906E-03  8.8091789656764E-03
   200  1.9900000000000E+00 -1.3086342649715E-03  2.8018370642284E-03
   201  2.0000000000000E+00 -1.1730821509538E-04  2.5097048286136E-04
   202  2.0100000000000E+00  4.6109323625891E-05 -9.8609482170977E-05
   203  2.0200000000000E+00 -1.6613412817975E-05  3.5542824010335E-05
   204  2.03  0.  0.
   205  2.04  0.  0.
   206  2.05  0.  0.
   207  2.06  0.  0.
   208  2.07  0.  0.
   209  2.08  0.  0.
   210  2.09  0.  0.
   211  2.10  0.  0.
   212  2.11  0.  0.
   213  2.12  0.  0.
   214  2.13  0.  0.
   215  2.14  0.  0.
   216  2.15  0.  0.
   217  2.16  0.  0.
   218  2.17  0.  0.
   219  2.18  0.  0.
   220  2.19  0.  0.
   221  2.20  0.  0.
   222  2.21  0.  0.
   223  2.22  0.  0.
   224  2.23  0.  0.
   225  2.24  0.  0.
   226  2.25  0.  0.
   227  2.26  0.  0.
   228  2.27  0.  0.
   229  2.28  0.  0.
   230  2.29  0.  0.
   231  2.30  0.  0.
   232  2.31  0.  0.
   233  2.32  0.  0.
   234  2.33  0.  0.
   235  2.34  0.  0.
   236  2.35  0.  0.
   237  2.36  0.  0.
   238  2.37  0.  0.
   239  2.38  0.  0.
   240  2.39  0.  0.
   241  2.40  0.  0.
   242  2.41  0.  0.
   243  2.42  0.  0.
   244  2.43  0.  0.
   245  2.44  0.  0.
   246  2.45  0.  0.
   247  2.46  0.  0.
   248  2.47  0.  0.
   249  2.48  0.  0.
   250  2.49  0.  0.
   251  2.50  0.  0.
   252  2.51  0.  0.
   253  2.52  0.  0.
   254  2.53  0.  0.
   255  2.54  0.  0.
   256  2.55  0.  0.
   257  2.56  0.  0.
   258  2.57  0.  0.
   259  2.58  0.  0.
   260  2.59  0.  0.
   261  2.60  0.  0.
   262  2.61  0.  0.
   263  2.62  0.  0.
   264  2.63  0.  0.
   265  2.64  0.  0.
   266  2.65  0.  0.
   267  2.66  0.  0.
   268  2.67  0.  0.
   269  2.68  0.  0.
   270  2.69  0.  0.
   271  2.70  0.  0.
   272  2.71  0.  0.
   273  2.72  0.  0.
   274  2.73  0.  0.
   275  2.74  0.  0.
   276  2.75  0.  0.
   277  2.76  0.  0.
   278  2.77  0.  0.
   279  2.78  0.  0.
   280  2.79  0.  0.
   281  2.80  0.  0.
   282  2.81  0.  0.
   283  2.82  0.  0.
   284  2.83  0.  0.
   285  2.84  0.  0.
   286  2.85  0.  0.
   287  2.86  0.  0.
   288  2.87  0.  0.
   289  2.88  0.  0.
   290  2.89  0.  0.
   291  2.90  0.  0.
   292  2.91  0.  0.
   293  2.92  0.  0.
   294  2.93  0.  0.
   295  2.94  0.  0.
   296  2.95  0.  0.
   297  2.96  0.  0.
   298  2.97  0.  0.
   299  2.98  0.  0.
   300  2.99  0.  0.
   301  3.00  0.  0.
   302  3.01  0.  0.
   303  3.02  0.  0.
   304  3.03  0.  0.
   305  3.04  0.  0.
   306  3.05  0.  0.
   307  3.06  0.  0.
   308  3.07  0.  0.
   309  3.08  0.  0.
   310  3.09  0.  0.
   311  3.10  0.  0.
   312  3.11  0.  0.
   313  3.12  0.  0.
   314  3.13  0.  0.
   315  3.14  0.  0.
   316  3.15  0.  0.
   317  3.16  0.  0.
   318  3.17  0.  0.
   319  3.18  0.  0.
   320  3.19  0.  0.
   321  3.20  0.  0.
   322  3.21  0.  0.
   323  3.22  0.  0.
   324  3.23  0.  0.
   325  3.24  0.  0.
   326  3.25  0.  0.
   327  3.26  0.  0.
   328  3.27  0.  0.
   329  3.28  0.  0.
   330  3.29  0.  0.
   331  3.30  0.  0.
   332  3.31  0.  0.
   333  3.32  0.  0.
   334  3.33  0.  0.
   335  3.34  0.  0.
   336  3.35  0.  0.
   337  3.36  0.  0.
   338  3.37  0.  0.
   339  3.38  0.  0.
   340  3.39  0.  0.
   341  3.40  0.  0.
   342  3.41  0.  0.
   343  3.42  0.  0.
   344  3.43  0.  0.
   345  3.44  0.  0.
   346  3.45  0.  0.
   347  3.46  0.  0.
   348  3.47  0.  0.
   349  3.48  0.  0.
   350  3.49  0.  0.
   351  3.50  0.  0.
   352  3.51  0.  0.
   353  3.52  0.  0.
   354  3.53  0.  0.
   355  3.54  0.  0.
   356  3.55  0.  0.
   357  3.56  0.  0.
   358  3.57  0.  0.
   359  3.58  0.  0.
   360  3.59  0.  0.
   361  3.60  0.  0.
   362  3.61  0.  0.
   363  3.62  0.  0.
   364  3.63  0.  0.
   365  3.64  0.  0.
   366  3.65  0.  0.
   367  3.66  0.  0.
   368  3.67  0.  0.
   369  3.68  0.  0.
   370  3.69  0.  0.
   371  3.70  0.  0.
   372  3.71  0.  0.
   373  3.72  0.  0.
   374  3.73  0.  0.
   375  3.74  0.  0.
   376  3.75  0.  0.
   377  3.76  0.  0.
   378  3.77  0.  0.
   379  3.78  0.  0.
   380  3.79  0.  0.
   381  3.80  0.  0.
   382  3.81  0.  0.
   383  3.82  0.  0.
   384  3.83  0.  0.
   385  3.84  0.  0.
   386  3.85  0.  0.
   387  3.86  0.  0.
   388  3.87  0.  0.
   389  3.88  0.  0.
   390  3.89  0.  0.
   391  3.90  0.  0.
   392  3.91  0.  0.
   393  3.92  0.  0.
   394  3.93  0.  0.
   395  3.94  0.  0.
   396  3.95  0.  0.
   397  3.96  0.  0.
   398  3.97  0.  0.
   399  3.98  0.  0.
   400  3.99  0.  0.
   401  4.00  0.  0.
   402  4.01  0.  0.
   403  4.02  0.  0.
   404  4.03  0.  0.
   405  4.04  0.  0.
   406  4.05  0.  0.
   407  4.06  0.  0.
   408  4.07  0.  0.
   409  4.08  0.  0.
   410  4.09  0.  0.
   411  4.10  0.  0.
   412  4.11  0.  0.
   413  4.12  0.  0.
   414  4.13  0.  0.
   415  4.14  0.  0.
   416  4.15  0.  0.
   417  4.16  0.  0.
   418  4.17  0.  0.
   419  4.18  0.  0.
   420  4.19  0.  0.
   421  4.20  0.  0.
   422  4.21  0.  0.
   423  4.22  0.  0.
   424  4.23  0.  0.
   425  4.24  0.  0.
   426  4.25  0.  0.
   427  4.26  0.  0.
   428  4.27  0.  0.
   429  4.28  0.  0.
   430  4.29  0.  0.
   431  4.30  0.  0.
   432  4.31  0.  0.
   433  4.32  0.  0.
   434  4.33  0.  0.
   435  4.34  0.  0.
   436  4.35  0.  0.
   437  4.36  0.  0.
   438  4.37  0.  0.
   439  4.38  0.  0.
   440  4.39  0.  0.
   441  4.40  0.  0.
   442  4.41  0.  0.
   443  4.42  0.  0.
   444  4.43  0.  0.
   445  4.44  0.  0.
   446  4.45  0.  0.
   447  4.46  0.  0.
   448  4.47  0.  0.
   449  4.48  0.  0.
   450  4.49  0.  0.
   451  4.50  0.  0.
   452  4.51  0.  0.
   453  4.52  0.  0.
   454  4.53  0.  0.
   455  4.54  0.  0.
   456  4.55  0.  0.
   457  4.56  0.  0.
   458  4.57  0.  0.
   459  4.58  0.  0.
   460  4.59  0.  0.
   461  4.60  0.  0.
   462  4.61  0.  0.
   463  4.62  0.  0.
   464  4.63  0.  0.
   465  4.64  0.  0.
   466  4.65  0.  0.
   467  4.66  0.  0.
   468  4.67  0.  0.
   469  4.68  0.  0.
   470  4.69  0.  0.
   471  4.70  0.  0.
   472  4.71  0.  0.
   473  4.72  0.  0.
   474  4.73  0.  0.
   475  4.74  0.  0.
   476  4.75  0.  0.
   477  4.76  0.  0.
   478  4.77  0.  0.
   479  4.78  0.  0.
   480  4.79  0.  0.
   481  4.80  0.  0.
   482  4.81  0.  0.
   483  4.82  0.  0.
   484  4.83  0.  0.
   485  4.84  0.  0.
   486  4.85  0.  0.
   487  4.86  0.  0.
   488  4.87  0.  0.
   489  4.88  0.  0.
   490  4.89  0.  0.
   491  4.90  0.  0.
   492  4.91  0.  0.
   493  4.92  0.  0.
   494  4.93  0.  0.
   495  4.94  0.  0.
   496  4.95  0.  0.
   497  4.96  0.  0.
   498  4.97  0.  0.
   499  4.98  0.  0.
   500  4.99  0.  0.
   501  5.00  0.  0.
   502  5.01  0.  0.
   503  5.02  0.  0.
   504  5.03  0.  0.
   505  5.04  0.  0.
   506  5.05  0.  0.
   507  5.06  0.  0.
   508  5.07  0.  0.
   509  5.08  0.  0.
   510  5.09  0.  0.
   511  5.10  0.  0.
   512  5.11  0.  0.
   513  5.12  0.  0.
   514  5.13  0.  0.
   515  5.14  0.  0.
   516  5.15  0.  0.
   517  5.16  0.  0.
   518  5.17  0.  0.
   519  5.18  0.  0.
   520  5.19  0.  0.
   521  5.20  0.  0.
   522  5.21  0.  0.
   523  5.22  0.  0.
   524  5.23  0.  0.
   525  5.24  0.  0.
   526  5.25  0.  0.
   527  5.26  0.  0.
   528  5.27  0.  0.
   529  5.28  0.  0.
   530  5.29  0.  0.
   531  5.30  0.  0.
   532  5.31  0.  0.
   533  5.32  0.  0.
   534  5.33  0.  0.
   535  5.34  0.  0.
   536  5.35  0.  0.
   537  5.36  0.  0.
   538  5.37  0.  0.
   539  5.38  0.  0.
   540  5.39  0.  0.
   541  5.40  0.  0.
   542  5.41  0.  0.
   543  5.42  0.  0.
   544  5.43  0.  0.
   545  5.44  0.  0.
   546  5.45  0.  0.
   547  5.46  0.  0.
   548  5.47  0.  0.
   549  5.48  0.  0.
   550  5.49  0.  0.
   551  5.50  0.  0.
   552  5.51  0.  0.
   553  5.52  0.  0.
   554  5.53  0.  0.
   555  5.54  0.  0.
   556  5.55  0.  0.
   557  5.56  0.  0.
   558  5.57  0.  0.
   559  5.58  0.  0.
   560  5.59  0.  0.
   561  5.60  0.  0.
   562  5.61  0.  0.
   563  5.62  0.  0.
   564  5.63  0.  0.
   565  5.64  0.  0.
   566  5.65  0.  0.
   567  5.66  0.  0.
   568  5.67  0.  0.
   569  5.68  0.  0.
   570  5.69  0.  0.
   571  5.70  0.  0.
   572  5.71  0.  0.
   573  5.72  0.  0.
   574  5.73  0.  0.
   575  5.74  0.  0.
   576  5.75  0.  0.
   577  5.76  0.  0.
   578  5.77  0.  0.
   579  5.78  0.  0.
   580  5.79  0.  0.
   581  5.80  0.  0.
   582  5.81  0.  0.
   583  5.82  0.  0.
   584  5.83  0.  0.
   585  5.84  0.  0.
   586  5.85  0.  0.
   587  5.86  0.  0.
   588  5.87  0.  0.
   589  5.88  0.  0.
   590  5.89  0.  0.
   591  5.90  0.  0.
   592  5.91  0.  0.
   593  5.92  0.  0.
   594  5.93  0.  0.
   595  5.94  0.  0.
   596  5.95  0.  0.
   597  5.96  0.  0.
   598  5.97  0.  0.
   599  5.98  0.  0.
   600  5.99  0.  0.
   1                         5.4663590861094E+00  7.0487130191026E-01  2.4829157616921E-02
     1  0.0000000000000E+00 -3.3693065872031E-10  8.0323420484363E-10 -1.4635036238442E-09
     2  1.0000000000000E-02  1.0713986165416E-04  3.2586062562741E-04 -1.1842739034594E-03
     3  2.0000000000000E-02  4.3075568739767E-04  1.2979683068669E-03 -4.7260479415494E-03
     4  3.0000000000000E-02  9.7741405618013E-04  2.8999527515449E-03 -1.0592275496797E-02
     5  4.0000000000000E-02  1.7579856338395E-03  5.1047040285233E-03 -1.8728199427904E-02
     6  5.0000000000000E-02  2.7875353492908E-03  7.8746319111786E-03 -2.9057830187894E-02
     7  6.0000000000000E-02  4.0851698860923E-03  1.1162025989117E-02 -4.1484609782671E-02
     8  7.0000000000000E-02  5.6738437232794E-03  1.4909513605442E-02 -5.5892256211584E-02
     9  8.0000000000000E-02  7.5801252962852E-03  1.9050611873639E-02 -7.2145781568084E-02
    10  9.0000000000000E-02  9.8339251740921E-03  2.3510369252848E-02 -9.0092675566785E-02
    11  1.0000000000000E-01  1.2468188460098E-02  2.8206091418513E-02 -1.0956424491157E-01
    12  1.1000000000000E-01  1.5518553919193E-02  3.3048145462996E-02 -1.3037709763954E-01
    13  1.2000000000000E-01  1.9022982609997E-02  3.7940835802796E-02 -1.5233476037640E-01
    14  1.3000000000000E-01  2.3021359057079E-02  4.2783344560724E-02 -1.7522941532978E-01
    15  1.4000000000000E-01  2.7555068231165E-02  4.7470728637376E-02 -1.9884374283647E-01
    16  1.5000000000000E-01  3.2666551814224E-02  5.1894965190876E-02 -2.2295285437562E-01
    17  1.6000000000000E-01  3.8398847409091E-02  5.5946036811045E-02 -2.4732630016946E-01
    18  1.7000000000000E-01  4.4795114508565E-02  5.9513047307447E-02 -2.7173013482297E-01
    19  1.8000000000000E-01  5.1898151165439E-02  6.2485358733186E-02 -2.9592902390908E-01
    20  1.9000000000000E-01  5.9749905401498E-02  6.4753740040489E-02 -3.1968837399190E-01
    21  2.0000000000000E-01  6.8390985459405E-02  6.6211517612135E-02 -3.4277646830045E-01
    22  2.1000000000000E-01  7.7860173035856E-02  6.6755717836161E-02 -3.6496659012235E-01
    23  2.2000000000000E-01  8.8193943636956E-02  6.6288191891127E-02 -3.8603911598297E-01
    24  2.3000000000000E-01  9.9425998167286E-02  6.4716712986053E-02 -4.0578356081228E-01
    25  2.4000000000000E-01  1.1158680980257E-01  6.1956036452823E-02 -4.2400055757696E-01
    26  2.5000000000000E-01  1.2470319010249E-01  5.7928913318840E-02 -4.4050375427119E-01
    27  2.6000000000000E-01  1.3879787819543E-01  5.2567048292892E-02 -4.5512161171110E-01
    28  2.7000000000000E-01  1.5388915671154E-01  4.5811993475676E-02 -4.6769908626359E-01
    29  2.8000000000000E-01  1.6999049795540E-01  3.7615969556126E-02 -4.7809918245596E-01
    30  2.9000000000000E-01  1.8711024359599E-01  2.7942606772669E-02 -4.8620436135255E-01
    31  3.0000000000000E-01  2.0525132091060E-01  1.6767598501473E-02 -4.9191779164336E-01
    32  3.1000000000000E-01  2.2441099835313E-01  4.0792609777733E-03 -4.9516443156015E-01
    33  3.2000000000000E-01  2.4458068292687E-01 -1.0121006642772E-02 -4.9589193100916E-01
    34  3.3000000000000E-01  2.6574576152974E-01 -2.5818366923109E-02 -4.9407134467897E-01
    35  3.4000000000000E-01  2.8788548810851E-01 -4.2984297725161E-02 -4.8969764833658E-01
    36  3.5000000000000E-01  3.1097291810935E-01 -6.1576458132152E-02 -4.8279005205457E-01
    37  3.6000000000000E-01  3.3497489134845E-01 -8.1538669238143E-02 -4.7339210570608E-01
    38  3.7000000000000E-01  3.5985206405060E-01 -1.0280101142615E-01 -4.6157159371160E-01
    39  3.8000000000000E-01  3.8555899041811E-01 -1.2528003883037E-01 -4.4742021770834E-01
    40  3.9000000000000E-01  4.1204425370095E-01 -1.4887911073724E-01 -4.3105306752858E-01
    41  4.0000000000000E-01  4.3925064634342E-01 -1.7348883873148E-01 -4.1260788260389E-01
    42  4.1000000000000E-01  4.6711539838673E-01 -1.9898764744379E-01 -3.9224410764347E-01
    43  4.2000000000000E-01  4.9557045291353E-01 -2.2524244581469E-01 -3.7014174815642E-01
    44  4.3000000000000E-01  5.2454278693243E-01 -2.5210940486037E-01 -3.4650003308212E-01
    45  4.4000000000000E-01  5.5395477572132E-01 -2.7943483702004E-01 -3.2153589344981E-01
    46  4.5000000000000E-01  5.8372459828099E-01 -3.0705617128620E-01 -2.9548226759294E-01
    47  4.6000000000000E-01  6.1376668119721E-01 -3.3480301747799E-01 -2.6858624498283E-01
    48  4.7000000000000E-01  6.4399217787476E-01 -3.6249831221902E-01 -2.4110706220696E-01
    49  4.8000000000000E-01  6.7430947979170E-01 -3.8995953843314E-01 -2.1331396598745E-01
    50  4.9000000000000E-01  7.0462475613053E-01 -4.1700000947937E-01 -1.8548395940276E-01
    51  5.0000000000000E-01  7.3484251787748E-01 -4.4343020841821E-01 -1.5789944862863E-01
    52  5.1000000000000E-01  7.6486620224250E-01 -4.6905917234099E-01 -1.3084580854381E-01
    53  5.2000000000000E-01  7.9459877304608E-01 -4.9369591120671E-01 -1.0460888643944E-01
    54  5.3000000000000E-01  8.2394333254308E-01 -5.1715085022269E-01 -7.9472463822994E-02
    55  5.4000000000000E-01  8.5280374001339E-01 -5.3923728447975E-01 -5.5715696906422E-02
    56  5.5000000000000E-01  8.8108523234373E-01 -5.5977283431366E-01 -3.3610556810515E-02
    57  5.6000000000000E-01  9.0869504175664E-01 -5.7858088971522E-01 -1.3419290794778E-02
    58  5.7000000000000E-01  9.3554300581241E-01 -5.9549203205376E-01  4.6080740679630E-03
    59  5.8000000000000E-01  9.6154216481815E-01 -6.1034542141505E-01  2.0236163415054E-02
    60  5.9000000000000E-01  9.8660934182559E-01 -6.2299013798515E-01  3.3246603193929E-02
    61  6.0000000000000E-01  1.0106657004860E+00 -6.3328646613741E-01  4.3440261625812E-02
    62  6.1000000000000E-01  1.0336372761564E+00 -6.4110711019944E-01  5.0639365403156E-02
    63  6.2000000000000E-01  1.0554554758155E+00 -6.4633833128943E-01  5.4689470744091E-02
    64  6.3000000000000E-01  1.0760575425498E+00 -6.4888099511495E-01  5.5461270847578E-02
    65  6.4000000000000E-01  1.0953869806089E+00 -6.4865152121878E-01  5.2852222376092E-02
    66  6.5000000000000E-01  1.1133939373026E+00 -6.4558272483238E-01  4.6787974830863E-02
    67  6.6000000000000E-01  1.1300355383199E+00 -6.3962454325361E-01  3.7223588071732E-02
    68  6.7000000000000E-01  1.1452761733865E+00 -6.3074463949675E-01  2.4144524759078E-02
    69  6.8000000000000E-01  1.1590877295477E+00 -6.1892887686301E-01  7.5674061492864E-03
    70  6.9000000000000E-01  1.1714497697535E+00 -6.0418165904352E-01 -1.2459478553444E-02
    71  7.0000000000000E-01  1.1823496548422E+00 -5.8652613138587E-01 -3.5855917210986E-02
    72  7.1000000000000E-01  1.1917826074559E+00 -5.6600424002330E-01 -6.2509780086827E-02
    73  7.2000000000000E-01  1.1997517168727E+00 -5.4267664667362E-01 -9.2277289417990E-02
    74  7.3000000000000E-01  1.2062678842130E+00 -5.1662249805482E-01 -1.2498355503569E-01
    75  7.4000000000000E-01  1.2113497079504E+00 -4.8793905002719E-01 -1.6042337570148E-01
    76  7.5000000000000E-01  1.2150233101448E+00 -4.5674114774824E-01 -1.9836230365293E-01