In    ONCVPSP-4.0.1  r_core=   2.10981   2.36376   1.86074
     49.0000     13.0000      250217    zatom,zion,pspd
     8       2   2     4   600     0    pspcod,pspxc,lmax,lloc,mmax,r2well
  5.99000000  5.00000000  0.00000000    rchrg fchrg qchrg
     2     3     2     0    nproj
     3     1           extension_switch
     4     3     0    nprojso
   0                         9.6273414689897E+00  1.9266009655483E+00
     1  0.0000000000000E+00  1.1420258350103E-09 -1.2345026112470E-09
     2  1.0000000000000E-02 -3.4661452854481E-02  5.7423991952741E-02
     3  2.0000000000000E-02 -6.8875210404810E-02  1.1435487790702E-01
     4  3.0000000000000E-02 -1.0219755291596E-01  1.7030389281072E-01
     5  4.0000000000000E-02 -1.3419267749991E-01  2.2479091628171E-01
     6  5.0000000000000E-02 -1.6443657110256E-01  2.7734870220109E-01
     7  6.0000000000000E-02 -1.9252078178077E-01  3.2752699789624E-01
     8  7.0000000000000E-02 -2.1805605571548E-01  3.7489651756875E-01
     9  8.0000000000000E-02 -2.4067580854894E-01  4.1905273585692E-01
    10  9.0000000000000E-02 -2.6003940104370E-01  4.5961946894610E-01
    11  1.0000000000000E-01 -2.7583519072615E-01  4.9625221244046E-01
    12  1.1000000000000E-01 -2.8778333308455E-01  5.2864120727151E-01
    13  1.2000000000000E-01 -2.9563830802423E-01  5.5651420722437E-01
    14  1.3000000000000E-01 -2.9919114962363E-01  5.7963892419403E-01
    15  1.4000000000000E-01 -2.9827135976372E-01  5.9782513001810E-01
    16  1.5000000000000E-01 -2.9274848889995E-01  6.1092639664862E-01
    17  1.6000000000000E-01 -2.8253337008622E-01  6.1884145949717E-01
    18  1.7000000000000E-01 -2.6757899532191E-01  6.2151519199064E-01
    19  1.8000000000000E-01 -2.4788102634991E-01  6.1893918268147E-01
    20  1.9000000000000E-01 -2.2347793516046E-01  6.1115190963903E-01
    21  2.0000000000000E-01 -1.9445077262594E-01  5.9823851027899E-01
    22  2.1000000000000E-01 -1.6092256687910E-01  5.8033014823657E-01
    23  2.2000000000000E-01 -1.2305735622388E-01  5.5760298232804E-01
    24  2.3000000000000E-01 -8.1058864507798E-02  5.3027674604402E-01
    25  2.4000000000000E-01 -3.5168829960889E-02  4.9861294934862E-01
    26  2.5000000000000E-01  1.4334998508287E-02  4.6291271779309E-01
    27  2.6000000000000E-01  6.7141180698376E-02  4.2351428706233E-01
    28  2.7000000000000E-01  1.2290720059152E-01  3.8079017403255E-01
    29  2.8000000000000E-01  1.8126235576218E-01  3.3514404820194E-01
    30  2.9000000000000E-01  2.4181089617945E-01  2.8700732994004E-01
    31  3.0000000000000E-01  3.0413538568878E-01  2.3683554436366E-01
    32  3.1000000000000E-01  3.6780025750942E-01  1.8510446176658E-01
    33  3.2000000000000E-01  4.3235553337627E-01  1.3230605738875E-01
    34  3.3000000000000E-01  4.9734067450415E-01  7.8944324892811E-02
    35  3.4000000000000E-01  5.6228853137257E-01  2.5530979205628E-02
    36  3.5000000000000E-01  6.2672935842892E-01 -2.7418914629122E-02
    37  3.6000000000000E-01  6.9019485919797E-01 -7.9391349265013E-02
    38  3.7000000000000E-01  7.5222222696906E-01 -1.2987778185289E-01
    39  3.8000000000000E-01  8.1235814621551E-01 -1.7837950210927E-01
    40  3.9000000000000E-01  8.7016272018153E-01 -2.2441192422145E-01
    41  4.0000000000000E-01  9.2521329065115E-01 -2.6750876576384E-01
    42  4.1000000000000E-01  9.7710811678516E-01 -3.0722607772323E-01
    43  4.2000000000000E-01  1.0254698810702E+00 -3.4314609096220E-01
    44  4.3000000000000E-01  1.0699489918592E+00 -3.7488084598095E-01
    45  4.4000000000000E-01  1.1102266536826E+00 -4.0207557465509E-01
    46  4.5000000000000E-01  1.1460176784623E+00 -4.2441180471658E-01
    47  4.6000000000000E-01  1.1770730129456E+00 -4.4161016008786E-01
    48  4.7000000000000E-01  1.2031819600828E+00 -4.5343283275793E-01
    49  4.8000000000000E-01  1.2241740746715E+00 -4.5968570467973E-01
    50  4.9000000000000E-01  1.2399207163657E+00 -4.6022010114952E-01
    51  5.0000000000000E-01  1.2503362460773E+00 -4.5493416027306E-01
    52  5.1000000000000E-01  1.2553788548493E+00 -4.4377380640617E-01
    53  5.2000000000000E-01  1.2550510174344E+00 -4.2673331884865E-01
    54  5.3000000000000E-01  1.2493995660406E+00 -4.0385549054257E-01
    55  5.4000000000000E-01  1.2385153829790E+00 -3.7523137504820E-01
    56  5.5000000000000E-01  1.2225327142377E+00 -3.4099962361362E-01
    57  5.6000000000000E-01  1.2016281092873E+00 -3.0134541768536E-01
    58  5.7000000000000E-01  1.1760189956616E+00 -2.5649900569862E-01
    59  5.8000000000000E-01  1.1459619000298E+00 -2.0673385640388E-01
    60  5.9000000000000E-01  1.1117503305525E+00 -1.5236444430442E-01
    61  6.0000000000000E-01  1.0737123382677E+00 -9.3743685965640E-02
    62  6.1000000000000E-01  1.0322077780574E+00 -3.1260048985296E-02
    63  6.2000000000000E-01  9.8762529237716E-01  3.4665641744228E-02
    64  6.3000000000000E-01  9.4037904336619E-01  1.0358367321813E-01
    65  6.4000000000000E-01  8.9090522116874E-01  1.7501915928503E-01
    66  6.5000000000000E-01  8.3965835827828E-01  2.4847596959319E-01
    67  6.6000000000000E-01  7.8710748143381E-01  3.2344083884648E-01
    68  6.7000000000000E-01  7.3373213404751E-01  3.9938762112373E-01
    69  6.8000000000000E-01  6.8001830330574E-01  4.7578165274552E-01
    70  6.9000000000000E-01  6.2645428695198E-01  5.5208418622051E-01
    71  7.0000000000000E-01  5.7352653532246E-01  6.2775685717859E-01
    72  7.1000000000000E-01  5.2171550445714E-01  7.0226614590567E-01
    73  7.2000000000000E-01  4.7149155604712E-01  7.7508779513902E-01
    74  7.3000000000000E-01  4.2331093960530E-01  8.4571114616178E-01
    75  7.4000000000000E-01  3.7761189156186E-01  9.1364335594889E-01
    76  7.5000000000000E-01  3.3481088499580E-01  9.7841345915734E-01
    77  7.6000000000000E-01  2.9529906242675E-01  1.0395762401137E+00
    78  7.7000000000000E-01  2.5943888251745E-01  1.0967158816189E+00
    79  7.8000000000000E-01  2.2756100969168E-01  1.1494493593496E+00
    80  7.9000000000000E-01  1.9996147356917E-01  1.1974295528727E+00
    81  8.0000000000000E-01  1.7689912277729E-01  1.2403480467797E+00
    82  8.1000000000000E-01  1.5859339514024E-01  1.2779375981759E+00
    83  8.2000000000000E-01  1.4522242349008E-01  1.3099742496956E+00
    84  8.3000000000000E-01  1.3692149341790E-01  1.3362790703347E+00
    85  8.4000000000000E-01  1.3378186621009E-01  1.3567195096730E+00
    86  8.5000000000000E-01  1.3584997702410E-01  1.3712103544600E+00
    87  8.6000000000000E-01  1.4312701507679E-01  1.3797142800424E+00
    88  8.7000000000000E-01  1.5556888927656E-01  1.3822419926807E+00
    89  8.8000000000000E-01  1.7308657935770E-01  1.3788519624011E+00
    90  8.9000000000000E-01  1.9554686920156E-01  1.3696497496337E+00
    91  9.0000000000000E-01  2.2277345568506E-01  1.3547869324593E+00
    92  9.1000000000000E-01  2.5454842311244E-01  1.3344596447959E+00
    93  9.2000000000000E-01  2.9061407009036E-01  1.3089067392680E+00
    94  9.3000000000000E-01  3.3067507262927E-01  1.2784075917909E+00
    95  9.4000000000000E-01  3.7440096432163E-01  1.2432795680313E+00
    96  9.5000000000000E-01  4.2142891168801E-01  1.2038751748557E+00
    97  9.6000000000000E-01  4.7136676021976E-01  1.1605789226113E+00
    98  9.7000000000000E-01  5.2379632430470E-01  1.1138039265886E+00
    99  9.8000000000000E-01  5.7827689212149E-01  1.0639882782522E+00
   100  9.9000000000000E-01  6.3434891474897E-01  1.0115912187949E+00
   101  1.0000000000000E+00  6.9153784717398E-01  9.5708914923340E-01
   102  1.0100000000000E+00  7.4935810760992E-01  9.0097151261925E-01
   103  1.0200000000000E+00  8.0731712057014E-01  8.4373658497270E-01
   104  1.0300000000000E+00  8.6491940848370E-01  7.8588721224101E-01
   105  1.0400000000000E+00  9.2167069630156E-01  7.2792653094502E-01
   106  1.0500000000000E+00  9.7708199352206E-01  6.7035371019227E-01
   107  1.0600000000000E+00  1.0306736183662E+00  6.1365975241008E-01
   108  1.0700000000000E+00  1.0819791294501E+00  5.5832338948809E-01
   109  1.0800000000000E+00  1.1305491312343E+00  5.0480711002185E-01
   110  1.0900000000000E+00  1.1759549207550E+00  4.5355335203280E-01
   111  1.1000000000000E+00  1.2177919446743E+00  4.0498089390690E-01
   112  1.1100000000000E+00  1.2556830374723E+00  3.5948147437644E-01
   113  1.1200000000000E+00  1.2892814136732E+00  3.1741667016397E-01
   114  1.1300000000000E+00  1.3182733892852E+00  2.7911505745935E-01
   115  1.1400000000000E+00  1.3423808101563E+00  2.4486968070804E-01
   116  1.1500000000000E+00  1.3613631676514E+00  2.1493584930321E-01
   117  1.1600000000000E+00  1.3750193849412E+00  1.8952927969383E-01
   118  1.1700000000000E+00  1.3831892602071E+00  1.6882459721035E-01
   119  1.1800000000000E+00  1.3857545562097E+00  1.5295420855358E-01
   120  1.1900000000000E+00  1.3826397288728E+00  1.4200755248153E-01
   121  1.2000000000000E+00  1.3738122908262E+00  1.3603073272417E-01
   122  1.2100000000000E+00  1.3592828091268E+00  1.3502653366595E-01
   123  1.2200000000000E+00  1.3391045396815E+00  1.3895481582790E-01
   124  1.2300000000000E+00  1.3133727041386E+00  1.4773328472749E-01
   125  1.2400000000000E+00  1.2822234181944E+00  1.6123862332537E-01
   126  1.2500000000000E+00  1.2458322833546E+00  1.7930797498134E-01
   127  1.2600000000000E+00  1.2044126571406E+00  2.0174076072119E-01
   128  1.2700000000000E+00  1.1582136195334E+00  2.2830081164487E-01
   129  1.2800000000000E+00  1.1075176560827E+00  2.5871879452960E-01
   130  1.2900000000000E+00  1.0526380805174E+00  2.9269490613729E-01
   131  1.3000000000000E+00  9.9391622189447E-01  3.2990180942261E-01
   132  1.3100000000000E+00  9.3171840327518E-01  3.6998778279254E-01
   133  1.3200000000000E+00  8.6643274060028E-01  4.1258005181044E-01
   134  1.3300000000000E+00  7.9846579184534E-01  4.5728827127520E-01
   135  1.3400000000000E+00  7.2823908766083E-01  5.0370812445141E-01
   136  1.3500000000000E+00  6.5618557551852E-01  5.5142500540010E-01
   137  1.3600000000000E+00  5.8274600990176E-01  6.0001774985601E-01
   138  1.3700000000000E+00  5.0836532128543E-01  6.4906237992501E-01
   139  1.3800000000000E+00  4.3348899654726E-01  6.9813582803544E-01
   140  1.3900000000000E+00  3.5855950304446E-01  7.4681960606414E-01
   141  1.4000000000000E+00  2.8401278787819E-01  7.9470338636810E-01
   142  1.4100000000000E+00  2.1027488287127E-01  8.4138846256819E-01
   143  1.4200000000000E+00  1.3775864449562E-01  8.8649105935868E-01
   144  1.4300000000000E+00  6.6860656440569E-02  9.2964546231568E-01
   145  1.4400000000000E+00 -2.0416792873679E-03  9.7050694064848E-01
   146  1.4500000000000E+00 -6.8592838878499E-02  1.0087544380589E+00
   147  1.4600000000000E+00 -1.3246163922264E-01  1.0440930092983E+00
   148  1.4700000000000E+00 -1.9334344721834E-01  1.0762559826640E+00
   149  1.4800000000000E+00 -2.5096211928739E-01  1.1050068314699E+00
   150  1.4900000000000E+00 -3.0507165722247E-01  1.1301407404790E+00
   151  1.5000000000000E+00 -3.5545756933021E-01  1.1514858563417E+00
   152  1.5100000000000E+00 -4.0193792874521E-01  1.1689042142235E+00
   153  1.5200000000000E+00 -4.4436412375965E-01  1.1822923360027E+00
   154  1.5300000000000E+00 -4.8262129798821E-01  1.1915814986093E+00
   155  1.5400000000000E+00 -5.1662848117778E-01  1.1967376742883E+00
   156  1.5500000000000E+00 -5.4633841440313E-01  1.1977611477065E+00
   157  1.5600000000000E+00 -5.7173707626368E-01  1.1946858178958E+00
   158  1.5700000000000E+00 -5.9284291947496E-01  1.1875781959901E+00
   159  1.5800000000000E+00 -6.0970582990433E-01  1.1765361125405E+00
   160  1.5900000000000E+00 -6.2240582261019E-01  1.1616871508600E+00
   161  1.6000000000000E+00 -6.3105149178227E-01  1.1431868253264E+00
   162  1.6100000000000E+00 -6.3577823362630E-01  1.1212165258358E+00
   163  1.6200000000000E+00 -6.3674626316934E-01  1.0959812516316E+00
   164  1.6300000000000E+00 -6.3413844766438E-01  1.0677071595166E+00
   165  1.6400000000000E+00 -6.2815798072975E-01  1.0366389529633E+00
   166  1.6500000000000E+00 -6.1902592255728E-01  1.0030371398732E+00
   167  1.6600000000000E+00 -6.0697863245353E-01  9.6717518767046E-01
   168  1.6700000000000E+00 -5.9226512063322E-01  9.2933660505887E-01
   169  1.6800000000000E+00 -5.7514434655153E-01  8.8981198006689E-01
   170  1.6900000000000E+00 -5.5588249116287E-01  8.4889600409845E-01
   171  1.7000000000000E+00 -5.3475023080068E-01  8.0688451362162E-01
   172  1.7100000000000E+00 -5.1202004331318E-01  7.6407159797660E-01
   173  1.7200000000000E+00 -4.8796367885974E-01  7.2074729623234E-01
   174  1.7300000000000E+00 -4.6284976323853E-01  6.7719552669322E-01
   175  1.7400000000000E+00 -4.3694142675236E-01  6.3369166976512E-01
   176  1.7500000000000E+00 -4.1049404202768E-01  5.9050019355461E-01
   177  1.7600000000000E+00 -3.8375311422030E-01  5.4787246569776E-01
   178  1.7700000000000E+00 -3.5695233926997E-01  5.0604475543443E-01
   179  1.7800000000000E+00 -3.3031184707372E-01  4.6523644562662E-01
   180  1.7900000000000E+00 -3.0403664387655E-01  4.2564846972434E-01
   181  1.8000000000000E+00 -2.7831526582029E-01  3.8746198594340E-01
   182  1.8100000000000E+00 -2.5331865319355E-01  3.5083729834208E-01
   183  1.8200000000000E+00 -2.2919925244224E-01  3.1591303176120E-01
   184  1.8300000000000E+00 -2.0609035047046E-01  2.8280556482225E-01
   185  1.8400000000000E+00 -1.8410564321218E-01  2.5160872239028E-01
   186  1.8500000000000E+00 -1.6333903791080E-01  2.2239372613116E-01
   187  1.8600000000000E+00 -1.4386468603520E-01  1.9520939905613E-01
   188  1.8700000000000E+00 -1.2573724129501E-01  1.7008261725975E-01
   189  1.8800000000000E+00 -1.0899233487638E-01  1.4701899950991E-01
   190  1.8900000000000E+00 -9.3647257726834E-02  1.2600382285582E-01
   191  1.9000000000000E+00 -7.9701837594326E-02  1.0700315011601E-01
   192  1.9100000000000E+00 -6.7139496547061E-02  8.9965152963614E-02
   193  1.9200000000000E+00 -5.5928472882123E-02  7.4821612359365E-02
   194  1.9300000000000E+00 -4.6023189707173E-02  6.1489576329876E-02
   195  1.9400000000000E+00 -3.7365751058461E-02  4.9873153559325E-02
   196  1.9500000000000E+00 -2.9887545212926E-02  3.9865419970081E-02
   197  1.9600000000000E+00 -2.3510933878846E-02  3.1350414430343E-02
   198  1.9700000000000E+00 -1.8151006234282E-02  2.4205199905218E-02
   199  1.9800000000000E+00 -1.3717364903181E-02  1.8301955247392E-02
   200  1.9900000000000E+00 -1.0115964560240E-02  1.3510112389856E-02
   201  2.0000000000000E+00 -7.2508829939912E-03  9.6984249608230E-03
   202  2.0100000000000E+00 -5.0257944462813E-03  6.7367426836716E-03
   203  2.0200000000000E+00 -3.3453488342627E-03  4.4976720166395E-03
   204  2.0300000000000E+00 -2.1188888381348E-03  2.8604249604086E-03
   205  2.0400000000000E+00 -1.2609235890531E-03  1.7116244669509E-03
   206  2.0500000000000E+00 -6.9208138585109E-04  9.4651458649749E-04
   207  2.0600000000000E+00 -3.4059302613408E-04  4.7062900857634E-04
   208  2.0700000000000E+00 -1.4347173072195E-04  2.0114832130477E-04
   209  2.0800000000000E+00 -4.7561717717252E-05  6.8099371547713E-05
   210  2.0900000000000E+00 -1.0411189103248E-05  1.5366259339576E-05
   211  2.1000000000000E+00 -8.9792016365814E-07  1.3622647960062E-06
   212  2.1100000000000E+00 -1.7227204790580E-08  2.0906212029650E-08
   213  2.1200000000000E+00 -4.2464364355075E-08  6.0457075857599E-08
   214  2.13  0.  0.
   215  2.14  0.  0.
   216  2.15  0.  0.
   217  2.16  0.  0.
   218  2.17  0.  0.
   219  2.18  0.  0.
   220  2.19  0.  0.
   221  2.20  0.  0.
   222  2.21  0.  0.
   223  2.22  0.  0.
   224  2.23  0.  0.
   225  2.24  0.  0.
   226  2.25  0.  0.
   227  2.26  0.  0.
   228  2.27  0.  0.
   229  2.28  0.  0.
   230  2.29  0.  0.
   231  2.30  0.  0.
   232  2.31  0.  0.
   233  2.32  0.  0.
   234  2.33  0.  0.
   235  2.34  0.  0.
   236  2.35  0.  0.
   237  2.36  0.  0.
   238  2.37  0.  0.
   239  2.38  0.  0.
   240  2.39  0.  0.
   241  2.40  0.  0.
   242  2.41  0.  0.
   243  2.42  0.  0.
   244  2.43  0.  0.
   245  2.44  0.  0.
   246  2.45  0.  0.
   247  2.46  0.  0.
   248  2.47  0.  0.
   249  2.48  0.  0.
   250  2.49  0.  0.
   251  2.50  0.  0.
   252  2.51  0.  0.
   253  2.52  0.  0.
   254  2.53  0.  0.
   255  2.54  0.  0.
   256  2.55  0.  0.
   257  2.56  0.  0.
   258  2.57  0.  0.
   259  2.58  0.  0.
   260  2.59  0.  0.
   261  2.60  0.  0.
   262  2.61  0.  0.
   263  2.62  0.  0.
   264  2.63  0.  0.
   265  2.64  0.  0.
   266  2.65  0.  0.
   267  2.66  0.  0.
   268  2.67  0.  0.
   269  2.68  0.  0.
   270  2.69  0.  0.
   271  2.70  0.  0.
   272  2.71  0.  0.
   273  2.72  0.  0.
   274  2.73  0.  0.
   275  2.74  0.  0.
   276  2.75  0.  0.
   277  2.76  0.  0.
   278  2.77  0.  0.
   279  2.78  0.  0.
   280  2.79  0.  0.
   281  2.80  0.  0.
   282  2.81  0.  0.
   283  2.82  0.  0.
   284  2.83  0.  0.
   285  2.84  0.  0.
   286  2.85  0.  0.
   287  2.86  0.  0.
   288  2.87  0.  0.
   289  2.88  0.  0.
   290  2.89  0.  0.
   291  2.90  0.  0.
   292  2.91  0.  0.
   293  2.92  0.  0.
   294  2.93  0.  0.
   295  2.94  0.  0.
   296  2.95  0.  0.
   297  2.96  0.  0.
   298  2.97  0.  0.
   299  2.98  0.  0.
   300  2.99  0.  0.
   301  3.00  0.  0.
   302  3.01  0.  0.
   303  3.02  0.  0.
   304  3.03  0.  0.
   305  3.04  0.  0.
   306  3.05  0.  0.
   307  3.06  0.  0.
   308  3.07  0.  0.
   309  3.08  0.  0.
   310  3.09  0.  0.
   311  3.10  0.  0.
   312  3.11  0.  0.
   313  3.12  0.  0.
   314  3.13  0.  0.
   315  3.14  0.  0.
   316  3.15  0.  0.
   317  3.16  0.  0.
   318  3.17  0.  0.
   319  3.18  0.  0.
   320  3.19  0.  0.
   321  3.20  0.  0.
   322  3.21  0.  0.
   323  3.22  0.  0.
   324  3.23  0.  0.
   325  3.24  0.  0.
   326  3.25  0.  0.
   327  3.26  0.  0.
   328  3.27  0.  0.
   329  3.28  0.  0.
   330  3.29  0.  0.
   331  3.30  0.  0.
   332  3.31  0.  0.
   333  3.32  0.  0.
   334  3.33  0.  0.
   335  3.34  0.  0.
   336  3.35  0.  0.
   337  3.36  0.  0.
   338  3.37  0.  0.
   339  3.38  0.  0.
   340  3.39  0.  0.
   341  3.40  0.  0.
   342  3.41  0.  0.
   343  3.42  0.  0.
   344  3.43  0.  0.
   345  3.44  0.  0.
   346  3.45  0.  0.
   347  3.46  0.  0.
   348  3.47  0.  0.
   349  3.48  0.  0.
   350  3.49  0.  0.
   351  3.50  0.  0.
   352  3.51  0.  0.
   353  3.52  0.  0.
   354  3.53  0.  0.
   355  3.54  0.  0.
   356  3.55  0.  0.
   357  3.56  0.  0.
   358  3.57  0.  0.
   359  3.58  0.  0.
   360  3.59  0.  0.
   361  3.60  0.  0.
   362  3.61  0.  0.
   363  3.62  0.  0.
   364  3.63  0.  0.
   365  3.64  0.  0.
   366  3.65  0.  0.
   367  3.66  0.  0.
   368  3.67  0.  0.
   369  3.68  0.  0.
   370  3.69  0.  0.
   371  3.70  0.  0.
   372  3.71  0.  0.
   373  3.72  0.  0.
   374  3.73  0.  0.
   375  3.74  0.  0.
   376  3.75  0.  0.
   377  3.76  0.  0.
   378  3.77  0.  0.
   379  3.78  0.  0.
   380  3.79  0.  0.
   381  3.80  0.  0.
   382  3.81  0.  0.
   383  3.82  0.  0.
   384  3.83  0.  0.
   385  3.84  0.  0.
   386  3.85  0.  0.
   387  3.86  0.  0.
   388  3.87  0.  0.
   389  3.88  0.  0.
   390  3.89  0.  0.
   391  3.90  0.  0.
   392  3.91  0.  0.
   393  3.92  0.  0.
   394  3.93  0.  0.
   395  3.94  0.  0.
   396  3.95  0.  0.
   397  3.96  0.  0.
   398  3.97  0.  0.
   399  3.98  0.  0.
   400  3.99  0.  0.
   401  4.00  0.  0.
   402  4.01  0.  0.
   403  4.02  0.  0.
   404  4.03  0.  0.
   405  4.04  0.  0.
   406  4.05  0.  0.
   407  4.06  0.  0.
   408  4.07  0.  0.
   409  4.08  0.  0.
   410  4.09  0.  0.
   411  4.10  0.  0.
   412  4.11  0.  0.
   413  4.12  0.  0.
   414  4.13  0.  0.
   415  4.14  0.  0.
   416  4.15  0.  0.
   417  4.16  0.  0.
   418  4.17  0.  0.
   419  4.18  0.  0.
   420  4.19  0.  0.
   421  4.20  0.  0.
   422  4.21  0.  0.
   423  4.22  0.  0.
   424  4.23  0.  0.
   425  4.24  0.  0.
   426  4.25  0.  0.
   427  4.26  0.  0.
   428  4.27  0.  0.
   429  4.28  0.  0.
   430  4.29  0.  0.
   431  4.30  0.  0.
   432  4.31  0.  0.
   433  4.32  0.  0.
   434  4.33  0.  0.
   435  4.34  0.  0.
   436  4.35  0.  0.
   437  4.36  0.  0.
   438  4.37  0.  0.
   439  4.38  0.  0.
   440  4.39  0.  0.
   441  4.40  0.  0.
   442  4.41  0.  0.
   443  4.42  0.  0.
   444  4.43  0.  0.
   445  4.44  0.  0.
   446  4.45  0.  0.
   447  4.46  0.  0.
   448  4.47  0.  0.
   449  4.48  0.  0.
   450  4.49  0.  0.
   451  4.50  0.  0.
   452  4.51  0.  0.
   453  4.52  0.  0.
   454  4.53  0.  0.
   455  4.54  0.  0.
   456  4.55  0.  0.
   457  4.56  0.  0.
   458  4.57  0.  0.
   459  4.58  0.  0.
   460  4.59  0.  0.
   461  4.60  0.  0.
   462  4.61  0.  0.
   463  4.62  0.  0.
   464  4.63  0.  0.
   465  4.64  0.  0.
   466  4.65  0.  0.
   467  4.66  0.  0.
   468  4.67  0.  0.
   469  4.68  0.  0.
   470  4.69  0.  0.
   471  4.70  0.  0.
   472  4.71  0.  0.
   473  4.72  0.  0.
   474  4.73  0.  0.
   475  4.74  0.  0.
   476  4.75  0.  0.
   477  4.76  0.  0.
   478  4.77  0.  0.
   479  4.78  0.  0.
   480  4.79  0.  0.
   481  4.80  0.  0.
   482  4.81  0.  0.
   483  4.82  0.  0.
   484  4.83  0.  0.
   485  4.84  0.  0.
   486  4.85  0.  0.
   487  4.86  0.  0.
   488  4.87  0.  0.
   489  4.88  0.  0.
   490  4.89  0.  0.
   491  4.90  0.  0.
   492  4.91  0.  0.
   493  4.92  0.  0.
   494  4.93  0.  0.
   495  4.94  0.  0.
   496  4.95  0.  0.
   497  4.96  0.  0.
   498  4.97  0.  0.
   499  4.98  0.  0.
   500  4.99  0.  0.
   501  5.00  0.  0.
   502  5.01  0.  0.
   503  5.02  0.  0.
   504  5.03  0.  0.
   505  5.04  0.  0.
   506  5.05  0.  0.
   507  5.06  0.  0.
   508  5.07  0.  0.
   509  5.08  0.  0.
   510  5.09  0.  0.
   511  5.10  0.  0.
   512  5.11  0.  0.
   513  5.12  0.  0.
   514  5.13  0.  0.
   515  5.14  0.  0.
   516  5.15  0.  0.
   517  5.16  0.  0.
   518  5.17  0.  0.
   519  5.18  0.  0.
   520  5.19  0.  0.
   521  5.20  0.  0.
   522  5.21  0.  0.
   523  5.22  0.  0.
   524  5.23  0.  0.
   525  5.24  0.  0.
   526  5.25  0.  0.
   527  5.26  0.  0.
   528  5.27  0.  0.
   529  5.28  0.  0.
   530  5.29  0.  0.
   531  5.30  0.  0.
   532  5.31  0.  0.
   533  5.32  0.  0.
   534  5.33  0.  0.
   535  5.34  0.  0.
   536  5.35  0.  0.
   537  5.36  0.  0.
   538  5.37  0.  0.
   539  5.38  0.  0.
   540  5.39  0.  0.
   541  5.40  0.  0.
   542  5.41  0.  0.
   543  5.42  0.  0.
   544  5.43  0.  0.
   545  5.44  0.  0.
   546  5.45  0.  0.
   547  5.46  0.  0.
   548  5.47  0.  0.
   549  5.48  0.  0.
   550  5.49  0.  0.
   551  5.50  0.  0.
   552  5.51  0.  0.
   553  5.52  0.  0.
   554  5.53  0.  0.
   555  5.54  0.  0.
   556  5.55  0.  0.
   557  5.56  0.  0.
   558  5.57  0.  0.
   559  5.58  0.  0.
   560  5.59  0.  0.
   561  5.60  0.  0.
   562  5.61  0.  0.
   563  5.62  0.  0.
   564  5.63  0.  0.
   565  5.64  0.  0.
   566  5.65  0.  0.
   567  5.66  0.  0.
   568  5.67  0.  0.
   569  5.68  0.  0.
   570  5.69  0.  0.
   571  5.70  0.  0.
   572  5.71  0.  0.
   573  5.72  0.  0.
   574  5.73  0.  0.
   575  5.74  0.  0.
   576  5.75  0.  0.
   577  5.76  0.  0.
   578  5.77  0.  0.
   579  5.78  0.  0.
   580  5.79  0.  0.
   581  5.80  0.  0.
   582  5.81  0.  0.
   583  5.82  0.  0.
   584  5.83  0.  0.
   585  5.84  0.  0.
   586  5.85  0.  0.
   587  5.86  0.  0.
   588  5.87  0.  0.
   589  5.88  0.  0.
   590  5.89  0.  0.
   591  5.90  0.  0.
   592  5.91  0.  0.
   593  5.92  0.  0.
   594  5.93  0.  0.
   595  5.94  0.  0.
   596  5.95  0.  0.
   597  5.96  0.  0.
   598  5.97  0.  0.
   599  5.98  0.  0.
   600  5.99  0.  0.
   1                         5.1975222587004E+00  8.4819824603311E-01  3.5276200977365E-02
     1  0.0000000000000E+00 -8.1899331760837E-10  1.2957987946538E-09 -1.5226229027610E-09
     2  1.0000000000000E-02 -2.4624588700686E-04  7.8079759141086E-04 -1.0460936451462E-03
     3  2.0000000000000E-02 -9.7958919043175E-04  3.1142825113168E-03 -4.1740509695994E-03
     4  3.0000000000000E-02 -2.1838982102669E-03  6.9738128977848E-03 -9.3529964159022E-03
     5  4.0000000000000E-02 -3.8324575849641E-03  1.2315257292251E-02 -1.6531787493597E-02
     6  5.0000000000000E-02 -5.8882229715629E-03  1.9077399689580E-02 -2.5639487098363E-02
     7  6.0000000000000E-02 -8.3041745553996E-03  2.7182501794343E-02 -3.6586019104460E-02
     8  7.0000000000000E-02 -1.1023766376443E-02  3.6537017716217E-02 -4.9263001630822E-02
     9  8.0000000000000E-02 -1.3981467640307E-02  4.7032455041628E-02 -6.3544750858531E-02
    10  9.0000000000000E-02 -1.7103391394033E-02  5.8546374972059E-02 -7.9289446812504E-02
    11  1.0000000000000E-01 -2.0308005196058E-02  7.0943523031821E-02 -9.6340451123882E-02
    12  1.1000000000000E-01 -2.3506917702690E-02  8.4077080729294E-02 -1.1452776547442E-01
    13  1.2000000000000E-01 -2.6605734435443E-02  9.7790027514789E-02 -1.3366961819961E-01
    14  1.3000000000000E-01 -2.9504975390376E-02  1.1191660142375E-01 -1.5357416540408E-01
    15  1.4000000000000E-01 -3.2101046606906E-02  1.2628384593398E-01 -1.7404129193015E-01
    16  1.5000000000000E-01 -3.4287257334069E-02  1.4071322980695E-01 -1.9486449662633E-01
    17  1.6000000000000E-01 -3.5954874020850E-02  1.5502232603253E-01 -2.1583284559499E-01
    18  1.7000000000000E-01 -3.6994202017473E-02  1.6902653545892E-01 -2.3673297646358E-01
    19  1.8000000000000E-01 -3.7295685609413E-02  1.8254084027015E-01 -2.5735113622708E-01
    20  1.9000000000000E-01 -3.6751016817661E-02  1.9538157217582E-01 -2.7747523485587E-01
    21  2.0000000000000E-01 -3.5254243289243E-02  2.0736818000390E-01 -2.9689689665506E-01
    22  2.1000000000000E-01 -3.2702865572220E-02  2.1832498134088E-01 -3.1541349130218E-01
    23  2.2000000000000E-01 -2.8998914120015E-02  2.2808288294267E-01 -3.3283012657957E-01
    24  2.3000000000000E-01 -2.4049996500593E-02  2.3648105484648E-01 -3.4896158505700E-01
    25  2.4000000000000E-01 -1.7770305496235E-02  2.4336854344605E-01 -3.6363418736625E-01
    26  2.5000000000000E-01 -1.0081579067738E-02  2.4860580924746E-01 -3.7668756524199E-01
    27  2.6000000000000E-01 -9.1400352104943E-04  2.5206617559845E-01 -3.8797632817635E-01
    28  2.7000000000000E-01  9.7929483482174E-03  2.5363717537523E-01 -3.9737160834552E-01
    29  2.8000000000000E-01  2.2089751849406E-02  2.5322178341244E-01 -4.0476246940801E-01
    30  2.9000000000000E-01  3.6016144873729E-02  2.5073952336866E-01 -4.1005716584012E-01
    31  3.0000000000000E-01  5.1600528760923E-02  2.4612743872382E-01 -4.1318424065541E-01
    32  3.1000000000000E-01  6.8859461370292E-02  2.3934091869908E-01 -4.1409345064410E-01
    33  3.2000000000000E-01  8.7797247426338E-02  2.3035437106556E-01 -4.1275650965459E-01
    34  3.3000000000000E-01  1.0840563041886E-01  2.1916173505585E-01 -4.0916764191157E-01
    35  3.4000000000000E-01  1.3066358950738E-01  2.0577682890303E-01 -4.0334393891382E-01
    36  3.5000000000000E-01  1.5453724401668E-01  1.9023352789387E-01 -3.9532551506558E-01
    37  3.6000000000000E-01  1.7997986722093E-01  1.7258577022704E-01 -3.8517545885729E-01
    38  3.7000000000000E-01  2.0693201020513E-01  1.5290738940019E-01 -3.7297957811023E-01
    39  3.8000000000000E-01  2.3532173567282E-01  1.3129177330209E-01 -3.5884593952287E-01
    40  3.9000000000000E-01  2.6506496064368E-01  1.0785135164435E-01 -3.4290420448894E-01
    41  4.0000000000000E-01  2.9606590606371E-01  8.2716914820432E-02 -3.2530476488657E-01
    42  4.1000000000000E-01  3.2821765043950E-01  5.6036768715598E-02 -3.0621768424833E-01
    43  4.2000000000000E-01  3.6140278371592E-01  2.7975731398041E-02 -2.8583145140068E-01
    44  4.3000000000000E-01  3.9549415674948E-01 -1.2860210126340E-03 -2.6435155529400E-01
    45  4.4000000000000E-01  4.3035572089593E-01 -3.1554250690121E-02 -2.4199889131780E-01
    46  4.5000000000000E-01  4.6584345143671E-01 -6.2622086799931E-02 -2.1900801089573E-01
    47  4.6000000000000E-01  5.0180634782199E-01 -9.4271575516681E-02 -1.9562522757034E-01
    48  4.7000000000000E-01  5.3808750301410E-01 -1.2627533923386E-01 -1.7210659410429E-01
    49  4.8000000000000E-01  5.7452523358074E-01 -1.5839833184238E-01 -1.4871576633333E-01
    50  4.9000000000000E-01  6.1095426161795E-01 -1.9039967605973E-01 -1.2572177059451E-01
    51  5.0000000000000E-01  6.4720693908322E-01 -2.2203456800768E-01 -1.0339669251148E-01
    52  5.1000000000000E-01  6.8311450469457E-01 -2.5305623357105E-01 -8.2013305739870E-02
    53  5.2000000000000E-01  7.1850836320525E-01 -2.8321792052858E-01 -6.1842659948957E-02
    54  5.3000000000000E-01  7.5322137659998E-01 -3.1227491003553E-01 -4.3151647837889E-02
    55  5.4000000000000E-01  7.8708915657954E-01 -3.3998653076011E-01 -2.6200571347127E-02
    56  5.5000000000000E-01  8.1995134760883E-01 -3.6611815883563E-01 -1.1240727426458E-02
    57  5.6000000000000E-01  8.5165288979960E-01 -3.9044318678928E-01  1.4879662443445E-03
    58  5.7000000000000E-01  8.8204525098496E-01 -4.1274494474843E-01  1.1759285318692E-02
    59  5.8000000000000E-01  9.1098761751712E-01 -4.3281855750461E-01  1.9362932666024E-02
    60  5.9000000000000E-01  9.3834803358277E-01 -4.5047272143470E-01  2.4106672577008E-02
    61  6.0000000000000E-01  9.6400447918006E-01 -4.6553138583357E-01  2.5818346423546E-02
    62  6.1000000000000E-01  9.8784587733526E-01 -4.7783532390100E-01  2.4347751696663E-02
    63  6.2000000000000E-01  1.0097730216527E+00 -4.8724357944127E-01  1.9568367290897E-02
    64  6.3000000000000E-01  1.0296994158855E+00 -4.9363477627276E-01  1.1378908997770E-02
    65  6.4000000000000E-01  1.0475520178805E+00 -4.9690827839792E-01 -2.9529959393355E-04
    66  6.5000000000000E-01  1.0632718809885E+00 -4.9698519014545E-01 -1.5501154226375E-02
    67  6.6000000000000E-01  1.0768146868273E+00 -4.9380918675535E-01 -3.4256807075718E-02
    68  6.7000000000000E-01  1.0881511641408E+00 -4.8734716722596E-01 -5.6550924176743E-02
    69  6.8000000000000E-01  1.0972673894047E+00 -4.7758972266756E-01 -8.2342171817836E-02
    70  6.9000000000000E-01  1.1041649657756E+00 -4.6455141490001E-01 -1.1155893877098E-01