In    ONCVPSP-4.0.1  r_core=   2.10981   2.36376   1.86074
     49.0000     13.0000      250925    zatom,zion,pspd
     8   -1012   2     4   600     0    pspcod,pspxc,lmax,lloc,mmax,r2well
  5.99000000  5.00000000  0.00000000    rchrg fchrg qchrg
     2     3     2     0    nproj
     3     1           extension_switch
     4     3     0    nprojso
   0                         9.6293228878316E+00  1.9277390126608E+00
     1  0.0000000000000E+00  1.1417220502352E-09 -1.2345080513398E-09
     2  1.0000000000000E-02 -3.4659930048302E-02  5.7443759078203E-02
     3  2.0000000000000E-02 -6.8872168890573E-02  1.1439423976711E-01
     4  3.0000000000000E-02 -1.0219300049838E-01  1.7036250558133E-01
     5  4.0000000000000E-02 -1.3418662491356E-01  2.2486826661673E-01
     6  5.0000000000000E-02 -1.6442903086268E-01  2.7744411008999E-01
     7  6.0000000000000E-02 -1.9251176668030E-01  3.2763962045659E-01
     8  7.0000000000000E-02 -2.1804557699298E-01  3.7502535375861E-01
     9  8.0000000000000E-02 -2.4066387375770E-01  4.1919663208821E-01
    10  9.0000000000000E-02 -2.6002601165746E-01  4.5977712557625E-01
    11  1.0000000000000E-01 -2.7582033952149E-01  4.9642219111581E-01
    12  1.1000000000000E-01 -2.8776700134443E-01  5.2882193909197E-01
    13  1.2000000000000E-01 -2.9562046261073E-01  5.5670400169525E-01
    14  1.3000000000000E-01 -2.9917173997085E-01  5.7983597892665E-01
    15  1.4000000000000E-01 -2.9825031484445E-01  5.9802754113750E-01
    16  1.5000000000000E-01 -2.9272571422115E-01  6.1113216986228E-01
    17  1.6000000000000E-01 -2.8250874476943E-01  6.1904852177532E-01
    18  1.7000000000000E-01 -2.6755236932499E-01  6.2172140380468E-01
    19  1.8000000000000E-01 -2.4785221788594E-01  6.1914235074358E-01
    20  1.9000000000000E-01 -2.2344672836834E-01  6.1134980008237E-01
    21  2.0000000000000E-01 -1.9441691554542E-01  5.9842886221451E-01
    22  2.1000000000000E-01 -1.6088576978004E-01  5.8051068761919E-01
    23  2.2000000000000E-01 -1.2301729033636E-01  5.5777143606192E-01
    24  2.3000000000000E-01 -8.1015161195589E-02  5.3043085625374E-01
    25  2.4000000000000E-01 -3.5121080376136E-02  4.9875048774056E-01
    26  2.5000000000000E-01  1.4387243256479E-02  4.6303150002901E-01
    27  2.6000000000000E-01  6.7198408834456E-02  4.2361218706521E-01
    28  2.7000000000000E-01  1.2296993840230E-01  3.8086513814309E-01
    29  2.8000000000000E-01  1.8133116574956E-01  3.3519410910311E-01
    30  2.9000000000000E-01  2.4188637462950E-01  2.8703062026610E-01
    31  3.0000000000000E-01  3.0421815965671E-01  2.3683030991009E-01
    32  3.1000000000000E-01  3.6789098122701E-01  1.8506907421716E-01
    33  3.2000000000000E-01  4.3245488409560E-01  1.3223902647738E-01
    34  3.3000000000000E-01  4.9744934779863E-01  7.8844309918328E-02
    35  3.4000000000000E-01  5.6240723592338E-01  2.5396799820165E-02
    36  3.5000000000000E-01  6.2685881033178E-01 -2.7588268435339E-02
    37  3.6000000000000E-01  6.9033577583175E-01 -7.9596708056555E-02
    38  3.7000000000000E-01  7.5237532047412E-01 -1.3011978859012E-01
    39  3.8000000000000E-01  8.1252411663521E-01 -1.7865860500366E-01
    40  3.9000000000000E-01  8.7034224832599E-01 -2.2472837066645E-01
    41  4.0000000000000E-01  9.2540703074679E-01 -2.6786259739742E-01
    42  4.1000000000000E-01  9.7731668897784E-01 -3.0761712667187E-01
    43  4.2000000000000E-01  1.0256938638532E+00 -3.4357397730989E-01
    44  4.3000000000000E-01  1.0701889145002E+00 -3.7534497649946E-01
    45  4.4000000000000E-01  1.1104829887250E+00 -4.0257514282463E-01
    46  4.5000000000000E-01  1.1462908343787E+00 -4.2494579205769E-01
    47  4.6000000000000E-01  1.1773633270207E+00 -4.4217733881729E-01
    48  4.7000000000000E-01  1.2034896916024E+00 -4.5403176977259E-01
    49  4.8000000000000E-01  1.2244993984939E+00 -4.6031476686407E-01
    50  4.9000000000000E-01  1.2402637169489E+00 -4.6087746199227E-01
    51  5.0000000000000E-01  1.2506969120330E+00 -4.5561780777045E-01
    52  5.1000000000000E-01  1.2557570740905E+00 -4.4448155221933E-01
    53  5.2000000000000E-01  1.2554465729797E+00 -4.2746280867359E-01
    54  5.3000000000000E-01  1.2498121325328E+00 -4.0460421564212E-01
    55  5.4000000000000E-01  1.2389445239694E+00 -3.7599668488639E-01
    56  5.5000000000000E-01  1.2229778802823E+00 -3.4177873952395E-01
    57  5.6000000000000E-01  1.2020886368931E+00 -3.0213544749660E-01
    58  5.7000000000000E-01  1.1764941071135E+00 -2.5729695923321E-01
    59  5.8000000000000E-01  1.1464507041232E+00 -2.0753666175704E-01
    60  5.9000000000000E-01  1.1122518242449E+00 -1.5316896480487E-01
    61  6.0000000000000E-01  1.0742254092579E+00 -9.4546737712834E-02
    62  6.1000000000000E-01  1.0327312082895E+00 -3.2058418852136E-02
    63  6.2000000000000E-01  9.8815776246081E-01  3.3875177758516E-02
    64  6.3000000000000E-01  9.4091913789212E-01  1.0280433140474E-01
    65  6.4000000000000E-01  8.9145143489483E-01  1.7425412953449E-01
    66  6.5000000000000E-01  8.4020910314930E-01  2.4772839672134E-01
    67  6.6000000000000E-01  7.8766109439201E-01  3.2271380406367E-01
    68  6.7000000000000E-01  7.3428688558293E-01  3.9868412377362E-01
    69  6.8000000000000E-01  6.8057240668807E-01  4.7510459243912E-01
    70  6.9000000000000E-01  6.2700590807901E-01  5.5143634548958E-01
    71  7.0000000000000E-01  5.7407380311409E-01  6.2714088476954E-01
    72  7.1000000000000E-01  5.2225652171828E-01  7.0168454083179E-01
    73  7.2000000000000E-01  4.7202441071818E-01  7.7454289160373E-01
    74  7.3000000000000E-01  4.2383371631477E-01  8.4520509946057E-01
    75  7.4000000000000E-01  3.7812268339206E-01  9.1317812945057E-01
    76  7.5000000000000E-01  3.3530780537067E-01  9.7799081245837E-01
    77  7.6000000000000E-01  2.9578025702839E-01  1.0391977184509E+00
    78  7.7000000000000E-01  2.5990254113793E-01  1.0963828066168E+00
    79  7.8000000000000E-01  2.2800537792603E-01  1.1491628211703E+00
    80  7.9000000000000E-01  2.0038486425666E-01  1.1971904038236E+00
    81  8.0000000000000E-01  1.7729992709992E-01  1.2401568964267E+00
    82  8.1000000000000E-01  1.5897009328954E-01  1.2777948099965E+00
    83  8.2000000000000E-01  1.4557359481704E-01  1.3098799392953E+00
    84  8.3000000000000E-01  1.3724582598472E-01  1.3362331052400E+00
    85  8.4000000000000E-01  1.3407816566731E-01  1.3567215107000E+00
    86  8.5000000000000E-01  1.3611717474226E-01  1.3712596986476E+00
    87  8.6000000000000E-01  1.4336417546774E-01  1.3798101051281E+00
    88  8.7000000000000E-01  1.5577521624639E-01  1.3823832030826E+00
    89  8.8000000000000E-01  1.7326142184034E-01  1.3790372366611E+00
    90  8.9000000000000E-01  1.9568972572963E-01  1.3698775492654E+00
    91  9.0000000000000E-01  2.2288397796276E-01  1.3550555121328E+00
    92  9.1000000000000E-01  2.5462641856310E-01  1.3347670637831E+00
    93  9.2000000000000E-01  2.9065950336017E-01  1.3092508740615E+00
    94  9.3000000000000E-01  3.3068806603679E-01  1.2787861498025E+00
    95  9.4000000000000E-01  3.7438179725160E-01  1.2436901022669E+00
    96  9.5000000000000E-01  4.2137801893641E-01  1.2043150994586E+00
    97  9.6000000000000E-01  4.7128472930541E-01  1.1610455291577E+00
    98  9.7000000000000E-01  5.2368389177100E-01  1.1142944010157E+00
    99  9.8000000000000E-01  5.7813493885996E-01  1.0644997182954E+00
   100  9.9000000000000E-01  6.3417846038362E-01  1.0121206518065E+00
   101  1.0000000000000E+00  6.9134004355298E-01  9.5763355025500E-01
   102  1.0100000000000E+00  7.4913423145770E-01  9.0152782257784E-01
   103  1.0200000000000E+00  8.0706856535935E-01  8.4430172887175E-01
   104  1.0300000000000E+00  8.6464767559198E-01  7.8645811721879E-01
   105  1.0400000000000E+00  9.2137738552332E-01  7.2850014407481E-01
   106  1.0500000000000E+00  9.7676879300973E-01  6.7092701590262E-01
   107  1.0600000000000E+00  1.0303422940791E+00  6.1422978940771E-01
   108  1.0700000000000E+00  1.0816315141926E+00  5.5888726707115E-01
   109  1.0800000000000E+00  1.1301871133656E+00  5.0536202367753E-01
   110  1.0900000000000E+00  1.1755804326574E+00  4.5409659822030E-01
   111  1.1000000000000E+00  1.2174069510645E+00  4.0550988393434E-01
   112  1.1100000000000E+00  1.2552895236418E+00  3.5999374728872E-01
   113  1.1200000000000E+00  1.2888813737443E+00  3.1790990456739E-01
   114  1.1300000000000E+00  1.3178688145652E+00  2.7958708221849E-01
   115  1.1400000000000E+00  1.3419736776731E+00  2.4531848445972E-01
   116  1.1500000000000E+00  1.3609554289490E+00  2.1535958874289E-01
   117  1.1600000000000E+00  1.3746129552123E+00  1.8992628659988E-01
   118  1.1700000000000E+00  1.3827860078342E+00  1.6919338418193E-01
   119  1.1800000000000E+00  1.3853562927826E+00  1.5329347344866E-01
   120  1.1900000000000E+00  1.3822481997468E+00  1.4231618155142E-01
   121  1.2000000000000E+00  1.3734291662774E+00  1.3630780245148E-01
   122  1.2100000000000E+00  1.3589096761577E+00  1.3527131132271E-01
   123  1.2200000000000E+00  1.3387428945224E+00  1.3916675877996E-01
   124  1.2300000000000E+00  1.3130239454857E+00  1.4791203852077E-01
   125  1.2400000000000E+00  1.2818888412176E+00  1.6138401859786E-01
   126  1.2500000000000E+00  1.2455130745024E+00  1.7942002325306E-01
   127  1.2600000000000E+00  1.2041098897618E+00  2.0181964912167E-01
   128  1.2700000000000E+00  1.1579282503310E+00  2.2834689664442E-01
   129  1.2800000000000E+00  1.1072505224056E+00  2.5873259474694E-01
   130  1.2900000000000E+00  1.0523898984914E+00  2.9267709430093E-01
   131  1.3000000000000E+00  9.9368758538648E-01  3.2985320356838E-01
   132  1.3100000000000E+00  9.3150978367942E-01  3.6990933678306E-01
   133  1.3200000000000E+00  8.6624448742783E-01  4.1247284526496E-01
   134  1.3300000000000E+00  7.9829813409418E-01  4.5715349900083E-01
   135  1.3400000000000E+00  7.2809213593739E-01  5.0354708546731E-01
   136  1.3500000000000E+00  6.5605932487699E-01  5.5123909164694E-01
   137  1.3600000000000E+00  5.8264034336297E-01  5.9980843468249E-01
   138  1.3700000000000E+00  5.0828001399272E-01  6.4883120644196E-01
   139  1.3800000000000E+00  4.3342372051343E-01  6.9788439742611E-01
   140  1.3900000000000E+00  3.5851383244020E-01  7.4654956593665E-01
   141  1.4000000000000E+00  2.8398620480997E-01  7.9441641923275E-01
   142  1.4100000000000E+00  2.1026678359435E-01  8.4108627451834E-01
   143  1.4200000000000E+00  1.3776834600585E-01  8.8617536902960E-01
   144  1.4300000000000E+00  6.6887403387590E-02  9.2931799019073E-01
   145  1.4400000000000E+00 -1.9987074238207E-03  9.7016939877673E-01
   146  1.4500000000000E+00 -6.8534520407861E-02  1.0084085202424E+00
   147  1.4600000000000E+00 -1.3238890271678E-01  1.0437403818017E+00
   148  1.4700000000000E+00 -1.9325726389683E-01  1.0758982754919E+00
   149  1.4800000000000E+00 -2.5086349537155E-01  1.1046456302529E+00
   150  1.4900000000000E+00 -3.0496162631371E-01  1.1297775790000E+00
   151  1.5000000000000E+00 -3.5533718486630E-01  1.1511222097307E+00
   152  1.5100000000000E+00 -4.0180825658589E-01  1.1685414928407E+00
   153  1.5200000000000E+00 -4.4422623495055E-01  1.1819318800230E+00
   154  1.5300000000000E+00 -4.8247626174915E-01  1.1912245733167E+00
   155  1.5400000000000E+00 -5.1647735815849E-01  1.1963854660813E+00
   156  1.5500000000000E+00 -5.4618225024594E-01  1.1974147608104E+00
   157  1.5600000000000E+00 -5.7157689550947E-01  1.1943462717720E+00
   158  1.5700000000000E+00 -5.9267971984452E-01  1.1872464234273E+00
   159  1.5800000000000E+00 -6.0954057698377E-01  1.1762129584079E+00
   160  1.5900000000000E+00 -6.2223944496479E-01  1.1613733714991E+00
   161  1.6000000000000E+00 -6.3088487651927E-01  1.1428830885515E+00
   162  1.6100000000000E+00 -6.3561222242286E-01  1.1209234115122E+00
   163  1.6200000000000E+00 -6.3658164877789E-01  1.0956992527970E+00
   164  1.6300000000000E+00 -6.3397597090332E-01  1.0674366840059E+00
   165  1.6400000000000E+00 -6.2799832796350E-01  1.0363803254987E+00
   166  1.6500000000000E+00 -6.1886972366558E-01  1.0027906045759E+00
   167  1.6600000000000E+00 -6.0682645928604E-01  9.6694091095153E-01
   168  1.6700000000000E+00 -5.9211748594162E-01  9.2911467884440E-01
   169  1.6800000000000E+00 -5.7500170338762E-01  8.8960242531204E-01
   170  1.6900000000000E+00 -5.5574523272781E-01  8.4869877454554E-01
   171  1.7000000000000E+00 -5.3461869072740E-01  8.0669949975731E-01
   172  1.7100000000000E+00 -5.1189449636306E-01  7.6389863115130E-01
   173  1.7200000000000E+00 -4.8784434207127E-01  7.2058615306976E-01
   174  1.7300000000000E+00 -4.6273679752998E-01  6.7704593380761E-01
   175  1.7400000000000E+00 -4.3683493890493E-01  6.3355330859797E-01
   176  1.7500000000000E+00 -4.1039408700854E-01  5.9037270525785E-01
   177  1.7600000000000E+00 -3.8365969781622E-01  5.4775545603153E-01
   178  1.7700000000000E+00 -3.5686542099871E-01  5.0593779964391E-01
   179  1.7800000000000E+00 -3.3023134333914E-01  4.6513909326502E-01
   180  1.7900000000000E+00 -3.0396243133238E-01  4.2556024939137E-01
   181  1.8000000000000E+00 -2.7824718490641E-01  3.8738240991009E-01
   182  1.8100000000000E+00 -2.5325651180821E-01  3.5076586703536E-01
   183  1.8200000000000E+00 -2.2914282971328E-01  3.1584923808341E-01
   184  1.8300000000000E+00 -2.0603940058856E-01  2.8274889828296E-01
   185  1.8400000000000E+00 -1.8405989928964E-01  2.5155867303011E-01
   186  1.8500000000000E+00 -1.6329821582974E-01  2.2234978821915E-01
   187  1.8600000000000E+00 -1.4382848825025E-01  1.9517107454450E-01
   188  1.8700000000000E+00 -1.2570536055636E-01  1.7004941898189E-01
   189  1.8800000000000E+00 -1.0896445784103E-01  1.4699045410953E-01
   190  1.8900000000000E+00 -9.3623068426942E-02  1.2597947343706E-01
   191  1.9000000000000E+00 -7.9681020734240E-02  1.0698255860646E-01
   192  1.9100000000000E+00 -6.7121740602172E-02  8.9947902183841E-02
   193  1.9200000000000E+00 -5.5913472975470E-02  7.4807307794492E-02
   194  1.9300000000000E+00 -4.6010650242188E-02  6.1477847600538E-02
   195  1.9400000000000E+00 -3.7355388088997E-02  4.9863655590961E-02
   196  1.9500000000000E+00 -2.9879088534619E-02  3.9857833861180E-02
   197  1.9600000000000E+00 -2.3504128828975E-02  3.1344448021912E-02
   198  1.9700000000000E+00 -1.8145615188785E-02  2.4200588054206E-02
   199  1.9800000000000E+00 -1.3713168477645E-02  1.8298459817682E-02
   200  1.9900000000000E+00 -1.0112762464609E-02  1.3507521938437E-02
   201  2.0000000000000E+00 -7.2484946211417E-03  9.6965541757464E-03
   202  2.0100000000000E+00 -5.0240596188287E-03  6.7354318514184E-03
   203  2.0200000000000E+00 -3.3441288461561E-03  4.4967866208077E-03
   204  2.0300000000000E+00 -2.1180641754289E-03  2.8598531318911E-03
   205  2.0400000000000E+00 -1.2603928519158E-03  1.7112751156083E-03
   206  2.0500000000000E+00 -6.9176066777159E-04  9.4631576615537E-04
   207  2.0600000000000E+00 -3.4041486345674E-04  4.7052597080554E-04
   208  2.0700000000000E+00 -1.4338385457219E-04  2.0110140423373E-04
   209  2.0800000000000E+00 -4.7525602580465E-05  6.8081721756698E-05
   210  2.0900000000000E+00 -1.0400414704246E-05  1.5361414308253E-05
   211  2.1000000000000E+00 -8.9635295397918E-07  1.3615721194008E-06
   212  2.1100000000000E+00 -1.7221267447122E-08  2.0908237118605E-08
   213  2.1200000000000E+00 -4.2462738561058E-08  6.0457819334963E-08
   214  2.13  0.  0.
   215  2.14  0.  0.
   216  2.15  0.  0.
   217  2.16  0.  0.
   218  2.17  0.  0.
   219  2.18  0.  0.
   220  2.19  0.  0.
   221  2.20  0.  0.
   222  2.21  0.  0.
   223  2.22  0.  0.
   224  2.23  0.  0.
   225  2.24  0.  0.
   226  2.25  0.  0.
   227  2.26  0.  0.
   228  2.27  0.  0.
   229  2.28  0.  0.
   230  2.29  0.  0.
   231  2.30  0.  0.
   232  2.31  0.  0.
   233  2.32  0.  0.
   234  2.33  0.  0.
   235  2.34  0.  0.
   236  2.35  0.  0.
   237  2.36  0.  0.
   238  2.37  0.  0.
   239  2.38  0.  0.
   240  2.39  0.  0.
   241  2.40  0.  0.
   242  2.41  0.  0.
   243  2.42  0.  0.
   244  2.43  0.  0.
   245  2.44  0.  0.
   246  2.45  0.  0.
   247  2.46  0.  0.
   248  2.47  0.  0.
   249  2.48  0.  0.
   250  2.49  0.  0.
   251  2.50  0.  0.
   252  2.51  0.  0.
   253  2.52  0.  0.
   254  2.53  0.  0.
   255  2.54  0.  0.
   256  2.55  0.  0.
   257  2.56  0.  0.
   258  2.57  0.  0.
   259  2.58  0.  0.
   260  2.59  0.  0.
   261  2.60  0.  0.
   262  2.61  0.  0.
   263  2.62  0.  0.
   264  2.63  0.  0.
   265  2.64  0.  0.
   266  2.65  0.  0.
   267  2.66  0.  0.
   268  2.67  0.  0.
   269  2.68  0.  0.
   270  2.69  0.  0.
   271  2.70  0.  0.
   272  2.71  0.  0.
   273  2.72  0.  0.
   274  2.73  0.  0.
   275  2.74  0.  0.
   276  2.75  0.  0.
   277  2.76  0.  0.
   278  2.77  0.  0.
   279  2.78  0.  0.
   280  2.79  0.  0.
   281  2.80  0.  0.
   282  2.81  0.  0.
   283  2.82  0.  0.
   284  2.83  0.  0.
   285  2.84  0.  0.
   286  2.85  0.  0.
   287  2.86  0.  0.
   288  2.87  0.  0.
   289  2.88  0.  0.
   290  2.89  0.  0.
   291  2.90  0.  0.
   292  2.91  0.  0.
   293  2.92  0.  0.
   294  2.93  0.  0.
   295  2.94  0.  0.
   296  2.95  0.  0.
   297  2.96  0.  0.
   298  2.97  0.  0.
   299  2.98  0.  0.
   300  2.99  0.  0.
   301  3.00  0.  0.
   302  3.01  0.  0.
   303  3.02  0.  0.
   304  3.03  0.  0.
   305  3.04  0.  0.
   306  3.05  0.  0.
   307  3.06  0.  0.
   308  3.07  0.  0.
   309  3.08  0.  0.
   310  3.09  0.  0.
   311  3.10  0.  0.
   312  3.11  0.  0.
   313  3.12  0.  0.
   314  3.13  0.  0.
   315  3.14  0.  0.
   316  3.15  0.  0.
   317  3.16  0.  0.
   318  3.17  0.  0.
   319  3.18  0.  0.
   320  3.19  0.  0.
   321  3.20  0.  0.
   322  3.21  0.  0.
   323  3.22  0.  0.
   324  3.23  0.  0.
   325  3.24  0.  0.
   326  3.25  0.  0.
   327  3.26  0.  0.
   328  3.27  0.  0.
   329  3.28  0.  0.
   330  3.29  0.  0.
   331  3.30  0.  0.
   332  3.31  0.  0.
   333  3.32  0.  0.
   334  3.33  0.  0.
   335  3.34  0.  0.
   336  3.35  0.  0.
   337  3.36  0.  0.
   338  3.37  0.  0.
   339  3.38  0.  0.
   340  3.39  0.  0.
   341  3.40  0.  0.
   342  3.41  0.  0.
   343  3.42  0.  0.
   344  3.43  0.  0.
   345  3.44  0.  0.
   346  3.45  0.  0.
   347  3.46  0.  0.
   348  3.47  0.  0.
   349  3.48  0.  0.
   350  3.49  0.  0.
   351  3.50  0.  0.
   352  3.51  0.  0.
   353  3.52  0.  0.
   354  3.53  0.  0.
   355  3.54  0.  0.
   356  3.55  0.  0.
   357  3.56  0.  0.
   358  3.57  0.  0.
   359  3.58  0.  0.
   360  3.59  0.  0.
   361  3.60  0.  0.
   362  3.61  0.  0.
   363  3.62  0.  0.
   364  3.63  0.  0.
   365  3.64  0.  0.
   366  3.65  0.  0.
   367  3.66  0.  0.
   368  3.67  0.  0.
   369  3.68  0.  0.
   370  3.69  0.  0.
   371  3.70  0.  0.
   372  3.71  0.  0.
   373  3.72  0.  0.
   374  3.73  0.  0.
   375  3.74  0.  0.
   376  3.75  0.  0.
   377  3.76  0.  0.
   378  3.77  0.  0.
   379  3.78  0.  0.
   380  3.79  0.  0.
   381  3.80  0.  0.
   382  3.81  0.  0.
   383  3.82  0.  0.
   384  3.83  0.  0.
   385  3.84  0.  0.
   386  3.85  0.  0.
   387  3.86  0.  0.
   388  3.87  0.  0.
   389  3.88  0.  0.
   390  3.89  0.  0.
   391  3.90  0.  0.
   392  3.91  0.  0.
   393  3.92  0.  0.
   394  3.93  0.  0.
   395  3.94  0.  0.
   396  3.95  0.  0.
   397  3.96  0.  0.
   398  3.97  0.  0.
   399  3.98  0.  0.
   400  3.99  0.  0.
   401  4.00  0.  0.
   402  4.01  0.  0.
   403  4.02  0.  0.
   404  4.03  0.  0.
   405  4.04  0.  0.
   406  4.05  0.  0.
   407  4.06  0.  0.
   408  4.07  0.  0.
   409  4.08  0.  0.
   410  4.09  0.  0.
   411  4.10  0.  0.
   412  4.11  0.  0.
   413  4.12  0.  0.
   414  4.13  0.  0.
   415  4.14  0.  0.
   416  4.15  0.  0.
   417  4.16  0.  0.
   418  4.17  0.  0.
   419  4.18  0.  0.
   420  4.19  0.  0.
   421  4.20  0.  0.
   422  4.21  0.  0.
   423  4.22  0.  0.
   424  4.23  0.  0.
   425  4.24  0.  0.
   426  4.25  0.  0.
   427  4.26  0.  0.
   428  4.27  0.  0.
   429  4.28  0.  0.
   430  4.29  0.  0.
   431  4.30  0.  0.
   432  4.31  0.  0.
   433  4.32  0.  0.
   434  4.33  0.  0.
   435  4.34  0.  0.
   436  4.35  0.  0.
   437  4.36  0.  0.
   438  4.37  0.  0.
   439  4.38  0.  0.
   440  4.39  0.  0.
   441  4.40  0.  0.
   442  4.41  0.  0.
   443  4.42  0.  0.
   444  4.43  0.  0.
   445  4.44  0.  0.
   446  4.45  0.  0.
   447  4.46  0.  0.
   448  4.47  0.  0.
   449  4.48  0.  0.
   450  4.49  0.  0.
   451  4.50  0.  0.
   452  4.51  0.  0.
   453  4.52  0.  0.
   454  4.53  0.  0.
   455  4.54  0.  0.
   456  4.55  0.  0.
   457  4.56  0.  0.
   458  4.57  0.  0.
   459  4.58  0.  0.
   460  4.59  0.  0.
   461  4.60  0.  0.
   462  4.61  0.  0.
   463  4.62  0.  0.
   464  4.63  0.  0.
   465  4.64  0.  0.
   466  4.65  0.  0.
   467  4.66  0.  0.
   468  4.67  0.  0.
   469  4.68  0.  0.
   470  4.69  0.  0.
   471  4.70  0.  0.
   472  4.71  0.  0.
   473  4.72  0.  0.
   474  4.73  0.  0.
   475  4.74  0.  0.
   476  4.75  0.  0.
   477  4.76  0.  0.
   478  4.77  0.  0.
   479  4.78  0.  0.
   480  4.79  0.  0.
   481  4.80  0.  0.
   482  4.81  0.  0.
   483  4.82  0.  0.
   484  4.83  0.  0.
   485  4.84  0.  0.
   486  4.85  0.  0.
   487  4.86  0.  0.
   488  4.87  0.  0.
   489  4.88  0.  0.
   490  4.89  0.  0.
   491  4.90  0.  0.
   492  4.91  0.  0.
   493  4.92  0.  0.
   494  4.93  0.  0.
   495  4.94  0.  0.
   496  4.95  0.  0.
   497  4.96  0.  0.
   498  4.97  0.  0.
   499  4.98  0.  0.
   500  4.99  0.  0.
   501  5.00  0.  0.
   502  5.01  0.  0.
   503  5.02  0.  0.
   504  5.03  0.  0.
   505  5.04  0.  0.
   506  5.05  0.  0.
   507  5.06  0.  0.
   508  5.07  0.  0.
   509  5.08  0.  0.
   510  5.09  0.  0.
   511  5.10  0.  0.
   512  5.11  0.  0.
   513  5.12  0.  0.
   514  5.13  0.  0.
   515  5.14  0.  0.
   516  5.15  0.  0.
   517  5.16  0.  0.
   518  5.17  0.  0.
   519  5.18  0.  0.
   520  5.19  0.  0.
   521  5.20  0.  0.
   522  5.21  0.  0.
   523  5.22  0.  0.
   524  5.23  0.  0.
   525  5.24  0.  0.
   526  5.25  0.  0.
   527  5.26  0.  0.
   528  5.27  0.  0.
   529  5.28  0.  0.
   530  5.29  0.  0.
   531  5.30  0.  0.
   532  5.31  0.  0.
   533  5.32  0.  0.
   534  5.33  0.  0.
   535  5.34  0.  0.
   536  5.35  0.  0.
   537  5.36  0.  0.
   538  5.37  0.  0.
   539  5.38  0.  0.
   540  5.39  0.  0.
   541  5.40  0.  0.
   542  5.41  0.  0.
   543  5.42  0.  0.
   544  5.43  0.  0.
   545  5.44  0.  0.
   546  5.45  0.  0.
   547  5.46  0.  0.
   548  5.47  0.  0.
   549  5.48  0.  0.
   550  5.49  0.  0.
   551  5.50  0.  0.
   552  5.51  0.  0.
   553  5.52  0.  0.
   554  5.53  0.  0.
   555  5.54  0.  0.
   556  5.55  0.  0.
   557  5.56  0.  0.
   558  5.57  0.  0.
   559  5.58  0.  0.
   560  5.59  0.  0.
   561  5.60  0.  0.
   562  5.61  0.  0.
   563  5.62  0.  0.
   564  5.63  0.  0.
   565  5.64  0.  0.
   566  5.65  0.  0.
   567  5.66  0.  0.
   568  5.67  0.  0.
   569  5.68  0.  0.
   570  5.69  0.  0.
   571  5.70  0.  0.
   572  5.71  0.  0.
   573  5.72  0.  0.
   574  5.73  0.  0.
   575  5.74  0.  0.
   576  5.75  0.  0.
   577  5.76  0.  0.
   578  5.77  0.  0.
   579  5.78  0.  0.
   580  5.79  0.  0.
   581  5.80  0.  0.
   582  5.81  0.  0.
   583  5.82  0.  0.
   584  5.83  0.  0.
   585  5.84  0.  0.
   586  5.85  0.  0.
   587  5.86  0.  0.
   588  5.87  0.  0.
   589  5.88  0.  0.
   590  5.89  0.  0.
   591  5.90  0.  0.
   592  5.91  0.  0.
   593  5.92  0.  0.
   594  5.93  0.  0.
   595  5.94  0.  0.
   596  5.95  0.  0.
   597  5.96  0.  0.
   598  5.97  0.  0.
   599  5.98  0.  0.
   600  5.99  0.  0.
   1                         5.1993208926613E+00  8.4836315856621E-01  3.5263672068264E-02
     1  0.0000000000000E+00 -8.1814936943314E-10  1.2954354949857E-09 -1.5228705518844E-09
     2  1.0000000000000E-02 -2.4560721875789E-04  7.8067015919958E-04 -1.0461406994416E-03
     3  2.0000000000000E-02 -9.7704027441485E-04  3.1137736400848E-03 -4.1742377576803E-03
     4  3.0000000000000E-02 -2.1781846857165E-03  6.9726711384189E-03 -9.3534113429203E-03
     5  4.0000000000000E-02 -3.8223536155524E-03  1.2313235408185E-02 -1.6532511883834E-02
     6  5.0000000000000E-02 -5.8725422924786E-03  1.9074256236958E-02 -2.5640592452930E-02
     7  6.0000000000000E-02 -8.2817811615899E-03  2.7178002599036E-02 -3.6587564448364E-02
     8  7.0000000000000E-02 -1.0993584754984E-02  3.6530937220682E-02 -4.9265030974003E-02
     9  8.0000000000000E-02 -1.3942492453912E-02  4.7024577496353E-02 -6.3547290794739E-02
    10  9.0000000000000E-02 -1.7054696527565E-02  5.8536495448504E-02 -7.9292504278878E-02
    11  1.0000000000000E-01 -2.0248752083602E-02  7.0931448236224E-02 -9.6344011343350E-02
    12  1.1000000000000E-01 -2.3436362859100E-02  8.4062629599493E-02 -1.1453179010156E-01
    13  1.2000000000000E-01 -2.6523236123368E-02  9.7773031585229E-02 -1.3367404368943E-01
    14  1.3000000000000E-01 -2.9409999361448E-02  1.1189690494713E-01 -1.5357890162165E-01
    15  1.4000000000000E-01 -3.1993170864001E-02  1.2626130575144E-01 -1.7404622101743E-01
    16  1.5000000000000E-01 -3.4166175870293E-02  1.4068771496232E-01 -1.9486947214070E-01
    17  1.6000000000000E-01 -3.5820399499962E-02  1.5499371712986E-01 -2.1583769193216E-01
    18  1.7000000000000E-01 -3.6846267369953E-02  1.6899472376627E-01 -2.3673748857550E-01
    19  1.8000000000000E-01 -3.7134344527999E-02  1.8250572657647E-01 -2.5735507964337E-01
    20  1.9000000000000E-01 -3.6576443146045E-02  1.9534306541143E-01 -2.7747834601488E-01
    21  2.0000000000000E-01 -3.5066729307470E-02  2.0732619563886E-01 -2.9689888354861E-01
    22  2.1000000000000E-01 -3.2502819192246E-02  2.1827943957898E-01 -3.1541403443533E-01
    23  2.2000000000000E-01 -2.8786855014612E-02  2.2803370673224E-01 -3.3282888024438E-01
    24  2.3000000000000E-01 -2.3826551198382E-02  2.3642816773247E-01 -3.4895817891661E-01
    25  2.4000000000000E-01 -1.7536201484910E-02  2.4331186729060E-01 -3.6362822834312E-01
    26  2.5000000000000E-01 -9.8376379565069E-03  2.4854526184891E-01 -3.7667863970123E-01
    27  2.6000000000000E-01 -6.6113332179702E-04  2.5200166824119E-01 -3.8796400439278E-01
    28  2.7000000000000E-01  1.0053761753537E-02  2.5356861034452E-01 -3.9735543924006E-01
    29  2.8000000000000E-01  2.2357453980223E-02  2.5314905151010E-01 -4.0474199553674E-01
    30  2.9000000000000E-01  3.6289622579484E-02  2.5066250146663E-01 -4.1003191861642E-01
    31  3.0000000000000E-01  5.1878620719124E-02  2.4604598739336E-01 -4.1315374578340E-01
    32  3.1000000000000E-01  6.9140969060969E-02  2.3925487995376E-01 -4.1405723173904E-01
    33  3.2000000000000E-01  8.8080946485376E-02  2.3026356625590E-01 -4.1271409202354E-01
    34  3.3000000000000E-01  1.0869028226904E-01  2.1906596295309E-01 -4.0911855646565E-01
    35  3.4000000000000E-01  1.3094795316322E-01  2.0567586400826E-01 -4.0328772618122E-01
    36  3.5000000000000E-01  1.5482008795730E-01  1.9012711900742E-01 -3.9526172927282E-01
    37  3.6000000000000E-01  1.8025998122414E-01  1.7247363931097E-01 -3.8510367204451E-01
    38  3.7000000000000E-01  2.0720821703625E-01  1.5278923076448E-01 -3.7289938424510E-01
    39  3.8000000000000E-01  2.3559290252218E-01  1.3116725314222E-01 -3.5875695857632E-01
    40  3.9000000000000E-01  2.6533001020910E-01  1.0772010795504E-01 -3.4280608643540E-01
    41  4.0000000000000E-01  2.9632382717667E-01  8.2578557706514E-02 -3.2519719359069E-01
    42  4.1000000000000E-01  3.2846750813762E-01  5.5890881117475E-02 -3.0610038119988E-01
    43  4.2000000000000E-01  3.6164372866869E-01  2.7821870244906E-02 -2.8570417925946E-01
    44  4.3000000000000E-01  3.9572543394966E-01 -1.4483232129071E-03 -2.6421412120726E-01
    45  4.4000000000000E-01  4.3057667753508E-01 -3.1725483820056E-02 -2.4185114997288E-01
    46  4.5000000000000E-01  4.6605354389017E-01 -6.2802760660812E-02 -2.1884986727243E-01
    47  4.6000000000000E-01  5.0200514767613E-01 -9.4462216921326E-02 -1.9545663935844E-01
    48  4.7000000000000E-01  5.3827470207673E-01 -1.2647648867375E-01 -1.7192757375387E-01
    49  4.8000000000000E-01  5.7470064782429E-01 -1.5861053974396E-01 -1.4852638270762E-01
    50  4.9000000000000E-01  6.1111783401401E-01 -1.9062349864954E-01 -1.2552215019728E-01
    51  5.0000000000000E-01  6.4735874129663E-01 -2.2227056281055E-01 -1.0318702026455E-01
    52  5.1000000000000E-01  6.8325473761488E-01 -2.5330495457039E-01 -8.1793825288607E-02
    53  5.2000000000000E-01  7.1863735630354E-01 -2.8347991302190E-01 -6.1613673478033E-02
    54  5.3000000000000E-01  7.5333958610898E-01 -3.1255070522265E-01 -4.2913515382750E-02
    55  5.4000000000000E-01  7.8719716250532E-01 -3.4027664010527E-01 -2.5953709591052E-02
    56  5.5000000000000E-01  8.2004984959230E-01 -3.6642306824821E-01 -1.0985607977212E-02
    57  5.6000000000000E-01  8.5174270185623E-01 -3.9076335067104E-01  1.7508190996552E-03
    58  5.7000000000000E-01  8.8212729516074E-01 -4.1308077995774E-01  1.2029297377262E-02
    59  5.8000000000000E-01  9.1106291650844E-01 -4.3317043729069E-01  1.9639483083565E-02
    60  5.9000000000000E-01  9.3841770237689E-01 -4.5084096939643E-01  2.4389097639381E-02
    61  6.0000000000000E-01  9.6406971578152E-01 -4.6591626995892E-01  2.6105943798114E-02
    62  6.1000000000000E-01  9.8790795265171E-01 -4.7823705074385E-01  2.4639785140356E-02
    63  6.2000000000000E-01  1.0098332686212E+00 -4.8766228849275E-01  1.9864071787368E-02
    64  6.3000000000000E-01  1.0297592179271E+00 -4.9407053458388E-01  1.1677496291017E-02
    65  6.4000000000000E-01  1.0476127967770E+00 -4.9736107550957E-01  5.3648934119291E-06
    66  6.5000000000000E-01  1.0633350842812E+00 -4.9745493338040E-01 -1.5199229283672E-02
    67  6.6000000000000E-01  1.0768817748403E+00 -4.9429569692512E-01 -3.3954443070041E-02
    68  6.7000000000000E-01  1.0882235967386E+00 -4.8785017480294E-01 -5.6248940449756E-02
    69  6.8000000000000E-01  1.0973466125920E+00 -4.7810886446996E-01 -8.2041378787495E-02
    70  6.9000000000000E-01  1.1042523982532E+00 -4.6508623133378E-01 -1.1126013094665E-01