In    ONCVPSP-4.0.1  r_core=   2.10981   2.36376   1.86074
     49.0000     13.0000      231019    zatom,zion,pspd
     8       2   2     4   600     0    pspcod,pspxc,lmax,lloc,mmax,r2well
  5.99000000  5.00000000  0.00000000    rchrg fchrg qchrg
     2     2     2     0     0    nproj
     1     1           extension_switch
   0                         9.6090904804482E+00  1.9267919474044E+00
     1  0.0000000000000E+00  1.1422676693407E-09 -1.2361244805525E-09
     2  1.0000000000000E-02 -3.4742832342132E-02  5.7629826490326E-02
     3  2.0000000000000E-02 -6.9037479150774E-02  1.1476516533956E-01
     4  3.0000000000000E-02 -1.0243973293612E-01  1.7091587881419E-01
     5  4.0000000000000E-02 -1.3451330799246E-01  2.2560049171355E-01
     6  5.0000000000000E-02 -1.6483371582367E-01  2.7835042974600E-01
     7  6.0000000000000E-02 -1.9299203882298E-01  3.2871414731773E-01
     8  7.0000000000000E-02 -2.1859856964129E-01  3.7626110933231E-01
     9  8.0000000000000E-02 -2.4128628482072E-01  4.2058559283496E-01
    10  9.0000000000000E-02 -2.6071412267975E-01  4.6131027586150E-01
    11  1.0000000000000E-01 -2.7657003710203E-01  4.9808958265422E-01
    12  1.1000000000000E-01 -2.8857380078825E-01  5.3061275647170E-01
    13  1.2000000000000E-01 -2.9647953366390E-01  5.5860663352810E-01
    14  1.3000000000000E-01 -3.0007793447690E-01  5.8183809413207E-01
    15  1.4000000000000E-01 -2.9919819614889E-01  6.0011616983355E-01
    16  1.5000000000000E-01 -2.9370958814065E-01  6.1329378830634E-01
    17  1.6000000000000E-01 -2.8352269193358E-01  6.2126914077042E-01
    18  1.7000000000000E-01 -2.6859027869100E-01  6.2398665996526E-01
    19  1.8000000000000E-01 -2.4890782122087E-01  6.2143759999651E-01
    20  1.9000000000000E-01 -2.2451363548876E-01  6.1366021276571E-01
    21  2.0000000000000E-01 -1.9548865010152E-01  6.0073951912787E-01
    22  2.1000000000000E-01 -1.6195580536953E-01  5.8280667637539E-01
    23  2.2000000000000E-01 -1.2407908673358E-01  5.6003794709035E-01
    24  2.3000000000000E-01 -8.2062200482286E-02  5.3265327781100E-01
    25  2.4000000000000E-01 -3.6146902763476E-02  5.0091449929394E-01
    26  2.5000000000000E-01  1.3389004121161E-02  4.6512316339251E-01
    27  2.6000000000000E-01  6.6233991277187E-02  4.2561803468657E-01
    28  2.7000000000000E-01  1.2204541904252E-01  3.8277225796327E-01
    29  2.8000000000000E-01  1.8045242691714E-01  3.3699022543617E-01
    30  2.9000000000000E-01  2.4105907305603E-01  2.8870417017846E-01
    31  3.0000000000000E-01  3.0344769660849E-01  2.3837051461178E-01
    32  3.1000000000000E-01  3.6718247423617E-01  1.8646600501555E-01
    33  3.2000000000000E-01  4.3181314043396E-01  1.3348366488362E-01
    34  3.3000000000000E-01  4.9687883982654E-01  7.9928601540062E-02
    35  3.4000000000000E-01  5.6191207843255E-01  2.6313701718971E-02
    36  3.5000000000000E-01  6.2644273998762E-01 -2.6844747196106E-02
    37  3.6000000000000E-01  6.9000213280667E-01 -7.9031472899210E-02
    38  3.7000000000000E-01  7.5212703234896E-01 -1.2973663312123E-01
    39  3.8000000000000E-01  8.1236368463152E-01 -1.7846019204893E-01
    40  3.9000000000000E-01  8.7027173591731E-01 -2.2471622071594E-01
    41  4.0000000000000E-01  9.2542805468263E-01 -2.6803708448399E-01
    42  4.1000000000000E-01  9.7743041273963E-01 -3.0797748165489E-01
    43  4.2000000000000E-01  1.0259009935474E+00 -3.4411829848598E-01
    44  4.3000000000000E-01  1.0704896971798E+00 -3.7607024741305E-01
    45  4.4000000000000E-01  1.1108772131176E+00 -4.0347725710321E-01
    46  4.5000000000000E-01  1.1467778339855E+00 -4.2601958505065E-01
    47  4.6000000000000E-01  1.1779419855397E+00 -4.4341662577330E-01
    48  4.7000000000000E-01  1.2041584506164E+00 -4.5542939024869E-01
    49  4.8000000000000E-01  1.2252562673522E+00 -4.6186263502061E-01
    50  4.9000000000000E-01  1.2411062847632E+00 -4.6256662239162E-01
    51  5.0000000000000E-01  1.2516223616964E+00 -4.5743849626427E-01
    52  5.1000000000000E-01  1.2567621982201E+00 -4.4642326147929E-01
    53  5.2000000000000E-01  1.2565277916762E+00 -4.2951435789396E-01
    54  5.3000000000000E-01  1.2509655128423E+00 -4.0675382392007E-01
    55  5.4000000000000E-01  1.2401658009261E+00 -3.7823204776631E-01
    56  5.5000000000000E-01  1.2242624794061E+00 -3.4408710817729E-01
    57  5.6000000000000E-01  1.2034316980106E+00 -3.0450370999681E-01
    58  5.7000000000000E-01  1.1778905093680E+00 -2.5971172337815E-01
    59  5.8000000000000E-01  1.1478950920336E+00 -2.0998433888721E-01
    60  5.9000000000000E-01  1.1137386346755E+00 -1.5563585406625E-01
    61  6.0000000000000E-01  1.0757488991547E+00 -9.7019110216792E-02
    62  6.1000000000000E-01  1.0342854830415E+00 -3.4522601192696E-02
    63  6.2000000000000E-01  9.8973680474173E-01  3.1432721158673E-02
    64  6.3000000000000E-01  9.4251683684149E-01  1.0039691763342E-01
    65  6.4000000000000E-01  8.9306161549520E-01  1.7189477871023E-01
    66  6.5000000000000E-01  8.4182555566069E-01  2.4542975616962E-01
    67  6.6000000000000E-01  7.8927760370545E-01  3.2048807559998E-01
    68  6.7000000000000E-01  7.3589726035816E-01  3.9654299451756E-01
    69  6.8000000000000E-01  6.8217050814354E-01  4.7305916955468E-01
    70  6.9000000000000E-01  6.2858567830592E-01  5.4949709521518E-01
    71  7.0000000000000E-01  5.7562929279026E-01  6.2531757606845E-01
    72  7.1000000000000E-01  5.2378191710190E-01  6.9998619395804E-01
    73  7.2000000000000E-01  4.7351405980620E-01  7.7297773184293E-01
    74  7.3000000000000E-01  4.2528215405561E-01  8.4378051626667E-01
    75  7.4000000000000E-01  3.7952465584763E-01  9.1190064116207E-01
    76  7.5000000000000E-01  3.3665829272813E-01  9.7686603673770E-01
    77  7.6000000000000E-01  2.9707449536771E-01  1.0382303485521E+00
    78  7.7000000000000E-01  2.6113604286727E-01  1.0955765935471E+00
    79  7.8000000000000E-01  2.2917395080316E-01  1.1485205617718E+00
    80  7.9000000000000E-01  2.0148462892066E-01  1.1967139347637E+00
    81  8.0000000000000E-01  1.7832733304416E-01  1.2398470940469E+00
    82  8.1000000000000E-01  1.5992193321322E-01  1.2776515959339E+00
    83  8.2000000000000E-01  1.4644701729968E-01  1.3099022917547E+00
    84  8.3000000000000E-01  1.3803834643445E-01  1.3364190757602E+00
    85  8.4000000000000E-01  1.3478767550134E-01  1.3570682462266E+00
    86  8.5000000000000E-01  1.3674194876471E-01  1.3717634686936E+00
    87  8.6000000000000E-01  1.4390287741752E-01  1.3804663337746E+00
    88  8.7000000000000E-01  1.5622690249524E-01  1.3831865055458E+00
    89  8.8000000000000E-01  1.7362554322853E-01  1.3799814601288E+00
    90  8.9000000000000E-01  1.9596612753493E-01  1.3709558176822E+00
    91  9.0000000000000E-01  2.2307289800546E-01  1.3562602745967E+00
    92  9.1000000000000E-01  2.5472848345838E-01  1.3360901461972E+00
    93  9.2000000000000E-01  2.9067572293653E-01  1.3106835336723E+00
    94  9.3000000000000E-01  3.3061982594770E-01  1.2803191322438E+00
    95  9.4000000000000E-01  3.7423084981538E-01  1.2453137007206E+00
    96  9.5000000000000E-01  4.2114647224733E-01  1.2060192155358E+00
    97  9.6000000000000E-01  4.7097503466750E-01  1.1628197351035E+00
    98  9.7000000000000E-01  5.2329882951358E-01  1.1161280028361E+00
    99  9.8000000000000E-01  5.7767760260218E-01  1.0663818194105E+00
   100  9.9000000000000E-01  6.3365223982327E-01  1.0140402168357E+00
   101  1.0000000000000E+00  6.9074860586204E-01  9.5957946854750E-01
   102  1.0100000000000E+00  7.4848150137517E-01  9.0348897111159E-01
   103  1.0200000000000E+00  8.0635870407876E-01  8.4626703415375E-01
   104  1.0300000000000E+00  8.6388505854823E-01  7.8841661583378E-01
   105  1.0400000000000E+00  9.2056657918973E-01  7.3044104154444E-01
   106  1.0500000000000E+00  9.7591453082295E-01  6.7283974353403E-01
   107  1.0600000000000E+00  1.0294494516146E+00  6.1610405882942E-01
   108  1.0700000000000E+00  1.0807050837193E+00  5.6071312217390E-01
   109  1.0800000000000E+00  1.1292321779126E+00  5.0712988969971E-01
   110  1.0900000000000E+00  1.1746021397297E+00  4.5579732773975E-01
   111  1.1000000000000E+00  1.2164104861480E+00  4.0713479955246E-01
   112  1.1100000000000E+00  1.2542800836410E+00  3.6153468081696E-01
   113  1.1200000000000E+00  1.2878641404969E+00  3.1935923255157E-01
   114  1.1300000000000E+00  1.3168489285803E+00  2.8093775766187E-01
   115  1.1400000000000E+00  1.3409562122382E+00  2.4656406463198E-01
   116  1.1500000000000E+00  1.3599453647517E+00  2.1649425898806E-01
   117  1.1600000000000E+00  1.3736151556204E+00  1.9094488008239E-01
   118  1.1700000000000E+00  1.3818051949747E+00  1.7009139753606E-01
   119  1.1800000000000E+00  1.3843970245584E+00  1.5406707832206E-01
   120  1.1900000000000E+00  1.3813148479227E+00  1.4296223205874E-01
   121  1.2000000000000E+00  1.3725258957638E+00  1.3682383857838E-01
   122  1.2100000000000E+00  1.3580404256139E+00  1.3565555834452E-01
   123  1.2200000000000E+00  1.3379113583917E+00  1.3941812278202E-01
   124  1.2300000000000E+00  1.3122335575693E+00  1.4803009812928E-01
   125  1.2400000000000E+00  1.2811427598833E+00  1.6136901305100E-01
   126  1.2500000000000E+00  1.2448141696150E+00  1.7927283696148E-01
   127  1.2600000000000E+00  1.2034607314112E+00  2.0154179288569E-01
   128  1.2700000000000E+00  1.1573310994220E+00  2.2794048571233E-01
   129  1.2800000000000E+00  1.1067073231626E+00  2.5820032391373E-01
   130  1.2900000000000E+00  1.0519022729184E+00  2.9202221026101E-01
   131  1.3000000000000E+00  9.9325682970915E-01  3.2907947474776E-01
   132  1.3100000000000E+00  9.3113686678250E-01  3.6902102088729E-01
   133  1.3200000000000E+00  8.6593005128938E-01  4.1147465478801E-01
   134  1.3300000000000E+00  7.9804249620223E-01  4.5605056494719E-01
   135  1.3400000000000E+00  7.2789529366224E-01  5.0234491954545E-01
   136  1.3500000000000E+00  6.5592096175797E-01  5.4994354719595E-01
   137  1.3600000000000E+00  5.8255983725547E-01  5.9842566659587E-01
   138  1.3700000000000E+00  5.0825644700771E-01  6.4736763035323E-01
   139  1.3800000000000E+00  4.3345589066908E-01  6.9634664841951E-01
   140  1.3900000000000E+00  3.5860026693309E-01  7.4494445704382E-01
   141  1.4000000000000E+00  2.8412517480141E-01  7.9275089997160E-01
   142  1.4100000000000E+00  2.1045632039685E-01  8.3936738972468E-01
   143  1.4200000000000E+00  1.3800625854465E-01  8.8441021822500E-01
   144  1.4300000000000E+00  6.7171296802901E-02  9.2751368772098E-01
   145  1.4400000000000E+00 -1.6714121759203E-03  9.6833303494591E-01
   146  1.4500000000000E+00 -6.8166566104992E-02  1.0065471236559E+00
   147  1.4600000000000E+00 -1.3198317472520E-01  1.0418608831193E+00
   148  1.4700000000000E+00 -1.9281676849094E-01  1.0740074727792E+00
   149  1.4800000000000E+00 -2.5039133768052E-01  1.1027501561043E+00
   150  1.4900000000000E+00 -3.0446098805949E-01  1.1278838695918E+00
   151  1.5000000000000E+00 -3.5481130205789E-01  1.1492364759468E+00
   152  1.5100000000000E+00 -4.0126039733371E-01  1.1666696935974E+00
   153  1.5200000000000E+00 -4.4365967756259E-01  1.1800796979011E+00
   154  1.5300000000000E+00 -4.8189427326696E-01  1.1893973925942E+00
   155  1.5400000000000E+00 -5.1588317348596E-01  1.1945883532389E+00
   156  1.5500000000000E+00 -5.4557905201792E-01  1.1956524475672E+00
   157  1.5600000000000E+00 -5.7096779483925E-01  1.1926231406893E+00
   158  1.5700000000000E+00 -5.9206773808102E-01  1.1855664961011E+00
   159  1.5800000000000E+00 -6.0892862859922E-01  1.1745798862531E+00
   160  1.5900000000000E+00 -6.2163032168295E-01  1.1597904291100E+00
   161  1.6000000000000E+00 -6.3028123278252E-01  1.1413531696086E+00
   162  1.6100000000000E+00 -6.3501656228396E-01  1.1194490271860E+00
   163  1.6200000000000E+00 -6.3599631428886E-01  1.0942825325851E+00
   164  1.6300000000000E+00 -6.3340313206036E-01  1.0660793789256E+00
   165  1.6400000000000E+00 -6.2743997425219E-01  1.0350838135400E+00
   166  1.6500000000000E+00 -6.1832765723637E-01  1.0015558983091E+00
   167  1.6600000000000E+00 -6.0630228977508E-01  9.6576866716918E-01
   168  1.6700000000000E+00 -5.9161262693721E-01  9.2800521010701E-01
   169  1.6800000000000E+00 -5.7451737052788E-01  8.8855571325537E-01
   170  1.6900000000000E+00 -5.5528244340060E-01  8.4771448479858E-01
   171  1.7000000000000E+00 -5.3417826533038E-01  8.0577699831347E-01
   172  1.7100000000000E+00 -5.1147706107633E-01  7.6303700204265E-01
   173  1.7200000000000E+00 -4.8745033329357E-01  7.1978421757275E-01
   174  1.7300000000000E+00 -4.6236646796914E-01  6.7630227110178E-01
   175  1.7400000000000E+00 -4.3648836504019E-01  6.3286627733230E-01
   176  1.7500000000000E+00 -4.1007117777405E-01  5.8974046575952E-01
   177  1.7600000000000E+00 -3.8336020439549E-01  5.4717599298583E-01
   178  1.7700000000000E+00 -3.5658894760583E-01  5.0540894506320E-01
   179  1.7800000000000E+00 -3.2997735885673E-01  4.6465854956884E-01
   180  1.7900000000000E+00 -3.0373028167084E-01  4.2512561242306E-01
   181  1.8000000000000E+00 -2.7803610594499E-01  3.8699119172004E-01
   182  1.8100000000000E+00 -2.5306564277563E-01  3.5041551826622E-01
   183  1.8200000000000E+00 -2.2897122686406E-01  3.1553716979942E-01
   184  1.8300000000000E+00 -2.0588605103143E-01  2.8247250309277E-01
   185  1.8400000000000E+00 -1.8392373482540E-01  2.5131534536111E-01
   186  1.8500000000000E+00 -1.6317812665869E-01  2.2213694361012E-01
   187  1.8600000000000E+00 -1.4372333641311E-01  1.9498616783349E-01
   188  1.8700000000000E+00 -1.2561399297787E-01  1.6988996127681E-01
   189  1.8800000000000E+00 -1.0888571885146E-01  1.4685402843973E-01
   190  1.8900000000000E+00 -9.3555811644568E-02  1.2586374899611E-01
   191  1.9000000000000E+00 -7.9624120199851E-02  1.0688530350810E-01
   192  1.9100000000000E+00 -6.7074101066589E-02  8.9866994665663E-02
   193  1.9200000000000E+00 -5.5874039251023E-02  7.4740745816279E-02
   194  1.9300000000000E+00 -4.5978415540303E-02  6.1423756797192E-02
   195  1.9400000000000E+00 -3.7329401277778E-02  4.9820295552715E-02
   196  1.9500000000000E+00 -2.9858460262605E-02  3.9823602726809E-02
   197  1.9600000000000E+00 -2.3488036473872E-02  3.1317885383431E-02
   198  1.9700000000000E+00 -1.8133306604085E-02  2.4180376186386E-02
   199  1.9800000000000E+00 -1.3703964512774E-02  1.8283423237296E-02
   200  1.9900000000000E+00 -1.0106058292361E-02  1.3496625399445E-02
   201  2.0000000000000E+00 -7.2437598147810E-03  9.6888990142936E-03
   202  2.0100000000000E+00 -5.0208367478811E-03  6.7302502139746E-03
   203  2.0200000000000E+00 -3.3420306171594E-03  4.4934335951539E-03
   204  2.0300000000000E+00 -2.1167715038615E-03  2.8578016137400E-03
   205  2.0400000000000E+00 -1.2596507432255E-03  1.7101071334344E-03
   206  2.0500000000000E+00 -6.9137261348129E-04  9.4571160295048E-04
   207  2.0600000000000E+00 -3.4023651699565E-04  4.7025254221284E-04
   208  2.0700000000000E+00 -1.4331590987983E-04  2.0099967624263E-04
   209  2.0800000000000E+00 -4.7505993469929E-05  6.8053324168765E-05
   210  2.0900000000000E+00 -1.0396019221806E-05  1.5354745321984E-05
   211  2.1000000000000E+00 -8.9398206836423E-07  1.3567292893847E-06
   212  2.1100000000000E+00 -1.4917751559025E-08  1.5880863219298E-08
   213  2.1200000000000E+00 -4.2037950972371E-08  5.9534594802072E-08
   214  2.13  0. -0.
   215  2.14  0. -0.
   216  2.15  0. -0.
   217  2.16  0. -0.
   218  2.17  0.  0.
   219  2.18  0.  0.
   220  2.19  0.  0.
   221  2.20  0.  0.
   222  2.21  0.  0.
   223  2.22  0.  0.
   224  2.23  0.  0.
   225  2.24  0.  0.
   226  2.25  0.  0.
   227  2.26  0.  0.
   228  2.27  0.  0.
   229  2.28  0.  0.
   230  2.29  0.  0.
   231  2.30  0.  0.
   232  2.31  0.  0.
   233  2.32  0.  0.
   234  2.33  0.  0.
   235  2.34  0.  0.
   236  2.35  0.  0.
   237  2.36  0.  0.
   238  2.37  0.  0.
   239  2.38  0.  0.
   240  2.39  0.  0.
   241  2.40  0.  0.
   242  2.41  0.  0.
   243  2.42  0.  0.
   244  2.43  0.  0.
   245  2.44  0.  0.
   246  2.45  0.  0.
   247  2.46  0.  0.
   248  2.47  0.  0.
   249  2.48  0.  0.
   250  2.49  0.  0.
   251  2.50  0.  0.
   252  2.51  0.  0.
   253  2.52  0.  0.
   254  2.53  0.  0.
   255  2.54  0.  0.
   256  2.55  0.  0.
   257  2.56  0.  0.
   258  2.57  0.  0.
   259  2.58  0.  0.
   260  2.59  0.  0.
   261  2.60  0.  0.
   262  2.61  0.  0.
   263  2.62  0.  0.
   264  2.63  0.  0.
   265  2.64  0.  0.
   266  2.65  0.  0.
   267  2.66  0.  0.
   268  2.67  0.  0.
   269  2.68  0.  0.
   270  2.69  0.  0.
   271  2.70  0.  0.
   272  2.71  0.  0.
   273  2.72  0.  0.
   274  2.73  0.  0.
   275  2.74  0.  0.
   276  2.75  0.  0.
   277  2.76  0.  0.
   278  2.77  0.  0.
   279  2.78  0.  0.
   280  2.79  0.  0.
   281  2.80  0.  0.
   282  2.81  0.  0.
   283  2.82  0.  0.
   284  2.83  0.  0.
   285  2.84  0.  0.
   286  2.85  0.  0.
   287  2.86  0.  0.
   288  2.87  0.  0.
   289  2.88  0.  0.
   290  2.89  0.  0.
   291  2.90  0.  0.
   292  2.91  0.  0.
   293  2.92  0.  0.
   294  2.93  0.  0.
   295  2.94  0.  0.
   296  2.95  0.  0.
   297  2.96  0.  0.
   298  2.97  0.  0.
   299  2.98  0.  0.
   300  2.99  0.  0.
   301  3.00  0.  0.
   302  3.01  0.  0.
   303  3.02  0.  0.
   304  3.03  0.  0.
   305  3.04  0.  0.
   306  3.05  0.  0.
   307  3.06  0.  0.
   308  3.07  0.  0.
   309  3.08  0.  0.
   310  3.09  0.  0.
   311  3.10  0.  0.
   312  3.11  0.  0.
   313  3.12  0.  0.
   314  3.13  0.  0.
   315  3.14  0.  0.
   316  3.15  0.  0.
   317  3.16  0.  0.
   318  3.17  0.  0.
   319  3.18  0.  0.
   320  3.19  0.  0.
   321  3.20  0.  0.
   322  3.21  0.  0.
   323  3.22  0.  0.
   324  3.23  0.  0.
   325  3.24  0.  0.
   326  3.25  0.  0.
   327  3.26  0.  0.
   328  3.27  0.  0.
   329  3.28  0.  0.
   330  3.29  0.  0.
   331  3.30  0.  0.
   332  3.31  0.  0.
   333  3.32  0.  0.
   334  3.33  0.  0.
   335  3.34  0.  0.
   336  3.35  0.  0.
   337  3.36  0.  0.
   338  3.37  0.  0.
   339  3.38  0.  0.
   340  3.39  0.  0.
   341  3.40  0.  0.
   342  3.41  0.  0.
   343  3.42  0.  0.
   344  3.43  0.  0.
   345  3.44  0.  0.
   346  3.45  0.  0.
   347  3.46  0.  0.
   348  3.47  0.  0.
   349  3.48  0.  0.
   350  3.49  0.  0.
   351  3.50  0.  0.
   352  3.51  0.  0.
   353  3.52  0.  0.
   354  3.53  0.  0.
   355  3.54  0.  0.
   356  3.55  0.  0.
   357  3.56  0.  0.
   358  3.57  0.  0.
   359  3.58  0.  0.
   360  3.59  0.  0.
   361  3.60  0.  0.
   362  3.61  0.  0.
   363  3.62  0.  0.
   364  3.63  0.  0.
   365  3.64  0.  0.
   366  3.65  0.  0.
   367  3.66  0.  0.
   368  3.67  0.  0.
   369  3.68  0.  0.
   370  3.69  0.  0.
   371  3.70  0.  0.
   372  3.71  0.  0.
   373  3.72  0.  0.
   374  3.73  0.  0.
   375  3.74  0.  0.
   376  3.75  0.  0.
   377  3.76  0.  0.
   378  3.77  0.  0.
   379  3.78  0.  0.
   380  3.79  0.  0.
   381  3.80  0.  0.
   382  3.81  0.  0.
   383  3.82  0.  0.
   384  3.83  0.  0.
   385  3.84  0.  0.
   386  3.85  0.  0.
   387  3.86  0.  0.
   388  3.87  0.  0.
   389  3.88  0.  0.
   390  3.89  0.  0.
   391  3.90  0.  0.
   392  3.91  0.  0.
   393  3.92  0.  0.
   394  3.93  0.  0.
   395  3.94  0.  0.
   396  3.95  0.  0.
   397  3.96  0.  0.
   398  3.97  0.  0.
   399  3.98  0.  0.
   400  3.99  0.  0.
   401  4.00  0.  0.
   402  4.01  0.  0.
   403  4.02  0.  0.
   404  4.03  0.  0.
   405  4.04  0.  0.
   406  4.05  0.  0.
   407  4.06  0.  0.
   408  4.07  0.  0.
   409  4.08  0.  0.
   410  4.09  0.  0.
   411  4.10  0.  0.
   412  4.11  0.  0.
   413  4.12  0.  0.
   414  4.13  0.  0.
   415  4.14  0.  0.
   416  4.15  0.  0.
   417  4.16  0.  0.
   418  4.17  0.  0.
   419  4.18  0.  0.
   420  4.19  0.  0.
   421  4.20  0.  0.
   422  4.21  0.  0.
   423  4.22  0.  0.
   424  4.23  0.  0.
   425  4.24  0.  0.
   426  4.25  0.  0.
   427  4.26  0.  0.
   428  4.27  0.  0.
   429  4.28  0.  0.
   430  4.29  0.  0.
   431  4.30  0.  0.
   432  4.31  0.  0.
   433  4.32  0.  0.
   434  4.33  0.  0.
   435  4.34  0.  0.
   436  4.35  0.  0.
   437  4.36  0.  0.
   438  4.37  0.  0.
   439  4.38  0.  0.
   440  4.39  0.  0.
   441  4.40  0.  0.
   442  4.41  0.  0.
   443  4.42  0.  0.
   444  4.43  0.  0.
   445  4.44  0.  0.
   446  4.45  0.  0.
   447  4.46  0.  0.
   448  4.47  0.  0.
   449  4.48  0.  0.
   450  4.49  0.  0.
   451  4.50  0.  0.
   452  4.51  0.  0.
   453  4.52  0.  0.
   454  4.53  0.  0.
   455  4.54  0.  0.
   456  4.55  0.  0.
   457  4.56  0.  0.
   458  4.57  0.  0.
   459  4.58  0.  0.
   460  4.59  0.  0.
   461  4.60  0.  0.
   462  4.61  0.  0.
   463  4.62  0.  0.
   464  4.63  0.  0.
   465  4.64  0.  0.
   466  4.65  0.  0.
   467  4.66  0.  0.
   468  4.67  0.  0.
   469  4.68  0.  0.
   470  4.69  0.  0.
   471  4.70  0.  0.
   472  4.71  0.  0.
   473  4.72  0.  0.
   474  4.73  0.  0.
   475  4.74  0.  0.
   476  4.75  0.  0.
   477  4.76  0.  0.
   478  4.77  0.  0.
   479  4.78  0.  0.
   480  4.79  0.  0.
   481  4.80  0.  0.
   482  4.81  0.  0.
   483  4.82  0.  0.
   484  4.83  0.  0.
   485  4.84  0.  0.
   486  4.85  0.  0.
   487  4.86  0.  0.
   488  4.87  0.  0.
   489  4.88  0.  0.
   490  4.89  0.  0.
   491  4.90  0.  0.
   492  4.91  0.  0.
   493  4.92  0.  0.
   494  4.93  0.  0.
   495  4.94  0.  0.
   496  4.95  0.  0.
   497  4.96  0.  0.
   498  4.97  0.  0.
   499  4.98  0.  0.
   500  4.99  0.  0.
   501  5.00  0.  0.
   502  5.01  0.  0.
   503  5.02  0.  0.
   504  5.03  0.  0.
   505  5.04  0.  0.
   506  5.05  0.  0.
   507  5.06  0.  0.
   508  5.07  0.  0.
   509  5.08  0.  0.
   510  5.09  0.  0.
   511  5.10  0.  0.
   512  5.11  0.  0.
   513  5.12  0.  0.
   514  5.13  0.  0.
   515  5.14  0.  0.
   516  5.15  0.  0.
   517  5.16  0.  0.
   518  5.17  0.  0.
   519  5.18  0.  0.
   520  5.19  0.  0.
   521  5.20  0.  0.
   522  5.21  0.  0.
   523  5.22  0.  0.
   524  5.23  0.  0.
   525  5.24  0.  0.
   526  5.25  0.  0.
   527  5.26  0.  0.
   528  5.27  0.  0.
   529  5.28  0.  0.
   530  5.29  0.  0.
   531  5.30  0.  0.
   532  5.31  0.  0.
   533  5.32  0.  0.
   534  5.33  0.  0.
   535  5.34  0.  0.
   536  5.35  0.  0.
   537  5.36  0.  0.
   538  5.37  0.  0.
   539  5.38  0.  0.
   540  5.39  0.  0.
   541  5.40  0.  0.
   542  5.41  0.  0.
   543  5.42  0.  0.
   544  5.43  0.  0.
   545  5.44  0.  0.
   546  5.45  0.  0.
   547  5.46  0.  0.
   548  5.47  0.  0.
   549  5.48  0.  0.
   550  5.49  0.  0.
   551  5.50  0.  0.
   552  5.51  0.  0.
   553  5.52  0.  0.
   554  5.53  0.  0.
   555  5.54  0.  0.
   556  5.55  0.  0.
   557  5.56  0.  0.
   558  5.57  0.  0.
   559  5.58  0.  0.
   560  5.59  0.  0.
   561  5.60  0.  0.
   562  5.61  0.  0.
   563  5.62  0.  0.
   564  5.63  0.  0.
   565  5.64  0.  0.
   566  5.65  0.  0.
   567  5.66  0.  0.
   568  5.67  0.  0.
   569  5.68  0.  0.
   570  5.69  0.  0.
   571  5.70  0.  0.
   572  5.71  0.  0.
   573  5.72  0.  0.
   574  5.73  0.  0.
   575  5.74  0.  0.
   576  5.75  0.  0.
   577  5.76  0.  0.
   578  5.77  0.  0.
   579  5.78  0.  0.
   580  5.79  0.  0.
   581  5.80  0.  0.
   582  5.81  0.  0.
   583  5.82  0.  0.
   584  5.83  0.  0.
   585  5.84  0.  0.
   586  5.85  0.  0.
   587  5.86  0.  0.
   588  5.87  0.  0.
   589  5.88  0.  0.
   590  5.89  0.  0.
   591  5.90  0.  0.
   592  5.91  0.  0.
   593  5.92  0.  0.
   594  5.93  0.  0.
   595  5.94  0.  0.
   596  5.95  0.  0.
   597  5.96  0.  0.
   598  5.97  0.  0.
   599  5.98  0.  0.
   600  5.99  0.  0.
   1                         5.1785522413730E+00  8.4432140795268E-01
     1  0.0000000000000E+00 -8.0820893033628E-10  1.2871685939331E-09
     2  1.0000000000000E-02 -2.3952556213680E-04  7.7718630391810E-04
     3  2.0000000000000E-02 -9.5278116940848E-04  3.0998760427710E-03
     4  3.0000000000000E-02 -2.1238542792311E-03  6.9415429326773E-03
     5  4.0000000000000E-02 -3.7263925383403E-03  1.2258246595692E-02
     6  5.0000000000000E-02 -5.7238551017935E-03  1.8989035301713E-02
     7  6.0000000000000E-02 -8.0698614769760E-03  2.7056505025327E-02
     8  7.0000000000000E-02 -1.0708634919117E-02  3.6367510082111E-02
     9  8.0000000000000E-02 -1.3575536596611E-02  4.6814019321730E-02
    10  9.0000000000000E-02 -1.6597685966764E-02  5.8274110616645E-02
    11  1.0000000000000E-01 -1.9694662061834E-02  7.0613095205459E-02
    12  1.1000000000000E-01 -2.2779279687351E-02  8.3684762338395E-02
    13  1.2000000000000E-01 -2.5758433885466E-02  9.7332733638298E-02
    14  1.3000000000000E-01 -2.8534005420745E-02  1.1139191564227E-01
    15  1.4000000000000E-01 -3.1003819509393E-02  1.2569003813444E-01
    16  1.5000000000000E-01 -3.3062649539686E-02  1.4004926512650E-01
    17  1.6000000000000E-01 -3.4603257125518E-02  1.5428786469584E-01
    18  1.7000000000000E-01 -3.5517459499776E-02  1.6822192335674E-01
    19  1.8000000000000E-01 -3.5697214992667E-02  1.8166709022312E-01
    20  1.9000000000000E-01 -3.5035717154477E-02  1.9444033592471E-01
    21  2.0000000000000E-01 -3.3428487974208E-02  2.0636171106585E-01
    22  2.1000000000000E-01 -3.0774460616319E-02  2.1725608896866E-01
    23  2.2000000000000E-01 -2.6977042147808E-02  2.2695487752069E-01
    24  2.3000000000000E-01 -2.1945146856999E-02  2.3529768515175E-01
    25  2.4000000000000E-01 -1.5594190972943E-02  2.4213392629355E-01
    26  2.5000000000000E-01 -7.8470398788129E-03  2.4732435212733E-01
    27  2.6000000000000E-01  1.3651007278408E-03  2.5074249299526E-01
    28  2.7000000000000E-01  1.2101857843265E-02  2.5227599953711E-01
    29  2.8000000000000E-01  2.4412935948403E-02  2.5182787040932E-01
    30  2.9000000000000E-01  3.8337440630386E-02  2.4931755534305E-01
    31  3.0000000000000E-01  5.3903287454991E-02  2.4468192329466E-01
    32  3.1000000000000E-01  7.1126701826655E-02  2.3787608652763E-01
    33  3.2000000000000E-01  9.0011814837845E-02  2.2887407263228E-01
    34  3.3000000000000E-01  1.1055035932961E-01  2.1766933772802E-01
    35  3.4000000000000E-01  1.3272146956591E-01  2.0427511539394E-01
    36  3.5000000000000E-01  1.5649158707258E-01  1.8872459722581E-01
    37  3.6000000000000E-01  1.8181447431403E-01  1.7107094231134E-01
    38  3.7000000000000E-01  2.0863133698430E-01  1.5138711433872E-01
    39  3.8000000000000E-01  2.3687105478076E-01  1.2976554649495E-01
    40  3.9000000000000E-01  2.6645051961640E-01  1.0631763575906E-01
    41  4.0000000000000E-01  2.9727507931735E-01  8.1173069637865E-02
    42  4.1000000000000E-01  3.2923908395331E-01  5.4478989818198E-02
    43  4.2000000000000E-01  3.6222653106827E-01  2.6398998606350E-02
    44  4.3000000000000E-01  3.9611180522344E-01 -2.8879846179345E-03
    45  4.4000000000000E-01  4.3076050644146E-01 -3.3189008401027E-02
    46  4.5000000000000E-01  4.6603036135814E-01 -6.4298505895083E-02
    47  4.6000000000000E-01  5.0177221015057E-01 -9.5999832276314E-02
    48  4.7000000000000E-01  5.3783106162649E-01 -1.2806691087608E-01
    49  4.8000000000000E-01  5.7404720823344E-01 -1.6026597500787E-01
    50  4.9000000000000E-01  6.1025739218514E-01 -1.9235739158393E-01
    51  5.0000000000000E-01  6.4629601340938E-01 -2.2409755183631E-01
    52  5.1000000000000E-01  6.8199636960346E-01 -2.5524081379461E-01
    53  5.2000000000000E-01  7.1719191834175E-01 -2.8554148063445E-01
    54  5.3000000000000E-01  7.5171755092001E-01 -3.1475579860038E-01
    55  5.4000000000000E-01  7.8541086744512E-01 -3.4264395793006E-01
    56  5.5000000000000E-01  8.1811344258824E-01 -3.6897208006588E-01
    57  5.6000000000000E-01  8.4967207141650E-01 -3.9351417443754E-01
    58  5.7000000000000E-01  8.7993998480316E-01 -4.1605404823629E-01
    59  5.8000000000000E-01  9.0877802408869E-01 -4.3638715287724E-01
    60  5.9000000000000E-01  9.3605576492543E-01 -4.5432235126066E-01
    61  6.0000000000000E-01  9.6165258058329E-01 -4.6968359049197E-01
    62  6.1000000000000E-01  9.8545863542329E-01 -4.8231146540204E-01
    63  6.2000000000000E-01  1.0073757997545E+00 -4.9206465901732E-01
    64  6.3000000000000E-01  1.0273184778760E+00 -4.9882124705922E-01
    65  6.4000000000000E-01  1.0452143417652E+00 -5.0247985459633E-01
    66  6.5000000000000E-01  1.0610049635968E+00 -5.0296065412368E-01
    67  6.6000000000000E-01  1.0746463410702E+00 -5.0020619559176E-01
    68  6.7000000000000E-01  1.0861093103617E+00 -4.9418206024412E-01
    69  6.8000000000000E-01  1.0953798424159E+00 -4.8487733153689E-01
    70  6.9000000000000E-01  1.1024592192245E+00 -4.7230487789283E-01
    71  7.0000000000000E-01  1.1073640877121E+00 -4.5650144357742E-01
    72  7.1000000000000E-01  1.1101263898465E+00 -4.3752754556046E-01
    73  7.2000000000000E-01  1.1107931686074E+00 -4.1546717583143E-01
    74  7.3000000000000E-01  1.1094262504754E+00 -3.9042731025772E-01
    75  7.4000000000000E-01  1.1061018061311E+00 -3.6253722669738E-01
    76  7.5000000000000E-01  1.1009097920783E+00 -3.3194763668893E-01
    77  7.6000000000000E-01  1.0939532769113E+00 -2.9882963662704E-01
    78  7.7000000000000E-01  1.0853476569312E+00 -2.6337348587952E-01
    79  7.8000000000000E-01  1.0752197667660E+00 -2.2578722079651E-01
    80  7.9000000000000E-01  1.0637068915626E+00 -1.8629511499217E-01
    81  8.0000000000000E-01  1.0509556881789E+00 -1.4513599763196E-01
    82  8.1000000000000E-01  1.0371210236131E+00 -1.0256144272074E-01
    83  8.2000000000000E-01  1.0223647396492E+00 -5.8833843548821E-02
    84  8.3000000000000E-01  1.0068543533729E+00 -1.4224387503343E-02
    85  8.4000000000000E-01  9.9076170380783E-01  3.0989052619007E-02
    86  8.5000000000000E-01  9.7426155544020E-01  7.6524093862506E-02
    87  8.6000000000000E-01  9.5753016982733E-01  1.2209606732950E-01
    88  8.7000000000000E-01  9.4074385682547E-01  1.6742027325013E-01
    89  8.8000000000000E-01  9.2407751721609E-01  2.1221424842287E-01
    90  8.9000000000000E-01  9.0770318865721E-01  2.5620002733018E-01
    91  9.0000000000000E-01  8.9178860693469E-01  2.9910637817603E-01
    92  9.1000000000000E-01  8.7649579443677E-01  3.4067099519252E-01