Mo    ONCVPSP-4.0.1  r_core=   1.45401   1.45401   1.35329
     42.0000     14.0000      231019    zatom,zion,pspd
     8       2   2     4   600     0    pspcod,pspxc,lmax,lloc,mmax,r2well
  5.99000000  3.00000000  0.00000000    rchrg fchrg qchrg
     2     2     2     0     0    nproj
     1     1           extension_switch
   0                         1.3462386800803E+01  1.2595597396364E+00
     1  0.0000000000000E+00 -1.6613471709448E-10  8.3503046144351E-10
     2  1.0000000000000E-02  5.7420941007884E-02 -2.7828858116715E-02
     3  2.0000000000000E-02  1.1476635172653E-01 -5.5540265468338E-02
     4  3.0000000000000E-02  1.7196082244183E-01 -8.3017585066322E-02
     5  4.0000000000000E-02  2.2892918269486E-01 -1.1014579456015E-01
     6  5.0000000000000E-02  2.8559661621506E-01 -1.3681226148550E-01
     7  6.0000000000000E-02  3.4188877034094E-01 -1.6290748063099E-01
     8  7.0000000000000E-02  3.9773185828937E-01 -1.8832576189291E-01
     9  8.0000000000000E-02  4.5305275280110E-01 -2.1296585782207E-01
    10  9.0000000000000E-02  5.0777906989209E-01 -2.3673152108685E-01
    11  1.0000000000000E-01  5.6183924167520E-01 -2.5953198326589E-01
    12  1.1000000000000E-01  6.1516257748038E-01 -2.8128234772517E-01
    13  1.2000000000000E-01  6.6767931278917E-01 -3.0190389080646E-01
    14  1.3000000000000E-01  7.1932064580551E-01 -3.2132426713539E-01
    15  1.4000000000000E-01  7.7001876180555E-01 -3.3947761652339E-01
    16  1.5000000000000E-01  8.1970684573627E-01 -3.5630457166197E-01
    17  1.6000000000000E-01  8.6831908386328E-01 -3.7175216756497E-01
    18  1.7000000000000E-01  9.1579065559267E-01 -3.8577365547475E-01
    19  1.8000000000000E-01  9.6205771690735E-01 -3.9832822568629E-01
    20  1.9000000000000E-01  1.0070573771561E+00 -4.0938064542832E-01
    21  2.0000000000000E-01  1.0507276712092E+00 -4.1890081954794E-01
    22  2.1000000000000E-01  1.0930075292428E+00 -4.2686328324539E-01
    23  2.2000000000000E-01  1.1338367466249E+00 -4.3324663747615E-01
    24  2.3000000000000E-01  1.1731559565541E+00 -4.3803293885112E-01
    25  2.4000000000000E-01  1.2109066082303E+00 -4.4120705690378E-01
    26  2.5000000000000E-01  1.2470309534224E+00 -4.4275601243355E-01
    27  2.6000000000000E-01  1.2814720443299E+00 -4.4266831126181E-01
    28  2.7000000000000E-01  1.3141737456170E+00 -4.4093328813607E-01
    29  2.8000000000000E-01  1.3450807634207E+00 -4.3754047567901E-01
    30  2.9000000000000E-01  1.3741386940060E+00 -4.3247901319287E-01
    31  3.0000000000000E-01  1.4012940945524E+00 -4.2573710979477E-01
    32  3.1000000000000E-01  1.4264945783142E+00 -4.1730157577206E-01
    33  3.2000000000000E-01  1.4496889361012E+00 -4.0715743521445E-01
    34  3.3000000000000E-01  1.4708272856802E+00 -3.9528763190692E-01
    35  3.4000000000000E-01  1.4898612503000E+00 -3.8167283916657E-01
    36  3.5000000000000E-01  1.5067441671084E+00 -3.6629138279178E-01
    37  3.6000000000000E-01  1.5214313257505E+00 -3.4911928458179E-01
    38  3.7000000000000E-01  1.5338802369303E+00 -3.3013043200070E-01
    39  3.8000000000000E-01  1.5440509301823E+00 -3.0929687752597E-01
    40  3.9000000000000E-01  1.5519062795477E+00 -2.8658926906729E-01
    41  4.0000000000000E-01  1.5574123552861E+00 -2.6197741059446E-01
    42  4.1000000000000E-01  1.5605387991872E+00 -2.3543094980771E-01
    43  4.2000000000000E-01  1.5612592204865E+00 -2.0692018735203E-01
    44  4.3000000000000E-01  1.5595516088454E+00 -1.7641699975600E-01
    45  4.4000000000000E-01  1.5553987603323E+00 -1.4389586599917E-01
    46  4.5000000000000E-01  1.5487887118547E+00 -1.0933498541756E-01
    47  4.6000000000000E-01  1.5397151790423E+00 -7.2717472580057E-02
    48  4.7000000000000E-01  1.5281779921843E+00 -3.4032612843852E-02
    49  4.8000000000000E-01  1.5141835244824E+00  6.7228394417754E-03
    50  4.9000000000000E-01  1.4977451066065E+00  4.9543339633856E-02
    51  5.0000000000000E-01  1.4788834213331E+00  9.4413229220704E-02
    52  5.1000000000000E-01  1.4576268719240E+00  1.4130543179684E-01
    53  5.2000000000000E-01  1.4340119178536E+00  1.9018019111407E-01
    54  5.3000000000000E-01  1.4080833715386E+00  2.4098387412077E-01
    55  5.4000000000000E-01  1.3798946498549E+00  2.9364786195609E-01
    56  5.5000000000000E-01  1.3495079744464E+00  3.4808755157807E-01
    57  5.6000000000000E-01  1.3169945151474E+00  4.0420149006865E-01
    58  5.7000000000000E-01  1.2824344712421E+00  4.6187066267316E-01
    59  5.8000000000000E-01  1.2459170857764E+00  5.2095795430164E-01
    60  5.9000000000000E-01  1.2075405887174E+00  5.8130780255298E-01
    61  6.0000000000000E-01  1.1674120654088E+00  6.4274605833492E-01
    62  6.1000000000000E-01  1.1256472475042E+00  7.0508006786413E-01
    63  6.2000000000000E-01  1.0823702243554E+00  7.6809898726283E-01
    64  6.3000000000000E-01  1.0377130736880E+00  8.3157433815447E-01
    65  6.4000000000000E-01  9.9181541130005E-01  8.9526080963098E-01
    66  6.5000000000000E-01  9.4482386045883E-01  9.5889730875761E-01
    67  6.6000000000000E-01  8.9689144263895E-01  1.0222082584398E+00
    68  6.7000000000000E-01  8.4817689222410E-01  1.0849051380418E+00
    69  6.8000000000000E-01  7.9884389877790E-01  1.1466882586688E+00
    70  6.9000000000000E-01  7.4906028145893E-01  1.2072487615479E+00
    71  7.0000000000000E-01  6.9899710110031E-01  1.2662708245199E+00
    72  7.1000000000000E-01  6.4882771638092E-01  1.3234340583371E+00
    73  7.2000000000000E-01  5.9872679137078E-01  1.3784160712909E+00
    74  7.3000000000000E-01  5.4886926252385E-01  1.4308951777296E+00
    75  7.4000000000000E-01  4.9942927390656E-01  1.4805532233090E+00
    76  7.5000000000000E-01  4.5057909007628E-01  1.5270784973937E+00
    77  7.6000000000000E-01  4.0248799655273E-01  1.5701687009338E+00
    78  7.7000000000000E-01  3.5532119824497E-01  1.6095339364249E+00
    79  7.8000000000000E-01  3.0923872650079E-01  1.6448996852422E+00
    80  7.9000000000000E-01  2.6439436562661E-01  1.6760097367565E+00
    81  8.0000000000000E-01  2.2093460977853E-01  1.7026290332097E+00
    82  8.1000000000000E-01  1.7899766104699E-01  1.7245463943673E+00
    83  8.2000000000000E-01  1.3871247934479E-01  1.7415770864891E+00
    84  8.3000000000000E-01  1.0019789436231E-01  1.7535652011565E+00
    85  8.4000000000000E-01  6.3561789376373E-02  1.7603858109822E+00
    86  8.5000000000000E-01  2.8900366092942E-02  1.7619468711729E+00
    87  8.6000000000000E-01 -3.7025010245783E-03  1.7581908383190E+00
    88  8.7000000000000E-01 -3.4175813333563E-02  1.7490959806067E+00
    89  8.8000000000000E-01 -6.2461892839374E-02  1.7346773568699E+00
    90  8.9000000000000E-01 -8.8516717660114E-02  1.7149874454736E+00
    91  9.0000000000000E-01 -1.1231014364686E-01  1.6901164079101E+00
    92  9.1000000000000E-01 -1.3382600887700E-01  1.6601919761434E+00
    93  9.2000000000000E-01 -1.5306211899297E-01  1.6253789571053E+00
    94  9.3000000000000E-01 -1.7003011265325E-01  1.5858783522652E+00
    95  9.4000000000000E-01 -1.8475520767950E-01  1.5419260948122E+00
    96  9.5000000000000E-01 -1.9727582980729E-01  1.4937914116372E+00
    97  9.6000000000000E-01 -2.0764312725922E-01  1.4417748219155E+00
    98  9.7000000000000E-01 -2.1592037564206E-01  1.3862057886102E+00
    99  9.8000000000000E-01 -2.2218227890539E-01  1.3274400435752E+00
   100  9.9000000000000E-01 -2.2651417327177E-01  1.2658566110684E+00
   101  1.0000000000000E+00 -2.2901114214173E-01  1.2018545583394E+00
   102  1.0100000000000E+00 -2.2977705097363E-01  1.1358495054571E+00
   103  1.0200000000000E+00 -2.2892351202736E-01  1.0682699296650E+00
   104  1.0300000000000E+00 -2.2656878962625E-01  9.9955330221399E-01
   105  1.0400000000000E+00 -2.2283665722319E-01  9.3014209781251E-01
   106  1.0500000000000E+00 -2.1785521804614E-01  8.6047971849519E-01
   107  1.0600000000000E+00 -2.1175570143529E-01  7.9100637482387E-01
   108  1.0700000000000E+00 -2.0467124716489E-01  7.2215496787588E-01
   109  1.0800000000000E+00 -1.9673569006333E-01  6.5434701542901E-01
   110  1.0900000000000E+00 -1.8808235710377E-01  5.8798866511756E-01
   111  1.1000000000000E+00 -1.7884288883565E-01  5.2346683610979E-01
   112  1.1100000000000E+00 -1.6914609656812E-01  4.6114552905762E-01
   113  1.1200000000000E+00 -1.5911686610525E-01  4.0136234171605E-01
   114  1.1300000000000E+00 -1.4887511807595E-01  3.4442522474224E-01
   115  1.1400000000000E+00 -1.3853483401279E-01  2.9060950881687E-01
   116  1.1500000000000E+00 -1.2820315631765E-01  2.4015523039758E-01
   117  1.1600000000000E+00 -1.1797956913162E-01  1.9326477920432E-01
   118  1.1700000000000E+00 -1.0795516590586E-01  1.5010088596293E-01
   119  1.1800000000000E+00 -9.8212008176547E-02  1.1078496409856E-01
   120  1.1900000000000E+00 -8.8822578689706E-02  7.5395814010587E-02
   121  1.2000000000000E+00 -7.9849330622692E-02  4.3968693354527E-02
   122  1.2100000000000E+00 -7.1344333232375E-02  1.6494751497705E-02
   123  1.2200000000000E+00 -6.3349012830835E-02 -7.0791789796866E-03
   124  1.2300000000000E+00 -5.5893986580152E-02 -2.6850446092308E-02
   125  1.2400000000000E+00 -4.8998984648255E-02 -4.2960118116586E-02
   126  1.2500000000000E+00 -4.2672862320874E-02 -5.5592183976534E-02
   127  1.2600000000000E+00 -3.6913725280154E-02 -6.4972273639424E-02
   128  1.2700000000000E+00 -3.1710413648139E-02 -7.1359038608853E-02
   129  1.2800000000000E+00 -2.7044984386611E-02 -7.5030728166261E-02
   130  1.2900000000000E+00 -2.2893875065765E-02 -7.6279761890330E-02
   131  1.3000000000000E+00 -1.9228810087009E-02 -7.5408904558487E-02
   132  1.3100000000000E+00 -1.6017746015788E-02 -7.2727317867257E-02
   133  1.3200000000000E+00 -1.3225839854523E-02 -6.8546555820439E-02
   134  1.3300000000000E+00 -1.0816428046492E-02 -6.3176547944140E-02
   135  1.3400000000000E+00 -8.7520031528098E-03 -5.6921619098568E-02
   136  1.3500000000000E+00 -6.9951753227686E-03 -5.0076593749260E-02
   137  1.3600000000000E+00 -5.5096038449425E-03 -4.2923037284907E-02
   138  1.3700000000000E+00 -4.2609030094921E-03 -3.5725634578619E-02
   139  1.3800000000000E+00 -3.2174563543865E-03 -2.8728907632894E-02
   140  1.3900000000000E+00 -2.3560020971155E-03 -2.2140938754023E-02
   141  1.4000000000000E+00 -1.6578308313786E-03 -1.6142225953977E-02
   142  1.4100000000000E+00 -1.0990856350151E-03 -1.0912050055970E-02
   143  1.4200000000000E+00 -6.6229941785076E-04 -6.5970929239371E-03
   144  1.4300000000000E+00 -3.3663282118047E-04 -3.3107567187940E-03
   145  1.4400000000000E+00 -1.1742601968775E-04 -1.1231949127658E-03
   146  1.4500000000000E+00 -1.2294430611400E-05 -1.1237104486346E-04
   147  1.4600000000000E+00  1.5636928147437E-06  1.4003039012904E-05
   148  1.4700000000000E+00 -3.1849901162745E-07 -2.9156757390726E-06
   149  1.48  0.  0.
   150  1.49  0.  0.
   151  1.50  0.  0.
   152  1.51  0.  0.
   153  1.52  0.  0.
   154  1.53  0.  0.
   155  1.54  0.  0.
   156  1.55  0.  0.
   157  1.56  0.  0.
   158  1.57  0.  0.
   159  1.58  0.  0.
   160  1.59  0.  0.
   161  1.60  0.  0.
   162  1.61  0.  0.
   163  1.62  0.  0.
   164  1.63  0.  0.
   165  1.64  0.  0.
   166  1.65  0.  0.
   167  1.66  0.  0.
   168  1.67  0.  0.
   169  1.68  0.  0.
   170  1.69  0.  0.
   171  1.70  0.  0.
   172  1.71  0.  0.
   173  1.72  0.  0.
   174  1.73  0.  0.
   175  1.74  0.  0.
   176  1.75  0.  0.
   177  1.76  0.  0.
   178  1.77  0.  0.
   179  1.78  0.  0.
   180  1.79  0.  0.
   181  1.80  0.  0.
   182  1.81  0.  0.
   183  1.82  0.  0.
   184  1.83  0.  0.
   185  1.84  0.  0.
   186  1.85  0.  0.
   187  1.86  0.  0.
   188  1.87  0.  0.
   189  1.88  0.  0.
   190  1.89  0.  0.
   191  1.90  0.  0.
   192  1.91  0.  0.
   193  1.92  0.  0.
   194  1.93  0.  0.
   195  1.94  0.  0.
   196  1.95  0.  0.
   197  1.96  0.  0.
   198  1.97  0.  0.
   199  1.98  0.  0.
   200  1.99  0.  0.
   201  2.00  0.  0.
   202  2.01  0.  0.
   203  2.02  0.  0.
   204  2.03  0.  0.
   205  2.04  0.  0.
   206  2.05  0.  0.
   207  2.06  0.  0.
   208  2.07  0.  0.
   209  2.08  0.  0.
   210  2.09  0.  0.
   211  2.10  0.  0.
   212  2.11  0.  0.
   213  2.12  0.  0.
   214  2.13  0.  0.
   215  2.14  0.  0.
   216  2.15  0.  0.
   217  2.16  0.  0.
   218  2.17  0.  0.
   219  2.18  0.  0.
   220  2.19  0.  0.
   221  2.20  0.  0.
   222  2.21  0.  0.
   223  2.22  0.  0.
   224  2.23  0.  0.
   225  2.24  0.  0.
   226  2.25  0.  0.
   227  2.26  0.  0.
   228  2.27  0.  0.
   229  2.28  0.  0.
   230  2.29  0.  0.
   231  2.30  0.  0.
   232  2.31  0.  0.
   233  2.32  0.  0.
   234  2.33  0.  0.
   235  2.34  0.  0.
   236  2.35  0.  0.
   237  2.36  0.  0.
   238  2.37  0.  0.
   239  2.38  0.  0.
   240  2.39  0.  0.
   241  2.40  0.  0.
   242  2.41  0.  0.
   243  2.42  0.  0.
   244  2.43  0.  0.
   245  2.44  0.  0.
   246  2.45  0.  0.
   247  2.46  0.  0.
   248  2.47  0.  0.
   249  2.48  0.  0.
   250  2.49  0.  0.
   251  2.50  0.  0.
   252  2.51  0.  0.
   253  2.52  0.  0.
   254  2.53  0.  0.
   255  2.54  0.  0.
   256  2.55  0.  0.
   257  2.56  0.  0.
   258  2.57  0.  0.
   259  2.58  0.  0.
   260  2.59  0.  0.
   261  2.60  0.  0.
   262  2.61  0.  0.
   263  2.62  0.  0.
   264  2.63  0.  0.
   265  2.64  0.  0.
   266  2.65  0.  0.
   267  2.66  0.  0.
   268  2.67  0.  0.
   269  2.68  0.  0.
   270  2.69  0.  0.
   271  2.70  0.  0.
   272  2.71  0.  0.
   273  2.72  0.  0.
   274  2.73  0.  0.
   275  2.74  0.  0.
   276  2.75  0.  0.
   277  2.76  0.  0.
   278  2.77  0.  0.
   279  2.78  0.  0.
   280  2.79  0.  0.
   281  2.80  0.  0.
   282  2.81  0.  0.
   283  2.82  0.  0.
   284  2.83  0.  0.
   285  2.84  0.  0.
   286  2.85  0.  0.
   287  2.86  0.  0.
   288  2.87  0.  0.
   289  2.88  0.  0.
   290  2.89  0.  0.
   291  2.90  0.  0.
   292  2.91  0.  0.
   293  2.92  0.  0.
   294  2.93  0.  0.
   295  2.94  0.  0.
   296  2.95  0.  0.
   297  2.96  0.  0.
   298  2.97  0.  0.
   299  2.98  0.  0.
   300  2.99  0.  0.
   301  3.00  0.  0.
   302  3.01  0.  0.
   303  3.02  0.  0.
   304  3.03  0.  0.
   305  3.04  0.  0.
   306  3.05  0.  0.
   307  3.06  0.  0.
   308  3.07  0.  0.
   309  3.08  0.  0.
   310  3.09  0.  0.
   311  3.10  0.  0.
   312  3.11  0.  0.
   313  3.12  0.  0.
   314  3.13  0.  0.
   315  3.14  0.  0.
   316  3.15  0.  0.
   317  3.16  0.  0.
   318  3.17  0.  0.
   319  3.18  0.  0.
   320  3.19  0.  0.
   321  3.20  0.  0.
   322  3.21  0.  0.
   323  3.22  0.  0.
   324  3.23  0.  0.
   325  3.24  0.  0.
   326  3.25  0.  0.
   327  3.26  0.  0.
   328  3.27  0.  0.
   329  3.28  0.  0.
   330  3.29  0.  0.
   331  3.30  0.  0.
   332  3.31  0.  0.
   333  3.32  0.  0.
   334  3.33  0.  0.
   335  3.34  0.  0.
   336  3.35  0.  0.
   337  3.36  0.  0.
   338  3.37  0.  0.
   339  3.38  0.  0.
   340  3.39  0.  0.
   341  3.40  0.  0.
   342  3.41  0.  0.
   343  3.42  0.  0.
   344  3.43  0.  0.
   345  3.44  0.  0.
   346  3.45  0.  0.
   347  3.46  0.  0.
   348  3.47  0.  0.
   349  3.48  0.  0.
   350  3.49  0.  0.
   351  3.50  0.  0.
   352  3.51  0.  0.
   353  3.52  0.  0.
   354  3.53  0.  0.
   355  3.54  0.  0.
   356  3.55  0.  0.
   357  3.56  0.  0.
   358  3.57  0.  0.
   359  3.58  0.  0.
   360  3.59  0.  0.
   361  3.60  0.  0.
   362  3.61  0.  0.
   363  3.62  0.  0.
   364  3.63  0.  0.
   365  3.64  0.  0.
   366  3.65  0.  0.
   367  3.66  0.  0.
   368  3.67  0.  0.
   369  3.68  0.  0.
   370  3.69  0.  0.
   371  3.70  0.  0.
   372  3.71  0.  0.
   373  3.72  0.  0.
   374  3.73  0.  0.
   375  3.74  0.  0.
   376  3.75  0.  0.
   377  3.76  0.  0.
   378  3.77  0.  0.
   379  3.78  0.  0.
   380  3.79  0.  0.
   381  3.80  0.  0.
   382  3.81  0.  0.
   383  3.82  0.  0.
   384  3.83  0.  0.
   385  3.84  0.  0.
   386  3.85  0.  0.
   387  3.86  0.  0.
   388  3.87  0.  0.
   389  3.88  0.  0.
   390  3.89  0.  0.
   391  3.90  0.  0.
   392  3.91  0.  0.
   393  3.92  0.  0.
   394  3.93  0.  0.
   395  3.94  0.  0.
   396  3.95  0.  0.
   397  3.96  0.  0.
   398  3.97  0.  0.
   399  3.98  0.  0.
   400  3.99  0.  0.
   401  4.00  0.  0.
   402  4.01  0.  0.
   403  4.02  0.  0.
   404  4.03  0.  0.
   405  4.04  0.  0.
   406  4.05  0.  0.
   407  4.06  0.  0.
   408  4.07  0.  0.
   409  4.08  0.  0.
   410  4.09  0.  0.
   411  4.10  0.  0.
   412  4.11  0.  0.
   413  4.12  0.  0.
   414  4.13  0.  0.
   415  4.14  0.  0.
   416  4.15  0.  0.
   417  4.16  0.  0.
   418  4.17  0.  0.
   419  4.18  0.  0.
   420  4.19  0.  0.
   421  4.20  0.  0.
   422  4.21  0.  0.
   423  4.22  0.  0.
   424  4.23  0.  0.
   425  4.24  0.  0.
   426  4.25  0.  0.
   427  4.26  0.  0.
   428  4.27  0.  0.
   429  4.28  0.  0.
   430  4.29  0.  0.
   431  4.30  0.  0.
   432  4.31  0.  0.
   433  4.32  0.  0.
   434  4.33  0.  0.
   435  4.34  0.  0.
   436  4.35  0.  0.
   437  4.36  0.  0.
   438  4.37  0.  0.
   439  4.38  0.  0.
   440  4.39  0.  0.
   441  4.40  0.  0.
   442  4.41  0.  0.
   443  4.42  0.  0.
   444  4.43  0.  0.
   445  4.44  0.  0.
   446  4.45  0.  0.
   447  4.46  0.  0.
   448  4.47  0.  0.
   449  4.48  0.  0.
   450  4.49  0.  0.
   451  4.50  0.  0.
   452  4.51  0.  0.
   453  4.52  0.  0.
   454  4.53  0.  0.
   455  4.54  0.  0.
   456  4.55  0.  0.
   457  4.56  0.  0.
   458  4.57  0.  0.
   459  4.58  0.  0.
   460  4.59  0.  0.
   461  4.60  0.  0.
   462  4.61  0.  0.
   463  4.62  0.  0.
   464  4.63  0.  0.
   465  4.64  0.  0.
   466  4.65  0.  0.
   467  4.66  0.  0.
   468  4.67  0.  0.
   469  4.68  0.  0.
   470  4.69  0.  0.
   471  4.70  0.  0.
   472  4.71  0.  0.
   473  4.72  0.  0.
   474  4.73  0.  0.
   475  4.74  0.  0.
   476  4.75  0.  0.
   477  4.76  0.  0.
   478  4.77  0.  0.
   479  4.78  0.  0.
   480  4.79  0.  0.
   481  4.80  0.  0.
   482  4.81  0.  0.
   483  4.82  0.  0.
   484  4.83  0.  0.
   485  4.84  0.  0.
   486  4.85  0.  0.
   487  4.86  0.  0.
   488  4.87  0.  0.
   489  4.88  0.  0.
   490  4.89  0.  0.
   491  4.90  0.  0.
   492  4.91  0.  0.
   493  4.92  0.  0.
   494  4.93  0.  0.
   495  4.94  0.  0.
   496  4.95  0.  0.
   497  4.96  0.  0.
   498  4.97  0.  0.
   499  4.98  0.  0.
   500  4.99  0.  0.
   501  5.00  0.  0.
   502  5.01  0.  0.
   503  5.02  0.  0.
   504  5.03  0.  0.
   505  5.04  0.  0.
   506  5.05  0.  0.
   507  5.06  0.  0.
   508  5.07  0.  0.
   509  5.08  0.  0.
   510  5.09  0.  0.
   511  5.10  0.  0.
   512  5.11  0.  0.
   513  5.12  0.  0.
   514  5.13  0.  0.
   515  5.14  0.  0.
   516  5.15  0.  0.
   517  5.16  0.  0.
   518  5.17  0.  0.
   519  5.18  0.  0.
   520  5.19  0.  0.
   521  5.20  0.  0.
   522  5.21  0.  0.
   523  5.22  0.  0.
   524  5.23  0.  0.
   525  5.24  0.  0.
   526  5.25  0.  0.
   527  5.26  0.  0.
   528  5.27  0.  0.
   529  5.28  0.  0.
   530  5.29  0.  0.
   531  5.30  0.  0.
   532  5.31  0.  0.
   533  5.32  0.  0.
   534  5.33  0.  0.
   535  5.34  0.  0.
   536  5.35  0.  0.
   537  5.36  0.  0.
   538  5.37  0.  0.
   539  5.38  0.  0.
   540  5.39  0.  0.
   541  5.40  0.  0.
   542  5.41  0.  0.
   543  5.42  0.  0.
   544  5.43  0.  0.
   545  5.44  0.  0.
   546  5.45  0.  0.
   547  5.46  0.  0.
   548  5.47  0.  0.
   549  5.48  0.  0.
   550  5.49  0.  0.
   551  5.50  0.  0.
   552  5.51  0.  0.
   553  5.52  0.  0.
   554  5.53  0.  0.
   555  5.54  0.  0.
   556  5.55  0.  0.
   557  5.56  0.  0.
   558  5.57  0.  0.
   559  5.58  0.  0.
   560  5.59  0.  0.
   561  5.60  0.  0.
   562  5.61  0.  0.
   563  5.62  0.  0.
   564  5.63  0.  0.
   565  5.64  0.  0.
   566  5.65  0.  0.
   567  5.66  0.  0.
   568  5.67  0.  0.
   569  5.68  0.  0.
   570  5.69  0.  0.
   571  5.70  0.  0.
   572  5.71  0.  0.
   573  5.72  0.  0.
   574  5.73  0.  0.
   575  5.74  0.  0.
   576  5.75  0.  0.
   577  5.76  0.  0.
   578  5.77  0.  0.
   579  5.78  0.  0.
   580  5.79  0.  0.
   581  5.80  0.  0.
   582  5.81  0.  0.
   583  5.82  0.  0.
   584  5.83  0.  0.
   585  5.84  0.  0.
   586  5.85  0.  0.
   587  5.86  0.  0.
   588  5.87  0.  0.
   589  5.88  0.  0.
   590  5.89  0.  0.
   591  5.90  0.  0.
   592  5.91  0.  0.
   593  5.92  0.  0.
   594  5.93  0.  0.
   595  5.94  0.  0.
   596  5.95  0.  0.
   597  5.96  0.  0.
   598  5.97  0.  0.
   599  5.98  0.  0.
   600  5.99  0.  0.
   1                         7.9508510572389E+00  1.0898587917577E+00
     1  0.0000000000000E+00  1.0302033670584E-09 -2.9898990228094E-09
     2  1.0000000000000E-02  1.6273690159280E-03 -1.0672668828150E-03
     3  2.0000000000000E-02  6.5022480548407E-03 -4.2591338721159E-03
     4  3.0000000000000E-02  1.4603001215519E-02 -9.5459115713423E-03
     5  4.0000000000000E-02  2.5893728489564E-02 -1.6878487862612E-02
     6  5.0000000000000E-02  4.0324503442917E-02 -2.6188877207745E-02
     7  6.0000000000000E-02  5.7831701886891E-02 -3.7390977748661E-02
     8  7.0000000000000E-02  7.8338417535917E-02 -5.0381524531094E-02
     9  8.0000000000000E-02  1.0175495961901E-01 -6.5041224185634E-02
    10  9.0000000000000E-02  1.2797942646386E-01 -8.1236053660794E-02
    11  1.0000000000000E-01  1.5689834822243E-01 -9.8818703162297E-02
    12  1.1000000000000E-01  1.8838739116814E-01 -1.1763014135249E-01
    13  1.2000000000000E-01  2.2231211537972E-01 -1.3750127913987E-01
    14  1.3000000000000E-01  2.5852877714486E-01 -1.5825470707210E-01
    15  1.4000000000000E-01  2.9688516707555E-01 -1.7970648045780E-01
    16  1.5000000000000E-01  3.3722147473197E-01 -2.0166792590033E-01
    17  1.6000000000000E-01  3.7937117050484E-01 -2.2394744293762E-01
    18  1.7000000000000E-01  4.2316189560846E-01 -2.4635227494620E-01
    19  1.8000000000000E-01  4.6841635128417E-01 -2.6869022437762E-01
    20  1.9000000000000E-01  5.1495317870363E-01 -2.9077128873606E-01
    21  2.0000000000000E-01  5.6258782158370E-01 -3.1240919545354E-01
    22  2.1000000000000E-01  6.1113336417125E-01 -3.3342281594454E-01
    23  2.2000000000000E-01  6.6040133801439E-01 -3.5363744158709E-01
    24  2.3000000000000E-01  7.1020249179235E-01 -3.7288590714047E-01
    25  2.4000000000000E-01  7.6034751941375E-01 -3.9100955012082E-01
    26  2.5000000000000E-01  8.1064774259509E-01 -4.0785899786349E-01
    27  2.6000000000000E-01  8.6091574517883E-01 -4.2329477734560E-01
    28  2.7000000000000E-01  9.1096595752476E-01 -4.3718774626658E-01
    29  2.8000000000000E-01  9.6061519038847E-01 -4.4941934732461E-01
    30  2.9000000000000E-01  1.0096831187671E+00 -4.5988169102075E-01
    31  3.0000000000000E-01  1.0579927172236E+00 -4.6847747560864E-01
    32  3.1000000000000E-01  1.1053706491801E+00 -4.7511975592326E-01
    33  3.2000000000000E-01  1.1516476135718E+00 -4.7973157571005E-01
    34  3.3000000000000E-01  1.1966586530721E+00 -4.8224548067987E-01
    35  3.4000000000000E-01  1.2402434287988E+00 -4.8260293178486E-01
    36  3.5000000000000E-01  1.2822464670028E+00 -4.8075364010066E-01
    37  3.6000000000000E-01  1.3225173836867E+00 -4.7665484617165E-01
    38  3.7000000000000E-01  1.3609110934075E+00 -4.7027056769662E-01
    39  3.8000000000000E-01  1.3972880086759E+00 -4.6157083997768E-01
    40  3.9000000000000E-01  1.4315142363565E+00 -4.5053097360960E-01
    41  4.0000000000000E-01  1.4634617773191E+00 -4.3713085344246E-01
    42  4.1000000000000E-01  1.4930087352699E+00 -4.2135430190916E-01
    43  4.2000000000000E-01  1.5200395402195E+00 -4.0318852838133E-01
    44  4.3000000000000E-01  1.5444451914307E+00 -3.8262368432230E-01
    45  4.4000000000000E-01  1.5661235239295E+00 -3.5965254167212E-01
    46  4.5000000000000E-01  1.5849795017865E+00 -3.3427030916451E-01
    47  4.6000000000000E-01  1.6009255403891E+00 -3.0647459818288E-01
    48  4.7000000000000E-01  1.6138818588407E+00 -2.7626554636568E-01
    49  4.8000000000000E-01  1.6237768624769E+00 -2.4364610352748E-01
    50  4.9000000000000E-01  1.6305475542838E+00 -2.0862248063688E-01
    51  5.0000000000000E-01  1.6341399727731E+00 -1.7120475865351E-01
    52  5.1000000000000E-01  1.6345096526378E+00 -1.3140765004671E-01
    53  5.2000000000000E-01  1.6316221032980E+00 -8.9251401872297E-02
    54  5.3000000000000E-01  1.6254532992793E+00 -4.4762825447090E-02
    55  5.4000000000000E-01  1.6159901752706E+00  2.0235659926064E-03
    56  5.5000000000000E-01  1.6032311177050E+00  5.1064333657372E-02
    57  5.6000000000000E-01  1.5871864438232E+00  1.0230582867244E-01
    58  5.7000000000000E-01  1.5678788584306E+00  1.5568287439721E-01
    59  5.8000000000000E-01  1.5453438779723E+00  2.1111744556617E-01
    60  5.9000000000000E-01  1.5196302111343E+00  2.6851737593256E-01
    61  6.0000000000000E-01  1.4908000849573E+00  3.2777512725420E-01
    62  6.1000000000000E-01  1.4589295054226E+00  3.8876665302848E-01
    63  6.2000000000000E-01  1.4241084416560E+00  4.5135039033393E-01
    64  6.3000000000000E-01  1.3864409232945E+00  5.1536641245125E-01
    65  6.4000000000000E-01  1.3460450411697E+00  5.8063577361339E-01
    66  6.5000000000000E-01  1.3030528422888E+00  6.4696007527517E-01
    67  6.6000000000000E-01  1.2576101111175E+00  7.1412128071714E-01
    68  6.7000000000000E-01  1.2098760303942E+00  7.8188180163298E-01
    69  6.8000000000000E-01  1.1600227161020E+00  8.4998487663447E-01
    70  6.9000000000000E-01  1.1082346227902E+00  9.1815525739286E-01
    71  7.0000000000000E-01  1.0547078171378E+00  9.8610021348108E-01
    72  7.1000000000000E-01  9.9964911946928E-01  1.0535108619556E+00
    73  7.2000000000000E-01  9.4327511484495E-01  1.1200638223992E+00
    74  7.3000000000000E-01  8.8581103730983E-01  1.1854231926194E+00
    75  7.4000000000000E-01  8.2748953288747E-01  1.2492428345525E+00
    76  7.5000000000000E-01  7.6854930889487E-01  1.3111689542554E+00
    77  7.6000000000000E-01  7.0923367911248E-01  1.3708429542711E+00
    78  7.7000000000000E-01  6.4978901622944E-01  1.4279045312321E+00
    79  7.8000000000000E-01  5.9046312476706E-01  1.4819949864082E+00
    80  7.9000000000000E-01  5.3150354933096E-01  1.5327607121170E+00
    81  8.0000000000000E-01  4.7315583452313E-01  1.5798568125763E+00
    82  8.1000000000000E-01  4.1566175413079E-01  1.6229508139846E+00
    83  8.2000000000000E-01  3.5925752827294E-01  1.6617264154346E+00
    84  8.3000000000000E-01  3.0417204800521E-01  1.6958872297764E+00
    85  8.4000000000000E-01  2.5062512743851E-01  1.7251604618005E+00
    86  8.5000000000000E-01  1.9882580370264E-01  1.7493004701580E+00
    87  8.6000000000000E-01  1.4897070506928E-01  1.7680921593173E+00
    88  8.7000000000000E-01  1.0124250723518E-01  1.7813541485753E+00
    89  8.8000000000000E-01  5.5808497150893E-02  1.7889416667328E+00
    90  8.9000000000000E-01  1.2819262869151E-02  1.7907491234753E+00
    91  9.0000000000000E-01 -2.7592473315315E-02  1.7867123117655E+00
    92  9.1000000000000E-01 -6.5312862640888E-02  1.7768101996137E+00
    93  9.2000000000000E-01 -1.0024776451366E-01  1.7610662743946E+00
    94  9.3000000000000E-01 -1.3232339592111E-01  1.7395494083641E+00
    95  9.4000000000000E-01 -1.6148678573073E-01  1.7123742201178E+00
    96  9.5000000000000E-01 -1.8770602634599E-01  1.6797009133404E+00
    97  9.6000000000000E-01 -2.1097031770558E-01  1.6417345812242E+00
    98  9.7000000000000E-01 -2.3128980123497E-01  1.5987239722719E+00
    99  9.8000000000000E-01 -2.4869518405369E-01  1.5509597207434E+00
   100  9.9000000000000E-01 -2.6323715646563E-01  1.4987720526275E+00
   101  1.0000000000000E+00 -2.7498560847163E-01  1.4425279855998E+00
   102  1.0100000000000E+00 -2.8402865369987E-01  1.3826280488480E+00
   103  1.0200000000000E+00 -2.9047147170999E-01  1.3195025557719E+00
   104  1.0300000000000E+00 -2.9443498204928E-01  1.2536074692969E+00
   105  1.0400000000000E+00 -2.9605436568127E-01  1.1854199057338E+00
   106  1.0500000000000E+00 -2.9547745143783E-01  1.1154333286975E+00
   107  1.0600000000000E+00 -2.9286298692526E-01  1.0441524894438E+00
   108  1.0700000000000E+00 -2.8837881481408E-01  9.7208817400674E-01
   109  1.0800000000000E+00 -2.8219997663841E-01  8.9975182066497E-01
   110  1.0900000000000E+00 -2.7450676709636E-01  8.2765007344541E-01
   111  1.1000000000000E+00 -2.6548276236686E-01  7.5627933855753E-01
   112  1.1100000000000E+00 -2.5531284612585E-01  6.8612041080279E-01
   113  1.1200000000000E+00 -2.4418125675338E-01  6.1763323611255E-01
   114  1.1300000000000E+00 -2.3226967866974E-01  5.5125187442574E-01
   115  1.1400000000000E+00 -2.1975539983547E-01  4.8737972416575E-01
   116  1.1500000000000E+00 -2.0680955619989E-01  4.2638506561959E-01
   117  1.1600000000000E+00 -1.9359548231647E-01  3.6859697565891E-01
   118  1.1700000000000E+00 -1.8026718546830E-01  3.1430166048932E-01
   119  1.1800000000000E+00 -1.6696795850779E-01  2.6373924660980E-01
   120  1.1900000000000E+00 -1.5382914423196E-01  2.1710106296508E-01
   121  1.2000000000000E+00 -1.4096906152794E-01  1.7452743950189E-01
   122  1.2100000000000E+00 -1.2849210078677E-01  1.3610603915276E-01
   123  1.2200000000000E+00 -1.1648799320760E-01  1.0187073170226E-01
   124  1.2300000000000E+00 -1.0503125568314E-01  7.1801009265216E-02
   125  1.2400000000000E+00 -9.4180809350338E-02  4.5821931221667E-02
   126  1.2500000000000E+00 -8.3979775056006E-02  2.3804617812112E-02
   127  1.2600000000000E+00 -7.4455470881607E-02  5.5674314079844E-03
   128  1.2700000000000E+00 -6.5620980518100E-02 -9.1153823622816E-03
   129  1.2800000000000E+00 -5.7477943739063E-02 -2.0500067069198E-02
   130  1.2900000000000E+00 -5.0018025374221E-02 -2.8867387143871E-02
   131  1.3000000000000E+00 -4.3224178339291E-02 -3.4518051658622E-02
   132  1.3100000000000E+00 -3.7072013440567E-02 -3.7767848979509E-02
   133  1.3200000000000E+00 -3.1531249782342E-02 -3.8942579647992E-02
   134  1.3300000000000E+00 -2.6567223025376E-02 -3.8372854905580E-02
   135  1.3400000000000E+00 -2.2142427105436E-02 -3.6388834792916E-02
   136  1.3500000000000E+00 -1.8218064678148E-02 -3.3314980366524E-02
   137  1.3600000000000E+00 -1.4755579281945E-02 -2.9464899357431E-02
   138  1.3700000000000E+00 -1.1718162563544E-02 -2.5136320612044E-02