Mo    ONCVPSP-4.0.1  r_core=   1.45401   1.45401   1.35329
     42.0000     14.0000      250217    zatom,zion,pspd
     8       2   2     4   600     0    pspcod,pspxc,lmax,lloc,mmax,r2well
  5.99000000  3.00000000  0.00000000    rchrg fchrg qchrg
     2     2     2     0    nproj
     3     1           extension_switch
     4     3     0    nprojso
   0                         1.3461489700509E+01  1.2581553867365E+00
     1  0.0000000000000E+00 -1.6544199343826E-10  8.3311704757172E-10
     2  1.0000000000000E-02  5.7380508256414E-02 -2.7805385611660E-02
     3  2.0000000000000E-02  1.1468570025702E-01 -5.5493669979263E-02
     4  3.0000000000000E-02  1.7184037891714E-01 -8.2948562239152E-02
     5  4.0000000000000E-02  2.2876958361315E-01 -1.1005537941071E-01
     6  5.0000000000000E-02  2.8539870375292E-01 -1.3670181835980E-01
     7  6.0000000000000E-02  3.4165358687452E-01 -1.6277868999088E-01
     8  7.0000000000000E-02  3.9746063964712E-01 -1.8818060407174E-01
     9  8.0000000000000E-02  4.5274692031375E-01 -2.1280659392779E-01
    10  9.0000000000000E-02  5.0744022131678E-01 -2.3656067126070E-01
    11  1.0000000000000E-01  5.6146914108131E-01 -2.5935230253293E-01
    12  1.1000000000000E-01  6.1476314419355E-01 -2.8109679969791E-01
    13  1.2000000000000E-01  6.6725260949828E-01 -3.0171561952524E-01
    14  1.3000000000000E-01  7.1886886594429E-01 -3.2113656734745E-01
    15  1.4000000000000E-01  7.6954421632566E-01 -3.3929390271750E-01
    16  1.5000000000000E-01  8.1921194939311E-01 -3.5612834618674E-01
    17  1.6000000000000E-01  8.6780634113786E-01 -3.7158698816581E-01
    18  1.7000000000000E-01  9.1526264637441E-01 -3.8562310258768E-01
    19  1.8000000000000E-01  9.6151708206181E-01 -3.9819586982557E-01
    20  1.9000000000000E-01  1.0065068041000E+00 -4.0927001500010E-01
    21  2.0000000000000E-01  1.0501698796119E+00 -4.1881536941269E-01
    22  2.1000000000000E-01  1.0924452569674E+00 -4.2680636433964E-01
    23  2.2000000000000E-01  1.1332727360181E+00 -4.3322146778682E-01
    24  2.3000000000000E-01  1.1725929411854E+00 -4.3804257601656E-01
    25  2.4000000000000E-01  1.2103473001720E+00 -4.4125437269204E-01
    26  2.5000000000000E-01  1.2464780311537E+00 -4.4284366932301E-01
    27  2.6000000000000E-01  1.2809281413386E+00 -4.4279874132055E-01
    28  2.7000000000000E-01  1.3136414397583E+00 -4.4110867436629E-01
    29  2.8000000000000E-01  1.3445625670857E+00 -4.3776273596044E-01
    30  2.9000000000000E-01  1.3736370451357E+00 -4.3274978692609E-01
    31  3.0000000000000E-01  1.4008113485246E+00 -4.2605774731074E-01
    32  3.1000000000000E-01  1.4260330007167E+00 -4.1767313054037E-01
    33  3.2000000000000E-01  1.4492506963929E+00 -4.0758065884779E-01
    34  3.3000000000000E-01  1.4704144517301E+00 -3.9576297192593E-01
    35  3.4000000000000E-01  1.4894757837831E+00 -3.8220043945633E-01
    36  3.5000000000000E-01  1.5063879197266E+00 -3.6687108665015E-01
    37  3.6000000000000E-01  1.5211060362368E+00 -3.4975064023044E-01
    38  3.7000000000000E-01  1.5335875287854E+00 -3.3081270040231E-01
    39  3.8000000000000E-01  1.5437923100859E+00 -3.1002904232734E-01
    40  3.9000000000000E-01  1.5516831363796E+00 -2.8737004846606E-01
    41  4.0000000000000E-01  1.5572259596855E+00 -2.6280527090948E-01
    42  4.1000000000000E-01  1.5603903035778E+00 -2.3630412051805E-01
    43  4.2000000000000E-01  1.5611496594888E+00 -2.0783667735880E-01
    44  4.3000000000000E-01  1.5594818999990E+00 -1.7737461461412E-01
    45  4.4000000000000E-01  1.5553697050506E+00 -1.4489222586241E-01
    46  4.5000000000000E-01  1.5488009965355E+00 -1.1036754344134E-01
    47  4.6000000000000E-01  1.5397693762616E+00 -7.3783533530516E-02
    48  4.7000000000000E-01  1.5282745619050E+00 -3.5129351669791E-02
    49  4.8000000000000E-01  1.5143228152159E+00  5.5983593051761E-03
    50  4.9000000000000E-01  1.4979273564711E+00  4.8394148446057E-02
    51  5.0000000000000E-01  1.4791087589623E+00  9.3242433799333E-02
    52  5.1000000000000E-01  1.4578953171860E+00  1.4011619924057E-01
    53  5.2000000000000E-01  1.4343233823537E+00  1.8897573353810E-01
    54  5.3000000000000E-01  1.4084376588865E+00  2.3976743453188E-01
    55  5.4000000000000E-01  1.3802914556893E+00  2.9242270136777E-01
    56  5.5000000000000E-01  1.3499468862212E+00  3.4685693743676E-01
    57  5.6000000000000E-01  1.3174750116947E+00  4.0296868603317E-01
    58  5.7000000000000E-01  1.2829559221373E+00  4.6063891975964E-01
    59  5.8000000000000E-01  1.2464787505435E+00  5.1973050337697E-01
    60  5.9000000000000E-01  1.2081416159208E+00  5.8008784813101E-01
    61  6.0000000000000E-01  1.1680514916884E+00  6.4153677360218E-01
    62  6.1000000000000E-01  1.1263239966188E+00  7.0388459083617E-01
    63  6.2000000000000E-01  1.0830831063076E+00  7.6692041794850E-01
    64  6.3000000000000E-01  1.0384607840084E+00  8.3041573658443E-01
    65  6.4000000000000E-01  9.9259653057581E-01  8.9412519458840E-01
    66  6.5000000000000E-01  9.4563685419269E-01  9.5778765703428E-01
    67  6.6000000000000E-01  8.9773466152827E-01  1.0211275044292E+00
    68  6.7000000000000E-01  8.4904857294876E-01  1.0838561734734E+00
    69  6.8000000000000E-01  7.9974216538464E-01  1.1456739322837E+00
    70  6.9000000000000E-01  7.4998314742622E-01  1.2062718785163E+00
    71  7.0000000000000E-01  6.9994247216282E-01  1.2653341454064E+00
    72  7.1000000000000E-01  6.4979339418579E-01  1.3225402974267E+00
    73  7.2000000000000E-01  5.9971047802956E-01  1.3775678941015E+00
    74  7.3000000000000E-01  5.4986856611399E-01  1.4300951975546E+00
    75  7.4000000000000E-01  5.0044171496454E-01  1.4798039966514E+00
    76  7.5000000000000E-01  4.5160210911235E-01  1.5263825181774E+00
    77  7.6000000000000E-01  4.0351896260260E-01  1.5695283934040E+00
    78  7.7000000000000E-01  3.5635741845944E-01  1.6089516466778E+00
    79  7.8000000000000E-01  3.1027745675863E-01  1.6443776713563E+00
    80  7.9000000000000E-01  2.6543282213953E-01  1.6755501575276E+00
    81  8.0000000000000E-01  2.2196998164115E-01  1.7022339355285E+00
    82  8.1000000000000E-01  1.8002712366787E-01  1.7242176993108E+00
    83  8.2000000000000E-01  1.3973320867846E-01  1.7413165742310E+00
    84  8.3000000000000E-01  1.0120708184649E-01  1.7533744948363E+00
    85  8.4000000000000E-01  6.4556657463454E-02  1.7602663597039E+00
    86  8.5000000000000E-01  2.9878184250714E-02  1.7618999323353E+00
    87  8.6000000000000E-01 -2.7443999807826E-03  1.7582174595073E+00
    88  8.7000000000000E-01 -3.3240016726629E-02  1.7491969813010E+00
    89  8.8000000000000E-01 -6.1550891593092E-02  1.7348533102466E+00
    90  8.9000000000000E-01 -8.7632889905706E-02  1.7152386605951E+00
    91  9.0000000000000E-01 -1.1145573864618E-01  1.6904429126104E+00
    92  9.1000000000000E-01 -1.3300313143883E-01  1.6605935009274E+00
    93  9.2000000000000E-01 -1.5227271456047E-01  1.6258549203834E+00
    94  9.3000000000000E-01 -1.6927595323924E-01  1.5864278472417E+00
    95  9.4000000000000E-01 -1.8403787882341E-01  1.5425478783439E+00
    96  9.5000000000000E-01 -1.9659671872119E-01  1.4944838953616E+00
    97  9.6000000000000E-01 -2.0700341232274E-01  1.4425360659357E+00
    98  9.7000000000000E-01 -2.1532101739478E-01  1.3870334979980E+00
    99  9.8000000000000E-01 -2.2162401267272E-01  1.3283315679282E+00
   100  9.9000000000000E-01 -2.2599750354543E-01  1.2668089473249E+00
   101  1.0000000000000E+00 -2.2853633881855E-01  1.2028643570171E+00
   102  1.0100000000000E+00 -2.2934414753786E-01  1.1369130804432E+00
   103  1.0200000000000E+00 -2.2853230574112E-01  1.0693832716384E+00
   104  1.0300000000000E+00 -2.2621884377117E-01  1.0007120957371E+00
   105  1.0400000000000E+00 -2.2252730541333E-01  9.3134174207696E-01
   106  1.0500000000000E+00 -2.1758557060884E-01  8.6171535165727E-01
   107  1.0600000000000E+00 -2.1152465383257E-01  7.9227290181267E-01
   108  1.0700000000000E+00 -2.0447749040375E-01  7.2344709150432E-01
   109  1.0800000000000E+00 -1.9657772301951E-01  6.5565927058671E-01
   110  1.0900000000000E+00 -1.8795850065977E-01  5.8931545577315E-01
   111  1.1000000000000E+00 -1.7875130171153E-01  5.2480247480176E-01
   112  1.1100000000000E+00 -1.6908479270175E-01  4.6248427850615E-01
   113  1.1200000000000E+00 -1.5908373341885E-01  4.0269845814575E-01
   114  1.1300000000000E+00 -1.4886793844741E-01  3.4575300246633E-01
   115  1.1400000000000E+00 -1.3855130425401E-01  2.9192332559920E-01
   116  1.1500000000000E+00 -1.2824090994798E-01  2.4144959307935E-01
   117  1.1600000000000E+00 -1.1803619872316E-01  1.9453436905884E-01
   118  1.1700000000000E+00 -1.0802824576824E-01  1.5134060322395E-01
   119  1.1800000000000E+00 -9.8299117142762E-02  1.1198997109619E-01
   120  1.1900000000000E+00 -8.8921322761565E-02  7.6561576344403E-02
   121  1.2000000000000E+00 -7.9957365233834E-02  4.5091018534823E-02
   122  1.2100000000000E+00 -7.1459384889926E-02  1.7569824494907E-02
   123  1.2200000000000E+00 -6.3468899902324E-02 -6.0547638222593E-03
   124  1.2300000000000E+00 -5.6016639001101E-02 -2.5879657305063E-02
   125  1.2400000000000E+00 -4.9122462337707E-02 -4.2045464005977E-02
   126  1.2500000000000E+00 -4.2795372101161E-02 -5.4735694627771E-02
   127  1.2600000000000E+00 -3.7033636088409E-02 -6.4175488357106E-02
   128  1.2700000000000E+00 -3.1826268856007E-02 -7.0622996063679E-02
   129  1.2800000000000E+00 -2.7155510553074E-02 -7.4355957106078E-02
   130  1.2900000000000E+00 -2.2997988334379E-02 -7.5666275717539E-02
   131  1.3000000000000E+00 -1.9325620421477E-02 -7.4856200628204E-02
   132  1.3100000000000E+00 -1.6106559222061E-02 -7.2234381588294E-02
   133  1.3200000000000E+00 -1.3306157366250E-02 -6.8111869593476E-02
   134  1.3300000000000E+00 -1.0887944476209E-02 -6.2798104912935E-02
   135  1.3400000000000E+00 -8.8146016373811E-03 -5.6596941633663E-02
   136  1.3500000000000E+00 -7.0489207176911E-03 -4.9802756526653E-02
   137  1.3600000000000E+00 -5.5547338490058E-03 -4.2696694765433E-02
   138  1.3700000000000E+00 -4.2978173128264E-03 -3.5543052655910E-02
   139  1.3800000000000E+00 -3.2467039561302E-03 -2.8585999160563E-02
   140  1.3900000000000E+00 -2.3782630807435E-03 -2.2033307298232E-02
   141  1.4000000000000E+00 -1.6739011872277E-03 -1.6065204942625E-02
   142  1.4100000000000E+00 -1.1098682447455E-03 -1.0860737169658E-02
   143  1.4200000000000E+00 -6.6878385731934E-04 -6.5664018379510E-03
   144  1.4300000000000E+00 -3.3987541775647E-04 -3.2954664139561E-03
   145  1.4400000000000E+00 -1.1852156443345E-04 -1.1180363668684E-03
   146  1.4500000000000E+00 -1.2397811793769E-05 -1.1187699070333E-04
   147  1.4600000000000E+00  1.5793628345205E-06  1.3931729595375E-05
   148  1.4700000000000E+00 -3.2164027935553E-07 -2.9012589003163E-06
   149  1.48  0.  0.
   150  1.49  0.  0.
   151  1.50  0.  0.
   152  1.51  0.  0.
   153  1.52  0.  0.
   154  1.53  0.  0.
   155  1.54  0.  0.
   156  1.55  0.  0.
   157  1.56  0.  0.
   158  1.57  0.  0.
   159  1.58  0.  0.
   160  1.59  0.  0.
   161  1.60  0.  0.
   162  1.61  0.  0.
   163  1.62  0.  0.
   164  1.63  0.  0.
   165  1.64  0.  0.
   166  1.65  0.  0.
   167  1.66  0.  0.
   168  1.67  0.  0.
   169  1.68  0.  0.
   170  1.69  0.  0.
   171  1.70  0.  0.
   172  1.71  0.  0.
   173  1.72  0.  0.
   174  1.73  0.  0.
   175  1.74  0.  0.
   176  1.75  0.  0.
   177  1.76  0.  0.
   178  1.77  0.  0.
   179  1.78  0.  0.
   180  1.79  0.  0.
   181  1.80  0.  0.
   182  1.81  0.  0.
   183  1.82  0.  0.
   184  1.83  0.  0.
   185  1.84  0.  0.
   186  1.85  0.  0.
   187  1.86  0.  0.
   188  1.87  0.  0.
   189  1.88  0.  0.
   190  1.89  0.  0.
   191  1.90  0.  0.
   192  1.91  0.  0.
   193  1.92  0.  0.
   194  1.93  0.  0.
   195  1.94  0.  0.
   196  1.95  0.  0.
   197  1.96  0.  0.
   198  1.97  0.  0.
   199  1.98  0.  0.
   200  1.99  0.  0.
   201  2.00  0.  0.
   202  2.01  0.  0.
   203  2.02  0.  0.
   204  2.03  0.  0.
   205  2.04  0.  0.
   206  2.05  0.  0.
   207  2.06  0.  0.
   208  2.07  0.  0.
   209  2.08  0.  0.
   210  2.09  0.  0.
   211  2.10  0.  0.
   212  2.11  0.  0.
   213  2.12  0.  0.
   214  2.13  0.  0.
   215  2.14  0.  0.
   216  2.15  0.  0.
   217  2.16  0.  0.
   218  2.17  0.  0.
   219  2.18  0.  0.
   220  2.19  0.  0.
   221  2.20  0.  0.
   222  2.21  0.  0.
   223  2.22  0.  0.
   224  2.23  0.  0.
   225  2.24  0.  0.
   226  2.25  0.  0.
   227  2.26  0.  0.
   228  2.27  0.  0.
   229  2.28  0.  0.
   230  2.29  0.  0.
   231  2.30  0.  0.
   232  2.31  0.  0.
   233  2.32  0.  0.
   234  2.33  0.  0.
   235  2.34  0.  0.
   236  2.35  0.  0.
   237  2.36  0.  0.
   238  2.37  0.  0.
   239  2.38  0.  0.
   240  2.39  0.  0.
   241  2.40  0.  0.
   242  2.41  0.  0.
   243  2.42  0.  0.
   244  2.43  0.  0.
   245  2.44  0.  0.
   246  2.45  0.  0.
   247  2.46  0.  0.
   248  2.47  0.  0.
   249  2.48  0.  0.
   250  2.49  0.  0.
   251  2.50  0.  0.
   252  2.51  0.  0.
   253  2.52  0.  0.
   254  2.53  0.  0.
   255  2.54  0.  0.
   256  2.55  0.  0.
   257  2.56  0.  0.
   258  2.57  0.  0.
   259  2.58  0.  0.
   260  2.59  0.  0.
   261  2.60  0.  0.
   262  2.61  0.  0.
   263  2.62  0.  0.
   264  2.63  0.  0.
   265  2.64  0.  0.
   266  2.65  0.  0.
   267  2.66  0.  0.
   268  2.67  0.  0.
   269  2.68  0.  0.
   270  2.69  0.  0.
   271  2.70  0.  0.
   272  2.71  0.  0.
   273  2.72  0.  0.
   274  2.73  0.  0.
   275  2.74  0.  0.
   276  2.75  0.  0.
   277  2.76  0.  0.
   278  2.77  0.  0.
   279  2.78  0.  0.
   280  2.79  0.  0.
   281  2.80  0.  0.
   282  2.81  0.  0.
   283  2.82  0.  0.
   284  2.83  0.  0.
   285  2.84  0.  0.
   286  2.85  0.  0.
   287  2.86  0.  0.
   288  2.87  0.  0.
   289  2.88  0.  0.
   290  2.89  0.  0.
   291  2.90  0.  0.
   292  2.91  0.  0.
   293  2.92  0.  0.
   294  2.93  0.  0.
   295  2.94  0.  0.
   296  2.95  0.  0.
   297  2.96  0.  0.
   298  2.97  0.  0.
   299  2.98  0.  0.
   300  2.99  0.  0.
   301  3.00  0.  0.
   302  3.01  0.  0.
   303  3.02  0.  0.
   304  3.03  0.  0.
   305  3.04  0.  0.
   306  3.05  0.  0.
   307  3.06  0.  0.
   308  3.07  0.  0.
   309  3.08  0.  0.
   310  3.09  0.  0.
   311  3.10  0.  0.
   312  3.11  0.  0.
   313  3.12  0.  0.
   314  3.13  0.  0.
   315  3.14  0.  0.
   316  3.15  0.  0.
   317  3.16  0.  0.
   318  3.17  0.  0.
   319  3.18  0.  0.
   320  3.19  0.  0.
   321  3.20  0.  0.
   322  3.21  0.  0.
   323  3.22  0.  0.
   324  3.23  0.  0.
   325  3.24  0.  0.
   326  3.25  0.  0.
   327  3.26  0.  0.
   328  3.27  0.  0.
   329  3.28  0.  0.
   330  3.29  0.  0.
   331  3.30  0.  0.
   332  3.31  0.  0.
   333  3.32  0.  0.
   334  3.33  0.  0.
   335  3.34  0.  0.
   336  3.35  0.  0.
   337  3.36  0.  0.
   338  3.37  0.  0.
   339  3.38  0.  0.
   340  3.39  0.  0.
   341  3.40  0.  0.
   342  3.41  0.  0.
   343  3.42  0.  0.
   344  3.43  0.  0.
   345  3.44  0.  0.
   346  3.45  0.  0.
   347  3.46  0.  0.
   348  3.47  0.  0.
   349  3.48  0.  0.
   350  3.49  0.  0.
   351  3.50  0.  0.
   352  3.51  0.  0.
   353  3.52  0.  0.
   354  3.53  0.  0.
   355  3.54  0.  0.
   356  3.55  0.  0.
   357  3.56  0.  0.
   358  3.57  0.  0.
   359  3.58  0.  0.
   360  3.59  0.  0.
   361  3.60  0.  0.
   362  3.61  0.  0.
   363  3.62  0.  0.
   364  3.63  0.  0.
   365  3.64  0.  0.
   366  3.65  0.  0.
   367  3.66  0.  0.
   368  3.67  0.  0.
   369  3.68  0.  0.
   370  3.69  0.  0.
   371  3.70  0.  0.
   372  3.71  0.  0.
   373  3.72  0.  0.
   374  3.73  0.  0.
   375  3.74  0.  0.
   376  3.75  0.  0.
   377  3.76  0.  0.
   378  3.77  0.  0.
   379  3.78  0.  0.
   380  3.79  0.  0.
   381  3.80  0.  0.
   382  3.81  0.  0.
   383  3.82  0.  0.
   384  3.83  0.  0.
   385  3.84  0.  0.
   386  3.85  0.  0.
   387  3.86  0.  0.
   388  3.87  0.  0.
   389  3.88  0.  0.
   390  3.89  0.  0.
   391  3.90  0.  0.
   392  3.91  0.  0.
   393  3.92  0.  0.
   394  3.93  0.  0.
   395  3.94  0.  0.
   396  3.95  0.  0.
   397  3.96  0.  0.
   398  3.97  0.  0.
   399  3.98  0.  0.
   400  3.99  0.  0.
   401  4.00  0.  0.
   402  4.01  0.  0.
   403  4.02  0.  0.
   404  4.03  0.  0.
   405  4.04  0.  0.
   406  4.05  0.  0.
   407  4.06  0.  0.
   408  4.07  0.  0.
   409  4.08  0.  0.
   410  4.09  0.  0.
   411  4.10  0.  0.
   412  4.11  0.  0.
   413  4.12  0.  0.
   414  4.13  0.  0.
   415  4.14  0.  0.
   416  4.15  0.  0.
   417  4.16  0.  0.
   418  4.17  0.  0.
   419  4.18  0.  0.
   420  4.19  0.  0.
   421  4.20  0.  0.
   422  4.21  0.  0.
   423  4.22  0.  0.
   424  4.23  0.  0.
   425  4.24  0.  0.
   426  4.25  0.  0.
   427  4.26  0.  0.
   428  4.27  0.  0.
   429  4.28  0.  0.
   430  4.29  0.  0.
   431  4.30  0.  0.
   432  4.31  0.  0.
   433  4.32  0.  0.
   434  4.33  0.  0.
   435  4.34  0.  0.
   436  4.35  0.  0.
   437  4.36  0.  0.
   438  4.37  0.  0.
   439  4.38  0.  0.
   440  4.39  0.  0.
   441  4.40  0.  0.
   442  4.41  0.  0.
   443  4.42  0.  0.
   444  4.43  0.  0.
   445  4.44  0.  0.
   446  4.45  0.  0.
   447  4.46  0.  0.
   448  4.47  0.  0.
   449  4.48  0.  0.
   450  4.49  0.  0.
   451  4.50  0.  0.
   452  4.51  0.  0.
   453  4.52  0.  0.
   454  4.53  0.  0.
   455  4.54  0.  0.
   456  4.55  0.  0.
   457  4.56  0.  0.
   458  4.57  0.  0.
   459  4.58  0.  0.
   460  4.59  0.  0.
   461  4.60  0.  0.
   462  4.61  0.  0.
   463  4.62  0.  0.
   464  4.63  0.  0.
   465  4.64  0.  0.
   466  4.65  0.  0.
   467  4.66  0.  0.
   468  4.67  0.  0.
   469  4.68  0.  0.
   470  4.69  0.  0.
   471  4.70  0.  0.
   472  4.71  0.  0.
   473  4.72  0.  0.
   474  4.73  0.  0.
   475  4.74  0.  0.
   476  4.75  0.  0.
   477  4.76  0.  0.
   478  4.77  0.  0.
   479  4.78  0.  0.
   480  4.79  0.  0.
   481  4.80  0.  0.
   482  4.81  0.  0.
   483  4.82  0.  0.
   484  4.83  0.  0.
   485  4.84  0.  0.
   486  4.85  0.  0.
   487  4.86  0.  0.
   488  4.87  0.  0.
   489  4.88  0.  0.
   490  4.89  0.  0.
   491  4.90  0.  0.
   492  4.91  0.  0.
   493  4.92  0.  0.
   494  4.93  0.  0.
   495  4.94  0.  0.
   496  4.95  0.  0.
   497  4.96  0.  0.
   498  4.97  0.  0.
   499  4.98  0.  0.
   500  4.99  0.  0.
   501  5.00  0.  0.
   502  5.01  0.  0.
   503  5.02  0.  0.
   504  5.03  0.  0.
   505  5.04  0.  0.
   506  5.05  0.  0.
   507  5.06  0.  0.
   508  5.07  0.  0.
   509  5.08  0.  0.
   510  5.09  0.  0.
   511  5.10  0.  0.
   512  5.11  0.  0.
   513  5.12  0.  0.
   514  5.13  0.  0.
   515  5.14  0.  0.
   516  5.15  0.  0.
   517  5.16  0.  0.
   518  5.17  0.  0.
   519  5.18  0.  0.
   520  5.19  0.  0.
   521  5.20  0.  0.
   522  5.21  0.  0.
   523  5.22  0.  0.
   524  5.23  0.  0.
   525  5.24  0.  0.
   526  5.25  0.  0.
   527  5.26  0.  0.
   528  5.27  0.  0.
   529  5.28  0.  0.
   530  5.29  0.  0.
   531  5.30  0.  0.
   532  5.31  0.  0.
   533  5.32  0.  0.
   534  5.33  0.  0.
   535  5.34  0.  0.
   536  5.35  0.  0.
   537  5.36  0.  0.
   538  5.37  0.  0.
   539  5.38  0.  0.
   540  5.39  0.  0.
   541  5.40  0.  0.
   542  5.41  0.  0.
   543  5.42  0.  0.
   544  5.43  0.  0.
   545  5.44  0.  0.
   546  5.45  0.  0.
   547  5.46  0.  0.
   548  5.47  0.  0.
   549  5.48  0.  0.
   550  5.49  0.  0.
   551  5.50  0.  0.
   552  5.51  0.  0.
   553  5.52  0.  0.
   554  5.53  0.  0.
   555  5.54  0.  0.
   556  5.55  0.  0.
   557  5.56  0.  0.
   558  5.57  0.  0.
   559  5.58  0.  0.
   560  5.59  0.  0.
   561  5.60  0.  0.
   562  5.61  0.  0.
   563  5.62  0.  0.
   564  5.63  0.  0.
   565  5.64  0.  0.
   566  5.65  0.  0.
   567  5.66  0.  0.
   568  5.67  0.  0.
   569  5.68  0.  0.
   570  5.69  0.  0.
   571  5.70  0.  0.
   572  5.71  0.  0.
   573  5.72  0.  0.
   574  5.73  0.  0.
   575  5.74  0.  0.
   576  5.75  0.  0.
   577  5.76  0.  0.
   578  5.77  0.  0.
   579  5.78  0.  0.
   580  5.79  0.  0.
   581  5.80  0.  0.
   582  5.81  0.  0.
   583  5.82  0.  0.
   584  5.83  0.  0.
   585  5.84  0.  0.
   586  5.85  0.  0.
   587  5.86  0.  0.
   588  5.87  0.  0.
   589  5.88  0.  0.
   590  5.89  0.  0.
   591  5.90  0.  0.
   592  5.91  0.  0.
   593  5.92  0.  0.
   594  5.93  0.  0.
   595  5.94  0.  0.
   596  5.95  0.  0.
   597  5.96  0.  0.
   598  5.97  0.  0.
   599  5.98  0.  0.
   600  5.99  0.  0.
   1                         7.9480161566165E+00  1.0922173969394E+00
     1  0.0000000000000E+00  1.0327386862352E-09 -3.0136132200820E-09
     2  1.0000000000000E-02  1.6279059946736E-03 -1.0721007663556E-03
     3  2.0000000000000E-02  6.5043882377151E-03 -4.2784045445870E-03
     4  3.0000000000000E-02  1.4607787734436E-02 -9.5890282541258E-03
     5  4.0000000000000E-02  2.5902166328804E-02 -1.6954539960627E-02
     6  5.0000000000000E-02  4.0337544892444E-02 -2.6306512616082E-02
     7  6.0000000000000E-02  5.7850232696646E-02 -3.7558287281919E-02
     8  7.0000000000000E-02  7.8363243955341E-02 -5.0605934068972E-02
     9  8.0000000000000E-02  1.0178679649425E-01 -6.5329396014607E-02
    10  9.0000000000000E-02  1.2801888655112E-01 -8.1593798356351E-02
    11  1.0000000000000E-01  1.5694593285977E-01 -9.9250903201404E-02
    12  1.1000000000000E-01  1.8844348243006E-01 -1.1814068747355E-01
    13  1.2000000000000E-01  2.2237696981929E-01 -1.3809302028088E-01
    14  1.3000000000000E-01  2.5860252120702E-01 -1.5892941451863E-01
    15  1.4000000000000E-01  2.9696779424332E-01 -1.8046482662546E-01
    16  1.5000000000000E-01  3.3731284444436E-01 -2.0250947796304E-01
    17  1.6000000000000E-01  3.7947100886193E-01 -2.2487067129748E-01
    18  1.7000000000000E-01  4.2326979785564E-01 -2.4735457632654E-01
    19  1.8000000000000E-01  4.6853178604429E-01 -2.6976795910995E-01
    20  1.9000000000000E-01  5.1507549390286E-01 -2.9191983160891E-01
    21  2.0000000000000E-01  5.6271625199484E-01 -3.1362299929837E-01
    22  2.1000000000000E-01  6.1126704047731E-01 -3.3469548695448E-01
    23  2.2000000000000E-01  6.6053929727553E-01 -3.5496182520114E-01
    24  2.3000000000000E-01  7.1034368918124E-01 -3.7425418318081E-01
    25  2.4000000000000E-01  7.6049084106834E-01 -3.9241333574694E-01
    26  2.5000000000000E-01  8.1079201942347E-01 -4.0928945680491E-01
    27  2.6000000000000E-01  8.6105976743914E-01 -4.2474273379754E-01
    28  2.7000000000000E-01  9.1110848999363E-01 -4.3864380178033E-01
    29  2.8000000000000E-01  9.6075498792442E-01 -4.5087399899746E-01
    30  2.9000000000000E-01  1.0098189420709E+00 -4.6132544928995E-01
    31  3.0000000000000E-01  1.0581233485963E+00 -4.6990097997920E-01
    32  3.1000000000000E-01  1.1054949080794E+00 -4.7651388701033E-01
    33  3.2000000000000E-01  1.1517643717725E+00 -4.8108756205229E-01
    34  3.3000000000000E-01  1.1967668492404E+00 -4.8355499887888E-01
    35  3.4000000000000E-01  1.2403420823012E+00 -4.8385819864652E-01
    36  3.5000000000000E-01  1.2823346907792E+00 -4.8194749559401E-01
    37  3.6000000000000E-01  1.3225943960306E+00 -4.7778082617857E-01
    38  3.7000000000000E-01  1.3609762285138E+00 -4.7132296569727E-01
    39  3.8000000000000E-01  1.3973407258281E+00 -4.6254475700079E-01
    40  3.9000000000000E-01  1.4315541276501E+00 -4.5142235596914E-01
    41  4.0000000000000E-01  1.4634885738317E+00 -4.3793651798048E-01
    42  4.1000000000000E-01  1.4930223116116E+00 -4.2207194866521E-01
    43  4.2000000000000E-01  1.5200399174191E+00 -4.0381674080841E-01
    44  4.3000000000000E-01  1.5444325381320E+00 -3.8316191736494E-01
    45  4.4000000000000E-01  1.5660981558951E+00 -3.6010109821006E-01
    46  4.5000000000000E-01  1.5849418797287E+00 -3.3463030550303E-01
    47  4.6000000000000E-01  1.6008762661651E+00 -3.0674791943516E-01
    48  4.7000000000000E-01  1.6138216700732E+00 -2.7645479272047E-01
    49  4.8000000000000E-01  1.6237066256768E+00 -2.4375452852539E-01
    50  4.9000000000000E-01  1.6304682565700E+00 -2.0865392268755E-01
    51  5.0000000000000E-01  1.6340527123023E+00 -1.7116356711292E-01
    52  5.1000000000000E-01  1.6344156278687E+00 -1.3129860723730E-01
    53  5.2000000000000E-01  1.6315226012275E+00 -8.9079642467368E-02
    54  5.3000000000000E-01  1.6253496827999E+00 -4.4533754654427E-02
    55  5.4000000000000E-01  1.6158838698038E+00  2.3043540240781E-03
    56  5.5000000000000E-01  1.6031235972740E+00  5.1391135820709E-02
    57  5.6000000000000E-01  1.5870792167291E+00  1.0267290994870E-01
    58  5.7000000000000E-01  1.5677734526994E+00  1.5608454072068E-01
    59  5.8000000000000E-01  1.5452418267381E+00  2.1154811136992E-01
    60  5.9000000000000E-01  1.5195330381223E+00  2.6897162535918E-01
    61  6.0000000000000E-01  1.4907092902218E+00  3.2824776815766E-01
    62  6.1000000000000E-01  1.4588465514917E+00  3.8925276304840E-01
    63  6.2000000000000E-01  1.4240347402236E+00  4.5184535449046E-01
    64  6.3000000000000E-01  1.3863778225890E+00  5.1586595188436E-01
    65  6.4000000000000E-01  1.3459938141190E+00  5.8113596527081E-01
    66  6.5000000000000E-01  1.3030146755855E+00  6.4745736253605E-01
    67  6.6000000000000E-01  1.2575860952753E+00  7.1461247511950E-01
    68  6.7000000000000E-01  1.2098671508717E+00  7.8236407604950E-01
    69  6.8000000000000E-01  1.1600298455534E+00  8.5045575040924E-01
    70  6.9000000000000E-01  1.1082585144889E+00  9.1861257410895E-01
    71  7.0000000000000E-01  1.0547490996006E+00  9.8654211217135E-01
    72  7.1000000000000E-01  9.9970829229692E-01  1.0539357426955E+00
    73  7.2000000000000E-01  9.4335254577598E-01  1.1204703073269E+00
    74  7.3000000000000E-01  8.8590696047509E-01  1.1858100835134E+00
    75  7.4000000000000E-01  8.2760404823583E-01  1.2496090681608E+00
    76  7.5000000000000E-01  7.6868238275075E-01  1.3115135566062E+00
    77  7.6000000000000E-01  7.0938514581456E-01  1.3711649952107E+00
    78  7.7000000000000E-01  6.4995858079037E-01  1.4282030804208E+00
    79  7.8000000000000E-01  5.9065036648647E-01  1.4822690719699E+00
    80  7.9000000000000E-01  5.3170792628751E-01  1.5330092830735E+00
    81  8.0000000000000E-01  4.7337668886671E-01  1.5800787061142E+00
    82  8.1000000000000E-01  4.1589831809283E-01  1.6231447284919E+00
    83  8.2000000000000E-01  3.5950893081116E-01  1.6618908901182E+00
    84  8.3000000000000E-01  3.0443732199900E-01  1.6960206315251E+00
    85  8.4000000000000E-01  2.5090321735263E-01  1.7252609797961E+00
    86  8.5000000000000E-01  1.9911557363916E-01  1.7493661185662E+00
    87  8.6000000000000E-01  1.4927094713200E-01  1.7681207882056E+00
    88  8.7000000000000E-01  1.0155195013492E-01  1.7813434630195E+00
    89  8.8000000000000E-01  5.6125814986228E-02  1.7888892538848E+00
    90  8.9000000000000E-01  1.3143084023082E-02  1.7906524871756E+00
    91  9.0000000000000E-01 -2.7263557215430E-02  1.7865689141053E+00
    92  9.1000000000000E-01 -6.4980287745898E-02  1.7766175086768E+00
    93  9.2000000000000E-01 -9.9912985796374E-02  1.7608218172520E+00
    94  9.3000000000000E-01 -1.3198787827319E-01  1.7392508282485E+00
    95  9.4000000000000E-01 -1.6115199513816E-01  1.7120193365842E+00
    96  9.5000000000000E-01 -1.8737342116259E-01  1.6792877841143E+00
    97  9.6000000000000E-01 -2.1064134003902E-01  1.6412615643630E+00
    98  9.7000000000000E-01 -2.3096586845522E-01  1.5981897872129E+00
    99  9.8000000000000E-01 -2.4837768043081E-01  1.5503635067904E+00
   100  9.9000000000000E-01 -2.6292742494147E-01  1.4981134234305E+00
   101  1.0000000000000E+00 -2.7468494256940E-01  1.4418070782231E+00
   102  1.0100000000000E+00 -2.8373828957565E-01  1.3818455660803E+00
   103  1.0200000000000E+00 -2.9019258035252E-01  1.3186598004337E+00
   104  1.0300000000000E+00 -2.9416866163708E-01  1.2527063694173E+00
   105  1.0400000000000E+00 -2.9580163411108E-01  1.1844630296211E+00
   106  1.0500000000000E+00 -2.9523923904408E-01  1.1144238891015E+00
   107  1.0600000000000E+00 -2.9264012941761E-01  1.0430943362034E+00
   108  1.0700000000000E+00 -2.8817204646814E-01  9.7098577479210E-01
   109  1.0800000000000E+00 -2.8200992378481E-01  8.9861022965648E-01
   110  1.0900000000000E+00 -2.7433394196323E-01  8.2647488803465E-01
   111  1.1000000000000E+00 -2.6532755734250E-01  7.5507664440973E-01
   112  1.1100000000000E+00 -2.5517552852022E-01  6.8489671587879E-01
   113  1.1200000000000E+00 -2.4406196414975E-01  6.1639539450673E-01
   114  1.1300000000000E+00 -2.3216841497072E-01  5.5000700113304E-01
   115  1.1400000000000E+00 -2.1967203212098E-01  4.8613510213928E-01
   116  1.1500000000000E+00 -2.0674381252787E-01  4.2514804671781E-01
   117  1.1600000000000E+00 -1.9354695061041E-01  3.6737487730382E-01
   118  1.1700000000000E+00 -1.8023531364880E-01  3.1310166006092E-01
   119  1.1800000000000E+00 -1.6695205603804E-01  2.6256827578420E-01
   120  1.1900000000000E+00 -1.5382838525928E-01  2.1596570436111E-01
   121  1.2000000000000E+00 -1.4098248981558E-01  1.7343382813160E-01
   122  1.2100000000000E+00 -1.2851863664104E-01  1.3505977127255E-01
   123  1.2200000000000E+00 -1.1652644261623E-01  1.0087678373295E-01
   124  1.2300000000000E+00 -1.0508032189071E-01  7.0863669489081E-02
   125  1.2400000000000E+00 -9.4239107106974E-02  4.4944746981266E-02
   126  1.2500000000000E+00 -8.4045847770628E-02  2.2990360815215E-02
   127  1.2600000000000E+00 -7.4527810862823E-02  4.8180832705527E-03
   128  1.2700000000000E+00 -6.5698049937202E-02 -9.7986404570574E-03
   129  1.2800000000000E+00 -5.7558194022480E-02 -2.1116873645918E-02
   130  1.2900000000000E+00 -5.0099917218230E-02 -2.9418209134538E-02
   131  1.3000000000000E+00 -4.3306202843780E-02 -3.5004177382065E-02
   132  1.3100000000000E+00 -3.7152714291099E-02 -3.8191364746338E-02
   133  1.3200000000000E+00 -3.1609246406060E-02 -3.9306329519934E-02
   134  1.3300000000000E+00 -2.6641234634539E-02 -3.8680383392345E-02
   135  1.3400000000000E+00 -2.2211297532272E-02 -3.6644312521286E-02
   136  1.3500000000000E+00 -1.8280787894674E-02 -3.3523113013151E-02
   137  1.3600000000000E+00 -1.4811325458412E-02 -2.9630820501300E-02