Mo    ONCVPSP-4.0.1  r_core=   1.45401   1.45401   1.35329
     42.0000     14.0000      250925    zatom,zion,pspd
     8   -1012   2     4   600     0    pspcod,pspxc,lmax,lloc,mmax,r2well
  5.99000000  3.00000000  0.00000000    rchrg fchrg qchrg
     2     2     2     0    nproj
     3     1           extension_switch
     4     3     0    nprojso
   0                         1.3461061096530E+01  1.2581063886751E+00
     1  0.0000000000000E+00 -1.6542905934003E-10  8.3307732934301E-10
     2  1.0000000000000E-02  5.7376663052290E-02 -2.7794680390492E-02
     3  2.0000000000000E-02  1.1467803036717E-01 -5.5472333885382E-02
     4  3.0000000000000E-02  1.7182892527260E-01 -8.2916743486869E-02
     5  4.0000000000000E-02  2.2875440734651E-01 -1.1001329911780E-01
     6  5.0000000000000E-02  2.8537988588294E-01 -1.3664976911085E-01
     7  6.0000000000000E-02  3.4163122788776E-01 -1.6271703393482E-01
     8  7.0000000000000E-02  3.9743485897851E-01 -1.8810977056448E-01
     9  8.0000000000000E-02  4.5271785572845E-01 -2.1272707673391E-01
    10  9.0000000000000E-02  5.0740802819619E-01 -2.3647302533048E-01
    11  1.0000000000000E-01  5.6143399161635E-01 -2.5925714037369E-01
    12  1.1000000000000E-01  6.1472522648907E-01 -2.8099478736138E-01
    13  1.2000000000000E-01  6.6721212659276E-01 -3.0160747223458E-01
    14  1.3000000000000E-01  7.1882603474934E-01 -3.2102304479043E-01
    15  1.4000000000000E-01  7.6949926649049E-01 -3.3917580403412E-01
    16  1.5000000000000E-01  8.1916512209932E-01 -3.5600650468198E-01
    17  1.6000000000000E-01  8.6775788783050E-01 -3.7146226577993E-01
    18  1.7000000000000E-01  9.1521282743549E-01 -3.8549638415838E-01
    19  1.8000000000000E-01  9.6146616543292E-01 -3.9806805717803E-01
    20  1.9000000000000E-01  1.0064550638611E+00 -4.0914202090218E-01
    21  2.0000000000000E-01  1.0501175945232E+00 -4.1868811143409E-01
    22  2.1000000000000E-01  1.0923927089827E+00 -4.2668075865459E-01
    23  2.2000000000000E-01  1.1332202087766E+00 -4.3309842296093E-01
    24  2.3000000000000E-01  1.1725407184901E+00 -4.3792298681890E-01
    25  2.4000000000000E-01  1.2102956644643E+00 -4.4113911397415E-01
    26  2.5000000000000E-01  1.2464272619908E+00 -4.4273359000609E-01
    27  2.6000000000000E-01  1.2808785138831E+00 -4.4269465853246E-01
    28  2.7000000000000E-01  1.3135932232893E+00 -4.4101136776931E-01
    29  2.8000000000000E-01  1.3445160235383E+00 -4.3767294230998E-01
    30  2.9000000000000E-01  1.3735924276797E+00 -4.3266819489934E-01
    31  3.0000000000000E-01  1.4007689001890E+00 -4.2598499264350E-01
    32  3.1000000000000E-01  1.4259929530690E+00 -4.1760979150793E-01
    33  3.2000000000000E-01  1.4492132682823E+00 -4.0752725212444E-01
    34  3.3000000000000E-01  1.4703798481005E+00 -3.9571994885509E-01
    35  3.4000000000000E-01  1.4894441945656E+00 -3.8216818276107E-01
    36  3.5000000000000E-01  1.5063595188174E+00 -3.6684990761087E-01
    37  3.6000000000000E-01  1.5210809805674E+00 -3.4974077635368E-01
    38  3.7000000000000E-01  1.5335659574919E+00 -3.3081431360128E-01
    39  3.8000000000000E-01  1.5437743437826E+00 -3.1004221763129E-01
    40  3.9000000000000E-01  1.5516688765416E+00 -2.8739479327191E-01
    41  4.0000000000000E-01  1.5572154881468E+00 -2.6284151478528E-01
    42  4.1000000000000E-01  1.5603836821453E+00 -2.3635171556371E-01
    43  4.2000000000000E-01  1.5611469296785E+00 -2.0789539912563E-01
    44  4.3000000000000E-01  1.5594830828947E+00 -1.7744416357999E-01
    45  4.4000000000000E-01  1.5553748012866E+00 -1.4497222945552E-01
    46  4.5000000000000E-01  1.5488099864046E+00 -1.1045755860094E-01
    47  4.6000000000000E-01  1.5397822199477E+00 -7.3883049788606E-02
    48  4.7000000000000E-01  1.5282911998395E+00 -3.5237794733750E-02
    49  4.8000000000000E-01  1.5143431685545E+00  5.4816234935851E-03
    50  4.9000000000000E-01  1.4979513276899E+00  4.8269809203794E-02
    51  5.0000000000000E-01  1.4791362325682E+00  9.3111230779356E-02
    52  5.1000000000000E-01  1.4579261605370E+00  1.3997891712983E-01
    53  5.2000000000000E-01  1.4343574465836E+00  1.8883319641525E-01
    54  5.3000000000000E-01  1.4084747799279E+00  2.3962049992783E-01
    55  5.4000000000000E-01  1.3803314553871E+00  2.9227225407417E-01
    56  5.5000000000000E-01  1.3499895735300E+00  3.4670388311069E-01
    57  5.6000000000000E-01  1.3175201839505E+00  4.0281394464793E-01
    58  5.7000000000000E-01  1.2830033663952E+00  4.6048341895361E-01
    59  5.8000000000000E-01  1.2465282449713E+00  5.1957517175337E-01
    60  5.9000000000000E-01  1.2081929312393E+00  5.7993360856247E-01
    61  6.0000000000000E-01  1.1681043926467E+00  6.4138453659432E-01
    62  6.1000000000000E-01  1.1263782434956E+00  7.0373524800403E-01
    63  6.2000000000000E-01  1.0831384564256E+00  7.6677483565931E-01
    64  6.3000000000000E-01  1.0385169932531E+00  8.3027474981883E-01
    65  6.4000000000000E-01  9.9265335490534E-01  8.9398960107057E-01
    66  6.5000000000000E-01  9.4569405112995E-01  9.5765821167958E-01
    67  6.6000000000000E-01  8.9779199162272E-01  1.0210049141551E+00
    68  6.7000000000000E-01  8.4910580119858E-01  1.0837410924163E+00
    69  6.8000000000000E-01  7.9979906260860E-01  1.1455669574616E+00
    70  6.9000000000000E-01  7.5003949157565E-01  1.2061735459721E+00
    71  7.0000000000000E-01  6.9999804956444E-01  1.2652449268637E+00
    72  7.1000000000000E-01  6.4984800070694E-01  1.3224605974840E+00
    73  7.2000000000000E-01  5.9976392015777E-01  1.3774980479884E+00
    74  7.3000000000000E-01  5.4992066194385E-01  1.4300354694648E+00
    75  7.4000000000000E-01  5.0049229508555E-01  1.4797545786661E+00
    76  7.5000000000000E-01  4.5165101739212E-01  1.5263435297835E+00
    77  7.6000000000000E-01  4.0356605686103E-01  1.5694998816096E+00
    78  7.7000000000000E-01  3.5640257103019E-01  1.6089335867198E+00
    79  7.8000000000000E-01  3.1032055493515E-01  1.6443699679888E+00
    80  7.9000000000000E-01  2.6547376850414E-01  1.6755526468778E+00
    81  8.0000000000000E-01  2.2200869427649E-01  1.7022463874975E+00
    82  8.1000000000000E-01  1.8006353625096E-01  1.7242398204950E+00
    83  8.2000000000000E-01  1.3976727045882E-01  1.7413480113324E+00
    84  8.3000000000000E-01  1.0123875751062E-01  1.7534148385278E+00
    85  8.4000000000000E-01  6.4585926888868E-02  1.7603151489099E+00
    86  8.5000000000000E-01  2.9905042153618E-02  1.7619566588854E+00
    87  8.6000000000000E-01 -2.7199444990904E-03  1.7582815731165E+00
    88  8.7000000000000E-01 -3.3217940728920E-02  1.7492678948278E+00
    89  8.8000000000000E-01 -6.1531158944441E-02  1.7349304051777E+00
    90  8.9000000000000E-01 -8.7615451993644E-02  1.7153212927038E+00
    91  9.0000000000000E-01 -1.1144053517500E-01  1.6905304177348E+00
    92  9.1000000000000E-01 -1.3299009128989E-01  1.6606852008129E+00
    93  9.2000000000000E-01 -1.5226175670965E-01  1.6259501285343E+00
    94  9.3000000000000E-01 -1.6926698772289E-01  1.5865258747287E+00
    95  9.4000000000000E-01 -1.8403080774320E-01  1.5426480395117E+00
    96  9.5000000000000E-01 -1.9659143727882E-01  1.4945855133865E+00
    97  9.6000000000000E-01 -2.0699980987480E-01  1.4426384781813E+00
    98  9.7000000000000E-01 -2.1531897851857E-01  1.3871360611233E+00
    99  9.8000000000000E-01 -2.2162341823366E-01  1.3284336627020E+00
   100  9.9000000000000E-01 -2.2599823175693E-01  1.2669099831067E+00
   101  1.0000000000000E+00 -2.2853826628564E-01  1.2029637758659E+00
   102  1.0100000000000E+00 -2.2934715027605E-01  1.1370103608221E+00
   103  1.0200000000000E+00 -2.2853626016257E-01  1.0694779316868E+00
   104  1.0300000000000E+00 -2.2622362763052E-01  1.0008036960852E+00
   105  1.0400000000000E+00 -2.2253279870637E-01  9.3142988818476E-01
   106  1.0500000000000E+00 -2.1759165641759E-01  8.6179969566385E-01
   107  1.0600000000000E+00 -2.1153121911101E-01  7.9235314388690E-01
   108  1.0700000000000E+00 -2.0448442669932E-01  7.2352298069344E-01
   109  1.0800000000000E+00 -1.9658492712596E-01  6.5573060516443E-01
   110  1.0900000000000E+00 -1.8796587519781E-01  5.8938208309355E-01
   111  1.1000000000000E+00 -1.7875875563461E-01  5.2486429067069E-01
   112  1.1100000000000E+00 -1.6909224172470E-01  4.6254122608631E-01
   113  1.1200000000000E+00 -1.5909110036835E-01  4.0275052641585E-01
   114  1.1300000000000E+00 -1.4887515353363E-01  3.4580022425958E-01
   115  1.1400000000000E+00 -1.3855830526369E-01  2.9196577524953E-01
   116  1.1500000000000E+00 -1.2824764236005E-01  2.4148738370802E-01
   117  1.1600000000000E+00 -1.1804261574836E-01  1.9456764953672E-01
   118  1.1700000000000E+00 -1.0803430831536E-01  1.5136955484777E-01
   119  1.1800000000000E+00 -9.8304793714461E-02  1.1201480401967E-01
   120  1.1900000000000E+00 -8.8926589283350E-02  7.6582525806630E-02
   121  1.2000000000000E+00 -7.9962204820688E-02  4.5108340930390E-02
   122  1.2100000000000E+00 -7.1463787555237E-02  1.7583793330892E-02
   123  1.2200000000000E+00 -6.3472862214622E-02 -6.0438620360910E-03
   124  1.2300000000000E+00 -5.6020163694417E-02 -2.5871527186558E-02
   125  1.2400000000000E+00 -4.9125557881954E-02 -4.2039805404813E-02
   126  1.2500000000000E+00 -4.2798052239103E-02 -5.4732206656997E-02
   127  1.2600000000000E+00 -3.7035919345128E-02 -6.4173873302770E-02
   128  1.2700000000000E+00 -3.1828177984223E-02 -7.0622963003870E-02
   129  1.2800000000000E+00 -2.7157071895413E-02 -7.4357225130949E-02
   130  1.2900000000000E+00 -2.2999231162198E-02 -7.5668576878369E-02
   131  1.3000000000000E+00 -1.9326576266417E-02 -7.4859282627197E-02
   132  1.3100000000000E+00 -1.6107261204824E-02 -7.2238010192434E-02
   133  1.3200000000000E+00 -1.3306639526787E-02 -6.8115830760430E-02
   134  1.3300000000000E+00 -1.0888241109191E-02 -6.2802206620734E-02
   135  1.3400000000000E+00 -8.8147466363767E-03 -5.6601015410269E-02
   136  1.3500000000000E+00 -7.0489469311210E-03 -4.9806658679439E-02
   137  1.3600000000000E+00 -5.5546724505817E-03 -4.2700307314674E-02
   138  1.3700000000000E+00 -4.2976971887434E-03 -3.5546283978877E-02
   139  1.3800000000000E+00 -3.2465511086572E-03 -2.8588784367171E-02
   140  1.3900000000000E+00 -2.3781000202159E-03 -2.2035608019473E-02
   141  1.4000000000000E+00 -1.6737465602077E-03 -1.6067008684536E-02
   142  1.4100000000000E+00 -1.1097364110388E-03 -1.0862057520739E-02
   143  1.4200000000000E+00 -6.6868418195292E-04 -6.5672783603191E-03
   144  1.4300000000000E+00 -3.3981165274326E-04 -3.2959642252106E-03
   145  1.4400000000000E+00 -1.1849123559089E-04 -1.1182454378921E-03
   146  1.4500000000000E+00 -1.2392336251436E-05 -1.1190998205250E-04
   147  1.4600000000000E+00  1.5786353831479E-06  1.3936005492682E-05
   148  1.4700000000000E+00 -3.2151638708491E-07 -2.9020151178889E-06
   149  1.48  0.  0.
   150  1.49  0.  0.
   151  1.50  0.  0.
   152  1.51  0.  0.
   153  1.52  0.  0.
   154  1.53  0.  0.
   155  1.54  0.  0.
   156  1.55  0.  0.
   157  1.56  0.  0.
   158  1.57  0.  0.
   159  1.58  0.  0.
   160  1.59  0.  0.
   161  1.60  0.  0.
   162  1.61  0.  0.
   163  1.62  0.  0.
   164  1.63  0.  0.
   165  1.64  0.  0.
   166  1.65  0.  0.
   167  1.66  0.  0.
   168  1.67  0.  0.
   169  1.68  0.  0.
   170  1.69  0.  0.
   171  1.70  0.  0.
   172  1.71  0.  0.
   173  1.72  0.  0.
   174  1.73  0.  0.
   175  1.74  0.  0.
   176  1.75  0.  0.
   177  1.76  0.  0.
   178  1.77  0.  0.
   179  1.78  0.  0.
   180  1.79  0.  0.
   181  1.80  0.  0.
   182  1.81  0.  0.
   183  1.82  0.  0.
   184  1.83  0.  0.
   185  1.84  0.  0.
   186  1.85  0.  0.
   187  1.86  0.  0.
   188  1.87  0.  0.
   189  1.88  0.  0.
   190  1.89  0.  0.
   191  1.90  0.  0.
   192  1.91  0.  0.
   193  1.92  0.  0.
   194  1.93  0.  0.
   195  1.94  0.  0.
   196  1.95  0.  0.
   197  1.96  0.  0.
   198  1.97  0.  0.
   199  1.98  0.  0.
   200  1.99  0.  0.
   201  2.00  0.  0.
   202  2.01  0.  0.
   203  2.02  0.  0.
   204  2.03  0.  0.
   205  2.04  0.  0.
   206  2.05  0.  0.
   207  2.06  0.  0.
   208  2.07  0.  0.
   209  2.08  0.  0.
   210  2.09  0.  0.
   211  2.10  0.  0.
   212  2.11  0.  0.
   213  2.12  0.  0.
   214  2.13  0.  0.
   215  2.14  0.  0.
   216  2.15  0.  0.
   217  2.16  0.  0.
   218  2.17  0.  0.
   219  2.18  0.  0.
   220  2.19  0.  0.
   221  2.20  0.  0.
   222  2.21  0.  0.
   223  2.22  0.  0.
   224  2.23  0.  0.
   225  2.24  0.  0.
   226  2.25  0.  0.
   227  2.26  0.  0.
   228  2.27  0.  0.
   229  2.28  0.  0.
   230  2.29  0.  0.
   231  2.30  0.  0.
   232  2.31  0.  0.
   233  2.32  0.  0.
   234  2.33  0.  0.
   235  2.34  0.  0.
   236  2.35  0.  0.
   237  2.36  0.  0.
   238  2.37  0.  0.
   239  2.38  0.  0.
   240  2.39  0.  0.
   241  2.40  0.  0.
   242  2.41  0.  0.
   243  2.42  0.  0.
   244  2.43  0.  0.
   245  2.44  0.  0.
   246  2.45  0.  0.
   247  2.46  0.  0.
   248  2.47  0.  0.
   249  2.48  0.  0.
   250  2.49  0.  0.
   251  2.50  0.  0.
   252  2.51  0.  0.
   253  2.52  0.  0.
   254  2.53  0.  0.
   255  2.54  0.  0.
   256  2.55  0.  0.
   257  2.56  0.  0.
   258  2.57  0.  0.
   259  2.58  0.  0.
   260  2.59  0.  0.
   261  2.60  0.  0.
   262  2.61  0.  0.
   263  2.62  0.  0.
   264  2.63  0.  0.
   265  2.64  0.  0.
   266  2.65  0.  0.
   267  2.66  0.  0.
   268  2.67  0.  0.
   269  2.68  0.  0.
   270  2.69  0.  0.
   271  2.70  0.  0.
   272  2.71  0.  0.
   273  2.72  0.  0.
   274  2.73  0.  0.
   275  2.74  0.  0.
   276  2.75  0.  0.
   277  2.76  0.  0.
   278  2.77  0.  0.
   279  2.78  0.  0.
   280  2.79  0.  0.
   281  2.80  0.  0.
   282  2.81  0.  0.
   283  2.82  0.  0.
   284  2.83  0.  0.
   285  2.84  0.  0.
   286  2.85  0.  0.
   287  2.86  0.  0.
   288  2.87  0.  0.
   289  2.88  0.  0.
   290  2.89  0.  0.
   291  2.90  0.  0.
   292  2.91  0.  0.
   293  2.92  0.  0.
   294  2.93  0.  0.
   295  2.94  0.  0.
   296  2.95  0.  0.
   297  2.96  0.  0.
   298  2.97  0.  0.
   299  2.98  0.  0.
   300  2.99  0.  0.
   301  3.00  0.  0.
   302  3.01  0.  0.
   303  3.02  0.  0.
   304  3.03  0.  0.
   305  3.04  0.  0.
   306  3.05  0.  0.
   307  3.06  0.  0.
   308  3.07  0.  0.
   309  3.08  0.  0.
   310  3.09  0.  0.
   311  3.10  0.  0.
   312  3.11  0.  0.
   313  3.12  0.  0.
   314  3.13  0.  0.
   315  3.14  0.  0.
   316  3.15  0.  0.
   317  3.16  0.  0.
   318  3.17  0.  0.
   319  3.18  0.  0.
   320  3.19  0.  0.
   321  3.20  0.  0.
   322  3.21  0.  0.
   323  3.22  0.  0.
   324  3.23  0.  0.
   325  3.24  0.  0.
   326  3.25  0.  0.
   327  3.26  0.  0.
   328  3.27  0.  0.
   329  3.28  0.  0.
   330  3.29  0.  0.
   331  3.30  0.  0.
   332  3.31  0.  0.
   333  3.32  0.  0.
   334  3.33  0.  0.
   335  3.34  0.  0.
   336  3.35  0.  0.
   337  3.36  0.  0.
   338  3.37  0.  0.
   339  3.38  0.  0.
   340  3.39  0.  0.
   341  3.40  0.  0.
   342  3.41  0.  0.
   343  3.42  0.  0.
   344  3.43  0.  0.
   345  3.44  0.  0.
   346  3.45  0.  0.
   347  3.46  0.  0.
   348  3.47  0.  0.
   349  3.48  0.  0.
   350  3.49  0.  0.
   351  3.50  0.  0.
   352  3.51  0.  0.
   353  3.52  0.  0.
   354  3.53  0.  0.
   355  3.54  0.  0.
   356  3.55  0.  0.
   357  3.56  0.  0.
   358  3.57  0.  0.
   359  3.58  0.  0.
   360  3.59  0.  0.
   361  3.60  0.  0.
   362  3.61  0.  0.
   363  3.62  0.  0.
   364  3.63  0.  0.
   365  3.64  0.  0.
   366  3.65  0.  0.
   367  3.66  0.  0.
   368  3.67  0.  0.
   369  3.68  0.  0.
   370  3.69  0.  0.
   371  3.70  0.  0.
   372  3.71  0.  0.
   373  3.72  0.  0.
   374  3.73  0.  0.
   375  3.74  0.  0.
   376  3.75  0.  0.
   377  3.76  0.  0.
   378  3.77  0.  0.
   379  3.78  0.  0.
   380  3.79  0.  0.
   381  3.80  0.  0.
   382  3.81  0.  0.
   383  3.82  0.  0.
   384  3.83  0.  0.
   385  3.84  0.  0.
   386  3.85  0.  0.
   387  3.86  0.  0.
   388  3.87  0.  0.
   389  3.88  0.  0.
   390  3.89  0.  0.
   391  3.90  0.  0.
   392  3.91  0.  0.
   393  3.92  0.  0.
   394  3.93  0.  0.
   395  3.94  0.  0.
   396  3.95  0.  0.
   397  3.96  0.  0.
   398  3.97  0.  0.
   399  3.98  0.  0.
   400  3.99  0.  0.
   401  4.00  0.  0.
   402  4.01  0.  0.
   403  4.02  0.  0.
   404  4.03  0.  0.
   405  4.04  0.  0.
   406  4.05  0.  0.
   407  4.06  0.  0.
   408  4.07  0.  0.
   409  4.08  0.  0.
   410  4.09  0.  0.
   411  4.10  0.  0.
   412  4.11  0.  0.
   413  4.12  0.  0.
   414  4.13  0.  0.
   415  4.14  0.  0.
   416  4.15  0.  0.
   417  4.16  0.  0.
   418  4.17  0.  0.
   419  4.18  0.  0.
   420  4.19  0.  0.
   421  4.20  0.  0.
   422  4.21  0.  0.
   423  4.22  0.  0.
   424  4.23  0.  0.
   425  4.24  0.  0.
   426  4.25  0.  0.
   427  4.26  0.  0.
   428  4.27  0.  0.
   429  4.28  0.  0.
   430  4.29  0.  0.
   431  4.30  0.  0.
   432  4.31  0.  0.
   433  4.32  0.  0.
   434  4.33  0.  0.
   435  4.34  0.  0.
   436  4.35  0.  0.
   437  4.36  0.  0.
   438  4.37  0.  0.
   439  4.38  0.  0.
   440  4.39  0.  0.
   441  4.40  0.  0.
   442  4.41  0.  0.
   443  4.42  0.  0.
   444  4.43  0.  0.
   445  4.44  0.  0.
   446  4.45  0.  0.
   447  4.46  0.  0.
   448  4.47  0.  0.
   449  4.48  0.  0.
   450  4.49  0.  0.
   451  4.50  0.  0.
   452  4.51  0.  0.
   453  4.52  0.  0.
   454  4.53  0.  0.
   455  4.54  0.  0.
   456  4.55  0.  0.
   457  4.56  0.  0.
   458  4.57  0.  0.
   459  4.58  0.  0.
   460  4.59  0.  0.
   461  4.60  0.  0.
   462  4.61  0.  0.
   463  4.62  0.  0.
   464  4.63  0.  0.
   465  4.64  0.  0.
   466  4.65  0.  0.
   467  4.66  0.  0.
   468  4.67  0.  0.
   469  4.68  0.  0.
   470  4.69  0.  0.
   471  4.70  0.  0.
   472  4.71  0.  0.
   473  4.72  0.  0.
   474  4.73  0.  0.
   475  4.74  0.  0.
   476  4.75  0.  0.
   477  4.76  0.  0.
   478  4.77  0.  0.
   479  4.78  0.  0.
   480  4.79  0.  0.
   481  4.80  0.  0.
   482  4.81  0.  0.
   483  4.82  0.  0.
   484  4.83  0.  0.
   485  4.84  0.  0.
   486  4.85  0.  0.
   487  4.86  0.  0.
   488  4.87  0.  0.
   489  4.88  0.  0.
   490  4.89  0.  0.
   491  4.90  0.  0.
   492  4.91  0.  0.
   493  4.92  0.  0.
   494  4.93  0.  0.
   495  4.94  0.  0.
   496  4.95  0.  0.
   497  4.96  0.  0.
   498  4.97  0.  0.
   499  4.98  0.  0.
   500  4.99  0.  0.
   501  5.00  0.  0.
   502  5.01  0.  0.
   503  5.02  0.  0.
   504  5.03  0.  0.
   505  5.04  0.  0.
   506  5.05  0.  0.
   507  5.06  0.  0.
   508  5.07  0.  0.
   509  5.08  0.  0.
   510  5.09  0.  0.
   511  5.10  0.  0.
   512  5.11  0.  0.
   513  5.12  0.  0.
   514  5.13  0.  0.
   515  5.14  0.  0.
   516  5.15  0.  0.
   517  5.16  0.  0.
   518  5.17  0.  0.
   519  5.18  0.  0.
   520  5.19  0.  0.
   521  5.20  0.  0.
   522  5.21  0.  0.
   523  5.22  0.  0.
   524  5.23  0.  0.
   525  5.24  0.  0.
   526  5.25  0.  0.
   527  5.26  0.  0.
   528  5.27  0.  0.
   529  5.28  0.  0.
   530  5.29  0.  0.
   531  5.30  0.  0.
   532  5.31  0.  0.
   533  5.32  0.  0.
   534  5.33  0.  0.
   535  5.34  0.  0.
   536  5.35  0.  0.
   537  5.36  0.  0.
   538  5.37  0.  0.
   539  5.38  0.  0.
   540  5.39  0.  0.
   541  5.40  0.  0.
   542  5.41  0.  0.
   543  5.42  0.  0.
   544  5.43  0.  0.
   545  5.44  0.  0.
   546  5.45  0.  0.
   547  5.46  0.  0.
   548  5.47  0.  0.
   549  5.48  0.  0.
   550  5.49  0.  0.
   551  5.50  0.  0.
   552  5.51  0.  0.
   553  5.52  0.  0.
   554  5.53  0.  0.
   555  5.54  0.  0.
   556  5.55  0.  0.
   557  5.56  0.  0.
   558  5.57  0.  0.
   559  5.58  0.  0.
   560  5.59  0.  0.
   561  5.60  0.  0.
   562  5.61  0.  0.
   563  5.62  0.  0.
   564  5.63  0.  0.
   565  5.64  0.  0.
   566  5.65  0.  0.
   567  5.66  0.  0.
   568  5.67  0.  0.
   569  5.68  0.  0.
   570  5.69  0.  0.
   571  5.70  0.  0.
   572  5.71  0.  0.
   573  5.72  0.  0.
   574  5.73  0.  0.
   575  5.74  0.  0.
   576  5.75  0.  0.
   577  5.76  0.  0.
   578  5.77  0.  0.
   579  5.78  0.  0.
   580  5.79  0.  0.
   581  5.80  0.  0.
   582  5.81  0.  0.
   583  5.82  0.  0.
   584  5.83  0.  0.
   585  5.84  0.  0.
   586  5.85  0.  0.
   587  5.86  0.  0.
   588  5.87  0.  0.
   589  5.88  0.  0.
   590  5.89  0.  0.
   591  5.90  0.  0.
   592  5.91  0.  0.
   593  5.92  0.  0.
   594  5.93  0.  0.
   595  5.94  0.  0.
   596  5.95  0.  0.
   597  5.96  0.  0.
   598  5.97  0.  0.
   599  5.98  0.  0.
   600  5.99  0.  0.
   1                         7.9478566712738E+00  1.0922130665719E+00
     1  0.0000000000000E+00  1.0319765042510E-09 -3.0110634402503E-09
     2  1.0000000000000E-02  1.6277450241543E-03 -1.0717145958309E-03
     3  2.0000000000000E-02  6.5037464727131E-03 -4.2768661467613E-03
     4  3.0000000000000E-02  1.4606351673672E-02 -9.5855903325767E-03
     5  4.0000000000000E-02  2.5899632914062E-02 -1.6948486179306E-02
     6  5.0000000000000E-02  4.0333625488262E-02 -2.6297169343711E-02
     7  6.0000000000000E-02  5.7844656875918E-02 -3.7545034707998E-02
     8  7.0000000000000E-02  7.8355763040196E-02 -5.0588216527784E-02
     9  8.0000000000000E-02  1.0177718680512E-01 -6.5306731365277E-02
    10  9.0000000000000E-02  1.2800695232115E-01 -8.1565786280948E-02
    11  1.0000000000000E-01  1.5693150877641E-01 -9.9217232298961E-02
    12  1.1000000000000E-01  1.8842643577131E-01 -1.1810114104554E-01
    13  1.2000000000000E-01  2.2235720215747E-01 -1.3804748072294E-01
    14  1.3000000000000E-01  2.5857996965963E-01 -1.5887786625402E-01
    15  1.4000000000000E-01  2.9694243225661E-01 -1.8040735753667E-01
    16  1.5000000000000E-01  3.3728468210206E-01 -2.0244627930059E-01
    17  1.6000000000000E-01  3.7944009271848E-01 -2.2480203606694E-01
    18  1.7000000000000E-01  4.2323621029964E-01 -2.4728089617714E-01
    19  1.8000000000000E-01  4.6849564420490E-01 -2.6968971977039E-01
    20  1.9000000000000E-01  5.1503694811794E-01 -2.9183760693680E-01
    21  2.0000000000000E-01  5.6267548386604E-01 -3.1353744403039E-01
    22  2.1000000000000E-01  6.1122426054264E-01 -3.3460732826306E-01
    23  2.2000000000000E-01  6.6049474233549E-01 -3.5487185318093E-01
    24  2.3000000000000E-01  7.1029761931913E-01 -3.7416324040371E-01
    25  2.4000000000000E-01  7.6044353640920E-01 -3.9232230603786E-01
    26  2.5000000000000E-01  8.1074377667975E-01 -4.0919925340158E-01
    27  2.6000000000000E-01  8.6101089629356E-01 -4.2465428706659E-01
    28  2.7000000000000E-01  9.1105930937157E-01 -4.3855804666768E-01
    29  2.8000000000000E-01  9.6070582220927E-01 -4.5079186239483E-01
    30  2.9000000000000E-01  1.0097701173159E+00 -4.6124783749997E-01
    31  3.0000000000000E-01  1.0580751887860E+00 -4.6982876645961E-01
    32  3.1000000000000E-01  1.1054477314920E+00 -4.7644790057314E-01
    33  3.2000000000000E-01  1.1517184874929E+00 -4.8102857568651E-01
    34  3.3000000000000E-01  1.1967225538702E+00 -4.8350371935579E-01
    35  3.4000000000000E-01  1.2402996569088E+00 -4.8381525705402E-01
    36  3.5000000000000E-01  1.2822943981283E+00 -4.8191343893267E-01
    37  3.6000000000000E-01  1.3225564781214E+00 -4.7775611013544E-01
    38  3.7000000000000E-01  1.3609409044653E+00 -4.7130794869588E-01
    39  3.8000000000000E-01  1.3973081901247E+00 -4.6253969560612E-01
    40  3.9000000000000E-01  1.4315245487692E+00 -4.5142740170605E-01
    41  4.0000000000000E-01  1.4634620932636E+00 -4.3795171560278E-01
    42  4.1000000000000E-01  1.4929990432756E+00 -4.2209723589074E-01
    43  4.2000000000000E-01  1.5200199474748E+00 -4.0385194951356E-01
    44  4.3000000000000E-01  1.5444159251768E+00 -3.8320677621046E-01
    45  4.4000000000000E-01  1.5660849315357E+00 -3.6015523664863E-01
    46  4.5000000000000E-01  1.5849320495046E+00 -3.3469325909891E-01
    47  4.6000000000000E-01  1.6008698108016E+00 -3.0681913640694E-01
    48  4.7000000000000E-01  1.6138185470318E+00 -2.7653364160037E-01
    49  4.8000000000000E-01  1.6237067709703E+00 -2.4384030681245E-01
    50  4.9000000000000E-01  1.6304715868040E+00 -2.0874586635820E-01
    51  5.0000000000000E-01  1.6340591269018E+00 -1.7126086084057E-01
    52  5.1000000000000E-01  1.6344250114470E+00 -1.3140039516314E-01
    53  5.2000000000000E-01  1.6315348260527E+00 -8.9185039357833E-02
    54  5.3000000000000E-01  1.6253646113128E+00 -4.4641857276275E-02
    55  5.4000000000000E-01  1.6159013571425E+00  2.1944554816614E-03
    56  5.5000000000000E-01  1.6031434937596E+00  5.1280346446353E-02
    57  5.6000000000000E-01  1.5871013702698E+00  1.0256211909734E-01
    58  5.7000000000000E-01  1.5677977110720E+00  1.5597461144964E-01
    59  5.8000000000000E-01  1.5452680397090E+00  2.1143987047326E-01
    60  5.9000000000000E-01  1.5195610593732E+00  2.6886585413984E-01
    61  6.0000000000000E-01  1.4907389790514E+00  3.2814519406368E-01
    62  6.1000000000000E-01  1.4588777742660E+00  3.8915405228418E-01
    63  6.2000000000000E-01  1.4240673715565E+00  4.5175110569747E-01
    64  6.3000000000000E-01  1.3864117462374E+00  5.1577669096726E-01
    65  6.4000000000000E-01  1.3460289235835E+00  5.8105214142582E-01
    66  6.5000000000000E-01  1.3030508744134E+00  6.4737934551827E-01
    67  6.6000000000000E-01  1.2576232970686E+00  7.1454055376558E-01
    68  6.7000000000000E-01  1.2099052790080E+00  7.8229845805146E-01
    69  6.8000000000000E-01  1.1600688326346E+00  8.5039656331497E-01
    70  6.9000000000000E-01  1.1082983015353E+00  9.1855986750544E-01
    71  7.0000000000000E-01  1.0547896350159E+00  9.8649586098788E-01
    72  7.1000000000000E-01  9.9974953063152E-01  1.0538958515464E+00
    73  7.2000000000000E-01  9.4339444632209E-01  1.1204366157976E+00
    74  7.3000000000000E-01  8.8594948572816E-01  1.1857823722801E+00
    75  7.4000000000000E-01  8.2764716226136E-01  1.2495870658200E+00
    76  7.5000000000000E-01  7.6872604949625E-01  1.3114969470824E+00
    77  7.6000000000000E-01  7.0942932740785E-01  1.3711534256025E+00
    78  7.7000000000000E-01  6.5000323586584E-01  1.4281961691388E+00
    79  7.8000000000000E-01  5.9069544858018E-01  1.4822664170200E+00
    80  7.9000000000000E-01  5.3175338234091E-01  1.5330104703375E+00
    81  8.0000000000000E-01  4.7342245787665E-01  1.5800833174815E+00
    82  8.1000000000000E-01  4.1594432994265E-01  1.6231523497039E+00
    83  8.2000000000000E-01  3.5955510531434E-01  1.6619011181916E+00
    84  8.3000000000000E-01  3.0448356818264E-01  1.6960330816311E+00
    85  8.4000000000000E-01  2.5094943300336E-01  1.7252752914854E+00
    86  8.5000000000000E-01  1.9916164512902E-01  1.7493819612421E+00
    87  8.6000000000000E-01  1.4931674953630E-01  1.7681378657625E+00
    88  8.7000000000000E-01  1.0159734764820E-01  1.7813615175822E+00
    89  8.8000000000000E-01  5.6170661636747E-02  1.7889080685998E+00
    90  8.9000000000000E-01  1.3187224679840E-02  1.7906718880259E+00
    91  9.0000000000000E-01 -2.7220285554716E-02  1.7865887707368E+00
    92  9.1000000000000E-01 -6.4938054403519E-02  1.7766377342446E+00
    93  9.2000000000000E-01 -9.9871964623131E-02  1.7608423673123E+00
    94  9.3000000000000E-01 -1.3194824564501E-01  1.7392716987410E+00
    95  9.4000000000000E-01 -1.6111392777382E-01  1.7120405609639E+00
    96  9.5000000000000E-01 -1.8733709379965E-01  1.6793094297106E+00
    97  9.6000000000000E-01 -2.1060692300863E-01  1.6412837280550E+00
    98  9.7000000000000E-01 -2.3093352519920E-01  1.5982125905235E+00
    99  9.8000000000000E-01 -2.4834756500636E-01  1.5503870905117E+00
   100  9.9000000000000E-01 -2.6289967956009E-01  1.4981379419005E+00
   101  1.0000000000000E+00 -2.7465969521690E-01  1.4418326933796E+00
   102  1.0100000000000E+00 -2.8371565175953E-01  1.3818724414215E+00
   103  1.0200000000000E+00 -2.9017264502159E-01  1.3186880950146E+00
   104  1.0300000000000E+00 -2.9415150131602E-01  1.2527362320101E+00
   105  1.0400000000000E+00 -2.9578729928930E-01  1.1844945931636E+00
   106  1.0500000000000E+00 -2.9522775685458E-01  1.1144572655498E+00
   107  1.0600000000000E+00 -2.9263150263680E-01  1.0431296118979E+00
   108  1.0700000000000E+00 -2.8816625286242E-01  9.7102300643292E-01
   109  1.0800000000000E+00 -2.8200691582389E-01  8.9864944097379E-01
   110  1.0900000000000E+00 -2.7433364691385E-01  8.2651606722294E-01
   111  1.1000000000000E+00 -2.6532987774971E-01  7.5511974238051E-01
   112  1.1100000000000E+00 -2.5518034307652E-01  6.8494164536874E-01
   113  1.1200000000000E+00 -2.4406912894532E-01  6.1644203006108E-01
   114  1.1300000000000E+00 -2.3217776511121E-01  5.5005517996567E-01
   115  1.1400000000000E+00 -2.1968338369231E-01  4.8618462585305E-01
   116  1.1500000000000E+00 -2.0675696488104E-01  4.2519868385092E-01
   117  1.1600000000000E+00 -1.9356168893317E-01  3.6742636665069E-01
   118  1.1700000000000E+00 -1.8025141178512E-01  3.1315371469988E-01
   119  1.1800000000000E+00 -1.6696927951142E-01  2.6262058772935E-01
   120  1.1900000000000E+00 -1.5384649445144E-01  2.1601794974220E-01
   121  1.2000000000000E+00 -1.4100124324827E-01  1.7348567279410E-01
   122  1.2100000000000E+00 -1.2853779430619E-01  1.3511087668078E-01
   123  1.2200000000000E+00 -1.1654576929757E-01  1.0092681305122E-01
   124  1.2300000000000E+00 -1.0509959041899E-01  7.0912293711345E-02
   125  1.2400000000000E+00 -9.4258101491288E-02  4.4991650977052E-02
   126  1.2500000000000E+00 -8.4064366148862E-02  2.3035249159910E-02
   127  1.2600000000000E+00 -7.4545668216457E-02  4.8606857330609E-03
   128  1.2700000000000E+00 -6.5715080511838E-02 -9.7585638072481E-03
   129  1.2800000000000E+00 -5.7574253417293E-02 -2.1079527748751E-02
   130  1.2900000000000E+00 -5.0114884126802E-02 -2.9383759848934E-02
   131  1.3000000000000E+00 -4.3319980413681E-02 -3.4972748112834E-02
   132  1.3100000000000E+00 -3.7165231071722E-02 -3.8163033875269E-02
   133  1.3200000000000E+00 -3.1620456860426E-02 -3.9281128714147E-02
   134  1.3300000000000E+00 -2.6651119197592E-02 -3.8658296847168E-02
   135  1.3400000000000E+00 -2.2219862205219E-02 -3.6625277178338E-02
   136  1.3500000000000E+00 -1.8288063372348E-02 -3.3507019776607E-02
   137  1.3600000000000E+00 -1.4817365794358E-02 -2.9617516456939E-02