Sc    ONCVPSP-4.0.1  r_core=   1.35225   1.35225   1.65725
     21.0000     11.0000      250925    zatom,zion,pspd
     8   -1012   2     4   600     0    pspcod,pspxc,lmax,lloc,mmax,r2well
  5.99000000  5.00000000  0.00000000    rchrg fchrg qchrg
     2     2     2     0    nproj
     3     1           extension_switch
     4     3     0    nprojso
   0                         1.0704896447079E+01  9.1321647892007E-01
     1  0.0000000000000E+00 -2.5881140564010E-09  8.0948077962884E-09
     2  1.0000000000000E-02  7.7064866857686E-02 -3.1529224948854E-02
     3  2.0000000000000E-02  1.5395711533792E-01 -6.2929610682728E-02
     4  3.0000000000000E-02  2.3050483902190E-01 -9.4072883089566E-02
     5  4.0000000000000E-02  3.0653753810364E-01 -1.2483185738377E-01
     6  5.0000000000000E-02  3.8188678014849E-01 -1.5508088282661E-01
     7  6.0000000000000E-02  4.5638681176362E-01 -1.8469617373651E-01
     8  7.0000000000000E-02  5.2987510802078E-01 -2.1355599897305E-01
     9  8.0000000000000E-02  6.0219284905957E-01 -2.4154071017378E-01
    10  9.0000000000000E-02  6.7318531634472E-01 -2.6853259847602E-01
    11  1.0000000000000E-01  7.4270220443713E-01 -2.9441557986165E-01
    12  1.1000000000000E-01  8.1059784773385E-01 -3.1907472016673E-01
    13  1.2000000000000E-01  8.7673136529883E-01 -3.4239562171910E-01
    14  1.3000000000000E-01  9.4096673049834E-01 -3.6426370401110E-01
    15  1.4000000000000E-01  1.0031727755304E+00 -3.8456342029741E-01
    16  1.5000000000000E-01  1.0632231439588E+00 -4.0317746007045E-01
    17  1.6000000000000E-01  1.1209962069045E+00 -4.1998599359465E-01
    18  1.7000000000000E-01  1.1763749604965E+00 -4.3486601872444E-01
    19  1.8000000000000E-01  1.2292469234568E+00 -4.4769087181355E-01
    20  1.9000000000000E-01  1.2795040542148E+00 -4.5832996345820E-01
    21  2.0000000000000E-01  1.3270427066832E+00 -4.6664879601479E-01
    22  2.1000000000000E-01  1.3717636427592E+00 -4.7250931330856E-01
    23  2.2000000000000E-01  1.4135721177645E+00 -4.7577062382373E-01
    24  2.3000000000000E-01  1.4523780524473E+00 -4.7629012716163E-01
    25  2.4000000000000E-01  1.4880963019131E+00 -4.7392505999693E-01
    26  2.5000000000000E-01  1.5206470280271E+00 -4.6853446256414E-01
    27  2.6000000000000E-01  1.5499561775613E+00 -4.5998155036242E-01
    28  2.7000000000000E-01  1.5759560637911E+00 -4.4813645882574E-01
    29  2.8000000000000E-01  1.5985860445197E+00 -4.3287931177167E-01
    30  2.9000000000000E-01  1.6177932848109E+00 -4.1410354813244E-01
    31  3.0000000000000E-01  1.6335335881946E+00 -3.9171942641818E-01
    32  3.1000000000000E-01  1.6457722759461E+00 -3.6565761316934E-01
    33  3.2000000000000E-01  1.6544850904024E+00 -3.3587275088885E-01
    34  3.3000000000000E-01  1.6596590952927E+00 -3.0234689311516E-01
    35  3.4000000000000E-01  1.6612935438790E+00 -2.6509268982283E-01
    36  3.5000000000000E-01  1.6594006844127E+00 -2.2415620554833E-01
    37  3.6000000000000E-01  1.6540064721054E+00 -1.7961925574514E-01
    38  3.7000000000000E-01  1.6451511575329E+00 -1.3160115396444E-01
    39  3.8000000000000E-01  1.6328897231476E+00 -8.0259773491143E-02
    40  3.9000000000000E-01  1.6172921423641E+00 -2.5791841864515E-02
    41  4.0000000000000E-01  1.5984434394315E+00  3.1567595032393E-02
    42  4.1000000000000E-01  1.5764435329441E+00  9.1546581358500E-02
    43  4.2000000000000E-01  1.5514068512404E+00  1.5383855048103E-01
    44  4.3000000000000E-01  1.5234617139529E+00  2.1810550768482E-01
    45  4.4000000000000E-01  1.4927494804297E+00  2.8398206257635E-01
    46  4.5000000000000E-01  1.4594234724535E+00  3.5108025046234E-01
    47  4.6000000000000E-01  1.4236476854399E+00  4.1899505569532E-01
    48  4.7000000000000E-01  1.3855953088757E+00  4.8731052512988E-01
    49  4.8000000000000E-01  1.3454470829629E+00  5.5560633726883E-01
    50  4.9000000000000E-01  1.3033895240401E+00  6.2346467320155E-01
    51  5.0000000000000E-01  1.2596130561751E+00  6.9047721977700E-01
    52  5.1000000000000E-01  1.2143100901800E+00  7.5625212425844E-01
    53  5.2000000000000E-01  1.1676730940411E+00  8.2042071349070E-01
    54  5.3000000000000E-01  1.1198927002609E+00  8.8264378976783E-01
    55  5.4000000000000E-01  1.0711558957962E+00  9.4261732034500E-01
    56  5.5000000000000E-01  1.0216443390928E+00  1.0000773479635E+00
    57  5.6000000000000E-01  9.7153284616429E-01  1.0548039657441E+00
    58  5.7000000000000E-01  9.2098808377535E-01  1.1066242210680E+00
    59  5.8000000000000E-01  8.7016750265150E-01  1.1554138391567E+00
    60  5.9000000000000E-01  8.1921853736447E-01  1.2010976873604E+00
    61  6.0000000000000E-01  7.6827809230119E-01  1.2436489349082E+00
    62  6.1000000000000E-01  7.1747232510406E-01  1.2830868991649E+00
    63  6.2000000000000E-01  6.6691673039616E-01  1.3194736072773E+00
    64  6.3000000000000E-01  6.1671651772318E-01  1.3529091403994E+00
    65  6.4000000000000E-01  5.6696726871592E-01  1.3835258653254E+00
    66  6.5000000000000E-01  5.1775584977354E-01  1.4114816942040E+00
    67  6.6000000000000E-01  4.6916154835896E-01  1.4369525459082E+00
    68  6.7000000000000E-01  4.2125739354665E-01  1.4601242115492E+00
    69  6.8000000000000E-01  3.7411161501378E-01  1.4811838505372E+00
    70  6.9000000000000E-01  3.2778918944341E-01  1.5003113616686E+00
    71  7.0000000000000E-01  2.8235341949924E-01  1.5176708852185E+00
    72  7.1000000000000E-01  2.3786748829173E-01  1.5334026964128E+00
    73  7.2000000000000E-01  1.9439593169116E-01  1.5476157475877E+00
    74  7.3000000000000E-01  1.5200597201652E-01  1.5603811056845E+00
    75  7.4000000000000E-01  1.1076865955039E-01  1.5717265135480E+00
    76  7.5000000000000E-01  7.0759772957163E-02  1.5816322781118E+00
    77  7.6000000000000E-01  3.2060435920316E-02  1.5900286564818E+00
    78  7.7000000000000E-01 -5.2425849786467E-03  1.5967948729025E+00
    79  7.8000000000000E-01 -4.1056927135591E-02  1.6017598565483E+00
    80  7.9000000000000E-01 -7.5285039525515E-02  1.6047047431071E+00
    81  8.0000000000000E-01 -1.0782495620893E-01  1.6053671334763E+00
    82  8.1000000000000E-01 -1.3857142965600E-01  1.6034470519069E+00
    83  8.2000000000000E-01 -1.6741740638710E-01  1.5986144950545E+00
    84  8.3000000000000E-01 -1.9425581619664E-01  1.5905184140647E+00
    85  8.4000000000000E-01 -2.1898163551443E-01  1.5787969255130E+00
    86  8.5000000000000E-01 -2.4149417559128E-01  1.5630885051092E+00
    87  8.6000000000000E-01 -2.6169953748512E-01  1.5430438819007E+00
    88  8.7000000000000E-01 -2.7951316855295E-01  1.5183383214223E+00
    89  8.8000000000000E-01 -2.9486244957108E-01  1.4886839648690E+00
    90  8.9000000000000E-01 -3.0768923791516E-01  1.4538418787105E+00
    91  9.0000000000000E-01 -3.1795229058557E-01  1.4136334658050E+00
    92  9.1000000000000E-01 -3.2562949136318E-01  1.3679508953316E+00
    93  9.2000000000000E-01 -3.3071980905855E-01  1.3167662248110E+00
    94  9.3000000000000E-01 -3.3324491865558E-01  1.2601389129100E+00
    95  9.4000000000000E-01 -3.3325042405681E-01  1.1982214561515E+00
    96  9.5000000000000E-01 -3.3080662996723E-01  1.1312629253277E+00
    97  9.6000000000000E-01 -3.2600882099839E-01  1.0596102273512E+00
    98  9.7000000000000E-01 -3.1897701807787E-01  9.8370697426708E-01
    99  9.8000000000000E-01 -3.0985519539788E-01  9.0408990174460E-01
   100  9.9000000000000E-01 -2.9880995509980E-01  8.2138284307051E-01
   101  1.0000000000000E+00 -2.8602867127905E-01  7.3628832971284E-01
   102  1.0100000000000E+00 -2.7171712932248E-01  6.4957695420750E-01
   103  1.0200000000000E+00 -2.5609670065362E-01  5.6207469364415E-01
   104  1.0300000000000E+00 -2.3940110626769E-01  4.7464845067027E-01
   105  1.0400000000000E+00 -2.2187283458726E-01  3.8819012194461E-01
   106  1.0500000000000E+00 -2.0375928981945E-01  3.0359954988152E-01
   107  1.0600000000000E+00 -1.8530875581969E-01  2.2176675092682E-01
   108  1.0700000000000E+00 -1.6676626717316E-01  1.4355384126768E-01
   109  1.0800000000000E+00 -1.4836948359744E-01  6.9777097986942E-02
   110  1.0900000000000E+00 -1.3034466565854E-01  1.1895994531748E-03
   111  1.1000000000000E+00 -1.1290284910935E-01 -6.1535117033524E-02
   112  1.1100000000000E+00 -9.6236311847435E-02 -1.1781795984797E-01
   113  1.1200000000000E+00 -8.0515421649388E-02 -1.6718735814749E-01
   114  1.1300000000000E+00 -6.5885944498933E-02 -2.0929015553280E-01
   115  1.1400000000000E+00 -5.2466882814707E-02 -2.4390001962261E-01
   116  1.1500000000000E+00 -4.0348900256786E-02 -2.7092312346075E-01
   117  1.1600000000000E+00 -2.9593375609990E-02 -2.9040091989999E-01
   118  1.1700000000000E+00 -2.0232112572456E-02 -3.0250990171701E-01
   119  1.1800000000000E+00 -1.2267715841701E-02 -3.0755831493337E-01
   120  1.1900000000000E+00 -5.6746268026452E-03 -3.0597987015158E-01
   121  1.2000000000000E+00 -4.0079510724025E-04 -2.9832457340896E-01
   122  1.2100000000000E+00  3.6300542421422E-03 -2.8524687294301E-01
   123  1.2200000000000E+00  6.5156145150853E-03 -2.6749138904441E-01
   124  1.2300000000000E+00  8.3717222552751E-03 -2.4587655863188E-01
   125  1.2400000000000E+00  9.3286972353587E-03 -2.2127658340661E-01
   126  1.2500000000000E+00  9.5273916764570E-03 -1.9460211781350E-01
   127  1.2600000000000E+00  9.1150530923985E-03 -1.6678017385259E-01
   128  1.2700000000000E+00  8.2410886732299E-03 -1.3873369319332E-01
   129  1.2800000000000E+00  7.0529518098872E-03 -1.1136154351244E-01
   130  1.2900000000000E+00  5.6900400414072E-03 -8.5514194252368E-02
   131  1.3000000000000E+00  4.2757860662586E-03 -6.1964491506083E-02
   132  1.3100000000000E+00  2.9318806209310E-03 -4.1433968011817E-02
   133  1.3200000000000E+00  1.7638502729036E-03 -2.4550430455080E-02
   134  1.3300000000000E+00  8.5451510925594E-04 -1.1820607152543E-02
   135  1.3400000000000E+00  2.5823634677933E-04 -3.5813374687209E-03
   136  1.3500000000000E+00  1.3724190530938E-05 -1.9261663620234E-04
   137  1.3600000000000E+00 -4.9881602579708E-07  7.0259284009933E-06
   138  1.3700000000000E+00 -1.7791642589922E-07  2.4761970778507E-06
   139  1.38  0.  0.
   140  1.39  0.  0.
   141  1.40  0.  0.
   142  1.41  0.  0.
   143  1.42  0.  0.
   144  1.43  0.  0.
   145  1.44  0.  0.
   146  1.45  0.  0.
   147  1.46  0.  0.
   148  1.47  0.  0.
   149  1.48  0.  0.
   150  1.49  0.  0.
   151  1.50  0.  0.
   152  1.51  0.  0.
   153  1.52  0.  0.
   154  1.53  0.  0.
   155  1.54  0.  0.
   156  1.55  0.  0.
   157  1.56  0.  0.
   158  1.57  0.  0.
   159  1.58  0.  0.
   160  1.59  0.  0.
   161  1.60  0.  0.
   162  1.61  0.  0.
   163  1.62  0.  0.
   164  1.63  0.  0.
   165  1.64  0.  0.
   166  1.65  0.  0.
   167  1.66  0.  0.
   168  1.67  0.  0.
   169  1.68  0.  0.
   170  1.69  0.  0.
   171  1.70  0.  0.
   172  1.71  0.  0.
   173  1.72  0.  0.
   174  1.73  0.  0.
   175  1.74  0.  0.
   176  1.75  0.  0.
   177  1.76  0.  0.
   178  1.77  0.  0.
   179  1.78  0.  0.
   180  1.79  0.  0.
   181  1.80  0.  0.
   182  1.81  0.  0.
   183  1.82  0.  0.
   184  1.83  0.  0.
   185  1.84  0.  0.
   186  1.85  0.  0.
   187  1.86  0.  0.
   188  1.87  0.  0.
   189  1.88  0.  0.
   190  1.89  0.  0.
   191  1.90  0.  0.
   192  1.91  0.  0.
   193  1.92  0.  0.
   194  1.93  0.  0.
   195  1.94  0.  0.
   196  1.95  0.  0.
   197  1.96  0.  0.
   198  1.97  0.  0.
   199  1.98  0.  0.
   200  1.99  0.  0.
   201  2.00  0.  0.
   202  2.01  0.  0.
   203  2.02  0.  0.
   204  2.03  0.  0.
   205  2.04  0.  0.
   206  2.05  0.  0.
   207  2.06  0.  0.
   208  2.07  0.  0.
   209  2.08  0.  0.
   210  2.09  0.  0.
   211  2.10  0.  0.
   212  2.11  0.  0.
   213  2.12  0.  0.
   214  2.13  0.  0.
   215  2.14  0.  0.
   216  2.15  0.  0.
   217  2.16  0.  0.
   218  2.17  0.  0.
   219  2.18  0.  0.
   220  2.19  0.  0.
   221  2.20  0.  0.
   222  2.21  0.  0.
   223  2.22  0.  0.
   224  2.23  0.  0.
   225  2.24  0.  0.
   226  2.25  0.  0.
   227  2.26  0.  0.
   228  2.27  0.  0.
   229  2.28  0.  0.
   230  2.29  0.  0.
   231  2.30  0.  0.
   232  2.31  0.  0.
   233  2.32  0.  0.
   234  2.33  0.  0.
   235  2.34  0.  0.
   236  2.35  0.  0.
   237  2.36  0.  0.
   238  2.37  0.  0.
   239  2.38  0.  0.
   240  2.39  0.  0.
   241  2.40  0.  0.
   242  2.41  0.  0.
   243  2.42  0.  0.
   244  2.43  0.  0.
   245  2.44  0.  0.
   246  2.45  0.  0.
   247  2.46  0.  0.
   248  2.47  0.  0.
   249  2.48  0.  0.
   250  2.49  0.  0.
   251  2.50  0.  0.
   252  2.51  0.  0.
   253  2.52  0.  0.
   254  2.53  0.  0.
   255  2.54  0.  0.
   256  2.55  0.  0.
   257  2.56  0.  0.
   258  2.57  0.  0.
   259  2.58  0.  0.
   260  2.59  0.  0.
   261  2.60  0.  0.
   262  2.61  0.  0.
   263  2.62  0.  0.
   264  2.63  0.  0.
   265  2.64  0.  0.
   266  2.65  0.  0.
   267  2.66  0.  0.
   268  2.67  0.  0.
   269  2.68  0.  0.
   270  2.69  0.  0.
   271  2.70  0.  0.
   272  2.71  0.  0.
   273  2.72  0.  0.
   274  2.73  0.  0.
   275  2.74  0.  0.
   276  2.75  0.  0.
   277  2.76  0.  0.
   278  2.77  0.  0.
   279  2.78  0.  0.
   280  2.79  0.  0.
   281  2.80  0.  0.
   282  2.81  0.  0.
   283  2.82  0.  0.
   284  2.83  0.  0.
   285  2.84  0.  0.
   286  2.85  0.  0.
   287  2.86  0.  0.
   288  2.87  0.  0.
   289  2.88  0.  0.
   290  2.89  0.  0.
   291  2.90  0.  0.
   292  2.91  0.  0.
   293  2.92  0.  0.
   294  2.93  0.  0.
   295  2.94  0.  0.
   296  2.95  0.  0.
   297  2.96  0.  0.
   298  2.97  0.  0.
   299  2.98  0.  0.
   300  2.99  0.  0.
   301  3.00  0.  0.
   302  3.01  0.  0.
   303  3.02  0.  0.
   304  3.03  0.  0.
   305  3.04  0.  0.
   306  3.05  0.  0.
   307  3.06  0.  0.
   308  3.07  0.  0.
   309  3.08  0.  0.
   310  3.09  0.  0.
   311  3.10  0.  0.
   312  3.11  0.  0.
   313  3.12  0.  0.
   314  3.13  0.  0.
   315  3.14  0.  0.
   316  3.15  0.  0.
   317  3.16  0.  0.
   318  3.17  0.  0.
   319  3.18  0.  0.
   320  3.19  0.  0.
   321  3.20  0.  0.
   322  3.21  0.  0.
   323  3.22  0.  0.
   324  3.23  0.  0.
   325  3.24  0.  0.
   326  3.25  0.  0.
   327  3.26  0.  0.
   328  3.27  0.  0.
   329  3.28  0.  0.
   330  3.29  0.  0.
   331  3.30  0.  0.
   332  3.31  0.  0.
   333  3.32  0.  0.
   334  3.33  0.  0.
   335  3.34  0.  0.
   336  3.35  0.  0.
   337  3.36  0.  0.
   338  3.37  0.  0.
   339  3.38  0.  0.
   340  3.39  0.  0.
   341  3.40  0.  0.
   342  3.41  0.  0.
   343  3.42  0.  0.
   344  3.43  0.  0.
   345  3.44  0.  0.
   346  3.45  0.  0.
   347  3.46  0.  0.
   348  3.47  0.  0.
   349  3.48  0.  0.
   350  3.49  0.  0.
   351  3.50  0.  0.
   352  3.51  0.  0.
   353  3.52  0.  0.
   354  3.53  0.  0.
   355  3.54  0.  0.
   356  3.55  0.  0.
   357  3.56  0.  0.
   358  3.57  0.  0.
   359  3.58  0.  0.
   360  3.59  0.  0.
   361  3.60  0.  0.
   362  3.61  0.  0.
   363  3.62  0.  0.
   364  3.63  0.  0.
   365  3.64  0.  0.
   366  3.65  0.  0.
   367  3.66  0.  0.
   368  3.67  0.  0.
   369  3.68  0.  0.
   370  3.69  0.  0.
   371  3.70  0.  0.
   372  3.71  0.  0.
   373  3.72  0.  0.
   374  3.73  0.  0.
   375  3.74  0.  0.
   376  3.75  0.  0.
   377  3.76  0.  0.
   378  3.77  0.  0.
   379  3.78  0.  0.
   380  3.79  0.  0.
   381  3.80  0.  0.
   382  3.81  0.  0.
   383  3.82  0.  0.
   384  3.83  0.  0.
   385  3.84  0.  0.
   386  3.85  0.  0.
   387  3.86  0.  0.
   388  3.87  0.  0.
   389  3.88  0.  0.
   390  3.89  0.  0.
   391  3.90  0.  0.
   392  3.91  0.  0.
   393  3.92  0.  0.
   394  3.93  0.  0.
   395  3.94  0.  0.
   396  3.95  0.  0.
   397  3.96  0.  0.
   398  3.97  0.  0.
   399  3.98  0.  0.
   400  3.99  0.  0.
   401  4.00  0.  0.
   402  4.01  0.  0.
   403  4.02  0.  0.
   404  4.03  0.  0.
   405  4.04  0.  0.
   406  4.05  0.  0.
   407  4.06  0.  0.
   408  4.07  0.  0.
   409  4.08  0.  0.
   410  4.09  0.  0.
   411  4.10  0.  0.
   412  4.11  0.  0.
   413  4.12  0.  0.
   414  4.13  0.  0.
   415  4.14  0.  0.
   416  4.15  0.  0.
   417  4.16  0.  0.
   418  4.17  0.  0.
   419  4.18  0.  0.
   420  4.19  0.  0.
   421  4.20  0.  0.
   422  4.21  0.  0.
   423  4.22  0.  0.
   424  4.23  0.  0.
   425  4.24  0.  0.
   426  4.25  0.  0.
   427  4.26  0.  0.
   428  4.27  0.  0.
   429  4.28  0.  0.
   430  4.29  0.  0.
   431  4.30  0.  0.
   432  4.31  0.  0.
   433  4.32  0.  0.
   434  4.33  0.  0.
   435  4.34  0.  0.
   436  4.35  0.  0.
   437  4.36  0.  0.
   438  4.37  0.  0.
   439  4.38  0.  0.
   440  4.39  0.  0.
   441  4.40  0.  0.
   442  4.41  0.  0.
   443  4.42  0.  0.
   444  4.43  0.  0.
   445  4.44  0.  0.
   446  4.45  0.  0.
   447  4.46  0.  0.
   448  4.47  0.  0.
   449  4.48  0.  0.
   450  4.49  0.  0.
   451  4.50  0.  0.
   452  4.51  0.  0.
   453  4.52  0.  0.
   454  4.53  0.  0.
   455  4.54  0.  0.
   456  4.55  0.  0.
   457  4.56  0.  0.
   458  4.57  0.  0.
   459  4.58  0.  0.
   460  4.59  0.  0.
   461  4.60  0.  0.
   462  4.61  0.  0.
   463  4.62  0.  0.
   464  4.63  0.  0.
   465  4.64  0.  0.
   466  4.65  0.  0.
   467  4.66  0.  0.
   468  4.67  0.  0.
   469  4.68  0.  0.
   470  4.69  0.  0.
   471  4.70  0.  0.
   472  4.71  0.  0.
   473  4.72  0.  0.
   474  4.73  0.  0.
   475  4.74  0.  0.
   476  4.75  0.  0.
   477  4.76  0.  0.
   478  4.77  0.  0.
   479  4.78  0.  0.
   480  4.79  0.  0.
   481  4.80  0.  0.
   482  4.81  0.  0.
   483  4.82  0.  0.
   484  4.83  0.  0.
   485  4.84  0.  0.
   486  4.85  0.  0.
   487  4.86  0.  0.
   488  4.87  0.  0.
   489  4.88  0.  0.
   490  4.89  0.  0.
   491  4.90  0.  0.
   492  4.91  0.  0.
   493  4.92  0.  0.
   494  4.93  0.  0.
   495  4.94  0.  0.
   496  4.95  0.  0.
   497  4.96  0.  0.
   498  4.97  0.  0.
   499  4.98  0.  0.
   500  4.99  0.  0.
   501  5.00  0.  0.
   502  5.01  0.  0.
   503  5.02  0.  0.
   504  5.03  0.  0.
   505  5.04  0.  0.
   506  5.05  0.  0.
   507  5.06  0.  0.
   508  5.07  0.  0.
   509  5.08  0.  0.
   510  5.09  0.  0.
   511  5.10  0.  0.
   512  5.11  0.  0.
   513  5.12  0.  0.
   514  5.13  0.  0.
   515  5.14  0.  0.
   516  5.15  0.  0.
   517  5.16  0.  0.
   518  5.17  0.  0.
   519  5.18  0.  0.
   520  5.19  0.  0.
   521  5.20  0.  0.
   522  5.21  0.  0.
   523  5.22  0.  0.
   524  5.23  0.  0.
   525  5.24  0.  0.
   526  5.25  0.  0.
   527  5.26  0.  0.
   528  5.27  0.  0.
   529  5.28  0.  0.
   530  5.29  0.  0.
   531  5.30  0.  0.
   532  5.31  0.  0.
   533  5.32  0.  0.
   534  5.33  0.  0.
   535  5.34  0.  0.
   536  5.35  0.  0.
   537  5.36  0.  0.
   538  5.37  0.  0.
   539  5.38  0.  0.
   540  5.39  0.  0.
   541  5.40  0.  0.
   542  5.41  0.  0.
   543  5.42  0.  0.
   544  5.43  0.  0.
   545  5.44  0.  0.
   546  5.45  0.  0.
   547  5.46  0.  0.
   548  5.47  0.  0.
   549  5.48  0.  0.
   550  5.49  0.  0.
   551  5.50  0.  0.
   552  5.51  0.  0.
   553  5.52  0.  0.
   554  5.53  0.  0.
   555  5.54  0.  0.
   556  5.55  0.  0.
   557  5.56  0.  0.
   558  5.57  0.  0.
   559  5.58  0.  0.
   560  5.59  0.  0.
   561  5.60  0.  0.
   562  5.61  0.  0.
   563  5.62  0.  0.
   564  5.63  0.  0.
   565  5.64  0.  0.
   566  5.65  0.  0.
   567  5.66  0.  0.
   568  5.67  0.  0.
   569  5.68  0.  0.
   570  5.69  0.  0.
   571  5.70  0.  0.
   572  5.71  0.  0.
   573  5.72  0.  0.
   574  5.73  0.  0.
   575  5.74  0.  0.
   576  5.75  0.  0.
   577  5.76  0.  0.
   578  5.77  0.  0.
   579  5.78  0.  0.
   580  5.79  0.  0.
   581  5.80  0.  0.
   582  5.81  0.  0.
   583  5.82  0.  0.
   584  5.83  0.  0.
   585  5.84  0.  0.
   586  5.85  0.  0.
   587  5.86  0.  0.
   588  5.87  0.  0.
   589  5.88  0.  0.
   590  5.89  0.  0.
   591  5.90  0.  0.
   592  5.91  0.  0.
   593  5.92  0.  0.
   594  5.93  0.  0.
   595  5.94  0.  0.
   596  5.95  0.  0.
   597  5.96  0.  0.
   598  5.97  0.  0.
   599  5.98  0.  0.
   600  5.99  0.  0.
   1                         2.7706308269859E+00  3.2805192176753E-01
     1  0.0000000000000E+00 -1.1046233677758E-08  2.8679735978449E-08
     2  1.0000000000000E-02  1.9769153509311E-03 -4.3174174187818E-04
     3  2.0000000000000E-02  7.9039347024614E-03 -1.7353229871300E-03
     4  3.0000000000000E-02  1.7769691046246E-02 -3.9352768494097E-03
     5  4.0000000000000E-02  3.1554623570587E-02 -7.0707275232352E-03
     6  5.0000000000000E-02  4.9230079006552E-02 -1.1192809093940E-02
     7  6.0000000000000E-02  7.0757102813474E-02 -1.6361180398515E-02
     8  7.0000000000000E-02  9.6084967698216E-02 -2.2639759683235E-02
     9  8.0000000000000E-02  1.2514949800886E-01 -3.0091831483691E-02
    10  9.0000000000000E-02  1.5787125779752E-01 -3.8774702097309E-02
    11  1.0000000000000E-01  1.9415367751773E-01 -4.8734098462979E-02
    12  1.1000000000000E-01  2.3388119917757E-01 -5.9998517605472E-02
    13  1.2000000000000E-01  2.7691752214754E-01 -7.2573739624478E-02
    14  1.3000000000000E-01  3.2310403162715E-01 -8.6437716273939E-02
    15  1.4000000000000E-01  3.7225848898994E-01 -1.0153603946357E-01
    16  1.5000000000000E-01  4.2417405790789E-01 -1.1777817968604E-01
    17  1.6000000000000E-01  4.7861873243609E-01 -1.3503466380508E-01
    18  1.7000000000000E-01  5.3533522331657E-01 -1.5313533538611E-01
    19  1.8000000000000E-01  5.9404134690494E-01 -1.7186880954477E-01
    20  1.9000000000000E-01  6.5443094765951E-01 -1.9098319901497E-01
    21  2.0000000000000E-01  7.1617537043462E-01 -2.1018814980962E-01
    22  2.1000000000000E-01  7.7892548330168E-01 -2.2915818458007E-01
    23  2.2000000000000E-01  8.4231423572438E-01 -2.4753731075790E-01
    24  2.3000000000000E-01  9.0595972109514E-01 -2.6494481000422E-01
    25  2.4000000000000E-01  9.6946869735811E-01 -2.8098208662124E-01
    26  2.5000000000000E-01  1.0324405051476E+00 -2.9524041658031E-01
    27  2.6000000000000E-01  1.0944713099866E+00 -3.0730940681361E-01
    28  2.7000000000000E-01  1.1551585840102E+00 -3.1678594741577E-01
    29  2.8000000000000E-01  1.2141057337391E+00 -3.2328341829367E-01
    30  2.9000000000000E-01  1.2709267739326E+00 -3.2644089731325E-01
    31  3.0000000000000E-01  1.3252509436980E+00 -3.2593210966596E-01
    32  3.1000000000000E-01  1.3767271599945E+00 -3.2147385835962E-01
    33  3.2000000000000E-01  1.4250282055043E+00 -3.1283368356306E-01
    34  3.3000000000000E-01  1.4698545525465E+00 -2.9983651391724E-01
    35  3.4000000000000E-01  1.5109377321963E+00 -2.8237009556252E-01
    36  3.5000000000000E-01  1.5480431678713E+00 -2.6038901400894E-01
    37  3.6000000000000E-01  1.5809724051129E+00 -2.3391715937357E-01
    38  3.7000000000000E-01  1.6095646838257E+00 -2.0304852602642E-01
    39  3.8000000000000E-01  1.6336978154444E+00 -1.6794628225995E-01
    40  3.9000000000000E-01  1.6532883449769E+00 -1.2884009303153E-01
    41  4.0000000000000E-01  1.6682909961337E+00 -8.6021727823516E-02
    42  4.1000000000000E-01  1.6786974163238E+00 -3.9839034857293E-02
    43  4.2000000000000E-01  1.6845342566459E+00  9.3115891087240E-03
    44  4.3000000000000E-01  1.6858606396414E+00  6.0994058761373E-02
    45  4.4000000000000E-01  1.6827650839886E+00  1.1474257387456E-01
    46  4.5000000000000E-01  1.6753619700382E+00  1.7007245418535E-01
    47  4.6000000000000E-01  1.6637876427018E+00  2.2649155307939E-01
    48  4.7000000000000E-01  1.6481962583045E+00  2.8351194494568E-01
    49  4.8000000000000E-01  1.6287554893138E+00  3.4066156641711E-01
    50  4.9000000000000E-01  1.6056422050941E+00  3.9749548572285E-01
    51  5.0000000000000E-01  1.5790382478679E+00  4.5360647738984E-01
    52  5.1000000000000E-01  1.5491264208031E+00  5.0863459165068E-01
    53  5.2000000000000E-01  1.5160867996166E+00  5.6227542900124E-01
    54  5.3000000000000E-01  1.4800934703816E+00  6.1428686000601E-01
    55  5.4000000000000E-01  1.4413117845582E+00  6.6449396803704E-01
    56  5.5000000000000E-01  1.3998962078949E+00  7.1279203728126E-01
    57  5.6000000000000E-01  1.3559888231447E+00  7.5914745898143E-01
    58  5.7000000000000E-01  1.3097185279169E+00  8.0359648421954E-01
    59  5.8000000000000E-01  1.2612009489401E+00  8.4624181019187E-01
    60  5.9000000000000E-01  1.2105390730609E+00  8.8724704731938E-01
    61  6.0000000000000E-01  1.1578245740244E+00  9.2682917507150E-01
    62  6.1000000000000E-01  1.1031397930484E+00  9.6524915340317E-01
    63  6.2000000000000E-01  1.0465603109966E+00  1.0028009125696E+00
    64  6.3000000000000E-01  9.8815803116008E-01  1.0397989951983E+00
    65  6.4000000000000E-01  9.2800467479152E-01  1.0765651693708E+00
    66  6.5000000000000E-01  8.6617557712163E-01  1.1134143687449E+00
    67  6.6000000000000E-01  8.0275366004634E-01  1.1506403442420E+00
    68  6.7000000000000E-01  7.3783344938064E-01  1.1885014305896E+00
    69  6.8000000000000E-01  6.7152499981733E-01  1.2272068392997E+00
    70  6.9000000000000E-01  6.0395758969914E-01  1.2669038870452E+00
    71  7.0000000000000E-01  5.3528305051142E-01  1.3076665546766E+00
    72  7.1000000000000E-01  4.6567860262469E-01  1.3494857474356E+00
    73  7.2000000000000E-01  3.9534907915728E-01  1.3922615916683E+00
    74  7.3000000000000E-01  3.2452843367706E-01  1.4357980582406E+00
    75  7.4000000000000E-01  2.5348044451656E-01  1.4798001488676E+00
    76  7.5000000000000E-01  1.8249854833659E-01  1.5238738199421E+00
    77  7.6000000000000E-01  1.1190475776363E-01  1.5675287506273E+00
    78  7.7000000000000E-01  4.2047641896796E-02  1.6101839896228E+00
    79  7.8000000000000E-01 -2.6700626374507E-02  1.6511764399196E+00
    80  7.9000000000000E-01 -9.3948126630257E-02  1.6897720649427E+00
    81  8.0000000000000E-01 -1.5928789561694E-01  1.7251796246952E+00
    82  8.1000000000000E-01 -2.2230340054145E-01  1.7565666788529E+00
    83  8.2000000000000E-01 -2.8257467791391E-01  1.7830775271287E+00
    84  8.3000000000000E-01 -3.3968501382190E-01  1.8038526974808E+00
    85  8.4000000000000E-01 -3.9322802318258E-01  1.8180495415584E+00
    86  8.5000000000000E-01 -4.4281497045108E-01  1.8248634556691E+00
    87  8.6000000000000E-01 -4.8808216292210E-01  1.8235492157728E+00
    88  8.7000000000000E-01 -5.2869824051605E-01  1.8134418975652E+00
    89  8.8000000000000E-01 -5.6437118305763E-01  1.7939768482939E+00
    90  8.9000000000000E-01 -5.9485485769348E-01  1.7647081859341E+00
    91  9.0000000000000E-01 -6.1995493529977E-01  1.7253253237725E+00
    92  9.1000000000000E-01 -6.3953401542621E-01  1.6756670539995E+00
    93  9.2000000000000E-01 -6.5351581431898E-01  1.6157327719380E+00
    94  9.3000000000000E-01 -6.6188828955542E-01  1.5456904820718E+00
    95  9.4000000000000E-01 -6.6470559739732E-01  1.4658812967859E+00
    96  9.5000000000000E-01 -6.6208880461183E-01  1.3768202171173E+00
    97  9.6000000000000E-01 -6.5422530462467E-01  1.2791930700423E+00
    98  9.7000000000000E-01 -6.4136691779020E-01  1.1738495668665E+00
    99  9.8000000000000E-01 -6.2382668654746E-01  1.0617925399440E+00
   100  9.9000000000000E-01 -6.0197440754514E-01  9.4416350803927E-01
   101  1.0000000000000E+00 -5.7623097364394E-01  8.2222481174487E-01
   102  1.0100000000000E+00 -5.4706162828133E-01  6.9733864724625E-01
   103  1.0200000000000E+00 -5.1496826224320E-01  5.7094340713712E-01
   104  1.0300000000000E+00 -4.8048090772085E-01  4.4452780886427E-01
   105  1.0400000000000E+00 -4.4414860594935E-01  3.1960335273178E-01
   106  1.0500000000000E+00 -4.0652984217855E-01  1.9767570064473E-01
   107  1.0600000000000E+00 -3.6818275471038E-01  8.0215602473331E-02
   108  1.0700000000000E+00 -3.2965533285459E-01 -3.1369982027148E-02
   109  1.0800000000000E+00 -2.9147582167137E-01 -1.3576591204313E-01
   110  1.0900000000000E+00 -2.5414354910416E-01 -2.3177540157279E-01
   111  1.1000000000000E+00 -2.1812038360196E-01 -3.1834444419302E-01
   112  1.1100000000000E+00 -1.8382301762148E-01 -3.9458354954929E-01
   113  1.1200000000000E+00 -1.5161625488852E-01 -4.5978626950220E-01
   114  1.1300000000000E+00 -1.2180745711846E-01 -5.1344406069987E-01
   115  1.1400000000000E+00 -9.4642279895248E-02 -5.5525711029735E-01
   116  1.1500000000000E+00 -7.0301797712713E-02 -5.8514084225341E-01
   117  1.1600000000000E+00 -4.8901086062624E-02 -6.0322791924350E-01
   118  1.1700000000000E+00 -3.0489294008986E-02 -6.0986565946591E-01
   119  1.1800000000000E+00 -1.5051205441826E-02 -6.0560889390387E-01
   120  1.1900000000000E+00 -2.5102513294449E-03 -5.9120839744604E-01
   121  1.2000000000000E+00  7.2670997617860E-03 -5.6759513232386E-01
   122  1.2100000000000E+00  1.4465679376790E-02 -5.3586064324707E-01
   123  1.2200000000000E+00  1.9314823104771E-02 -4.9723403748915E-01
   124  1.2300000000000E+00  2.2080607044766E-02 -4.5305606729136E-01
   125  1.2400000000000E+00  2.3057307896929E-02 -4.0475090529953E-01
   126  1.2500000000000E+00  2.2558297943219E-02 -3.5379626313090E-01
   127  1.2600000000000E+00  2.0906606935688E-02 -3.0169255832397E-01
   128  1.2700000000000E+00  1.8425318257414E-02 -2.4993172371362E-01
   129  1.2800000000000E+00  1.5428400686007E-02 -1.9996706079316E-01
   130  1.2900000000000E+00  1.2204714427294E-02 -1.5317068057296E-01
   131  1.3000000000000E+00  8.9949041107354E-03 -1.1077655546115E-01
   132  1.3100000000000E+00  6.0439344430318E-03 -7.3970718347265E-02
   133  1.3200000000000E+00  3.5575481636457E-03 -4.3795765175468E-02
   134  1.3300000000000E+00  1.6835023585311E-03 -2.1094029546478E-02
   135  1.3400000000000E+00  4.9901740853017E-04 -6.4209034360550E-03
   136  1.3500000000000E+00  3.3279015454052E-05 -3.9552789850359E-04
   137  1.3600000000000E+00 -6.3384761552189E-07  1.0791645723331E-05
   138  1.3700000000000E+00 -2.2722248949896E-07  3.7161554896119E-06
   139  1.38  0.  0.
   140  1.39  0.  0.
   141  1.40  0.  0.
   142  1.41  0.  0.
   143  1.42  0.  0.
   144  1.43  0.  0.
   145  1.44  0.  0.
   146  1.45  0.  0.
   147  1.46  0.  0.
   148  1.47  0.  0.
   149  1.48  0.  0.
   150  1.49  0.  0.
   151  1.50  0.  0.
   152  1.51  0.  0.
   153  1.52  0.  0.
   154  1.53  0.  0.
   155  1.54  0.  0.
   156  1.55  0.  0.
   157  1.56  0.  0.
   158  1.57  0.  0.
   159  1.58  0.  0.
   160  1.59  0.  0.
   161  1.60  0.  0.