Sc    ONCVPSP-4.0.1  r_core=   1.35225   1.35225   1.65725
     21.0000     11.0000      250217    zatom,zion,pspd
     8       2   2     4   600     0    pspcod,pspxc,lmax,lloc,mmax,r2well
  5.99000000  5.00000000  0.00000000    rchrg fchrg qchrg
     2     2     2     0    nproj
     3     1           extension_switch
     4     3     0    nprojso
   0                         1.0704694116033E+01  9.1293384528686E-01
     1  0.0000000000000E+00 -2.6006187203720E-09  8.1501457527278E-09
     2  1.0000000000000E-02  7.7067899157612E-02 -3.1542321607965E-02
     3  2.0000000000000E-02  1.5396307510454E-01 -6.2955372492497E-02
     4  3.0000000000000E-02  2.3051351995135E-01 -9.4110461302557E-02
     5  4.0000000000000E-02  3.0654863903973E-01 -1.2488001408682E-01
     6  5.0000000000000E-02  3.8189991474616E-01 -1.5513803190151E-01
     7  6.0000000000000E-02  4.5640152089024E-01 -1.8476043337047E-01
     8  7.0000000000000E-02  5.2989087450061E-01 -2.1362525400313E-01
     9  8.0000000000000E-02  6.0220911429210E-01 -2.4161268222636E-01
    10  9.0000000000000E-02  6.7320149826765E-01 -2.6860492160530E-01
    11  1.0000000000000E-01  7.4271771626157E-01 -2.9448587920751E-01
    12  1.1000000000000E-01  8.1061211685434E-01 -3.1914069104944E-01
    13  1.2000000000000E-01  8.7674385177474E-01 -3.4245510656845E-01
    14  1.3000000000000E-01  9.4097694451606E-01 -3.6431476459226E-01
    15  1.4000000000000E-01  1.0031802932878E+00 -3.8460440284306E-01
    16  1.5000000000000E-01  1.0632276214632E+00 -4.0320705115382E-01
    17  1.6000000000000E-01  1.1209973912407E+00 -4.2000326487420E-01
    18  1.7000000000000E-01  1.1763726982023E+00 -4.3487045904900E-01
    19  1.8000000000000E-01  1.2292411657352E+00 -4.4768240558451E-01
    20  1.9000000000000E-01  1.2794948588122E+00 -4.5830895459165E-01
    21  2.0000000000000E-01  1.3270302363700E+00 -4.6661603731478E-01
    22  2.1000000000000E-01  1.3717481604578E+00 -4.7246600154080E-01
    23  2.2000000000000E-01  1.4135539784767E+00 -4.7571832124845E-01
    24  2.3000000000000E-01  1.4523576922380E+00 -4.7623071073318E-01
    25  2.4000000000000E-01  1.4880742243003E+00 -4.7386065984861E-01
    26  2.5000000000000E-01  1.5206237882139E+00 -4.6846739175861E-01
    27  2.6000000000000E-01  1.5499323650176E+00 -4.5991422818653E-01
    28  2.7000000000000E-01  1.5759322837455E+00 -4.4807133013707E-01
    29  2.8000000000000E-01  1.5985628989612E+00 -4.3281876505022E-01
    30  2.9000000000000E-01  1.6177713536187E+00 -4.1404983495439E-01
    31  3.0000000000000E-01  1.6335134110111E+00 -3.9167458504294E-01
    32  3.1000000000000E-01  1.6457543353902E+00 -3.6562339881817E-01
    33  3.2000000000000E-01  1.6544697971779E+00 -3.3585057509650E-01
    34  3.3000000000000E-01  1.6596467756893E+00 -3.0233777425940E-01
    35  3.4000000000000E-01  1.6612844300898E+00 -2.6509721658976E-01
    36  3.5000000000000E-01  1.6593949080027E+00 -2.2417451468449E-01
    37  3.6000000000000E-01  1.6540040608664E+00 -1.7965102499253E-01
    38  3.7000000000000E-01  1.6451520358520E+00 -1.3164561058583E-01
    39  3.8000000000000E-01  1.6328937159041E+00 -8.0315718286671E-02
    40  3.9000000000000E-01  1.6172989822548E+00 -2.5857688071356E-02
    41  4.0000000000000E-01  1.5984527775126E+00  3.1493769061103E-02
    42  4.1000000000000E-01  1.5764549520717E+00  9.1466967263511E-02
    43  4.2000000000000E-01  1.5514198819940E+00  1.5375553478552E-01
    44  4.3000000000000E-01  1.5234758525425E+00  2.1802158881210E-01
    45  4.4000000000000E-01  1.4927642080153E+00  2.8389976263816E-01
    46  4.5000000000000E-01  1.4594382752560E+00  3.5100202466919E-01
    47  4.6000000000000E-01  1.4236620749866E+00  4.1892320236111E-01
    48  4.7000000000000E-01  1.3856088417126E+00  4.8724709927111E-01
    49  4.8000000000000E-01  1.3454593791730E+00  5.5555307073123E-01
    50  4.9000000000000E-01  1.3034002839366E+00  6.2342290408436E-01
    51  5.0000000000000E-01  1.2596220745882E+00  6.9044783367364E-01
    52  5.1000000000000E-01  1.2143172678223E+00  7.5623550949519E-01
    53  5.2000000000000E-01  1.1676784455247E+00  8.2041673213520E-01
    54  5.3000000000000E-01  1.1198963584371E+00  8.8265176570640E-01
    55  5.4000000000000E-01  1.0711581122000E+00  9.4263604520696E-01
    56  5.5000000000000E-01  1.0216454803955E+00  1.0001051051173E+00
    57  5.6000000000000E-01  9.7153338665920E-01  1.0548385720201E+00
    58  5.7000000000000E-01  9.2098859404954E-01  1.1066630852963E+00
    59  5.8000000000000E-01  8.7016863471555E-01  1.1554540360584E+00
    60  5.9000000000000E-01  8.1922100662936E-01  1.2011360448209E+00
    61  6.0000000000000E-01  7.6828265689508E-01  1.2436821322013E+00
    62  6.1000000000000E-01  7.1747976311290E-01  1.2831115733063E+00
    63  6.2000000000000E-01  6.6692781568628E-01  1.3194864643764E+00
    64  6.3000000000000E-01  6.1673199505890E-01  1.3529070686581E+00
    65  6.4000000000000E-01  5.6698782891915E-01  1.3835060462182E+00
    66  6.5000000000000E-01  5.1778210568392E-01  1.4114417083528E+00
    67  6.6000000000000E-01  4.6919401234194E-01  1.4368904702649E+00
    68  6.7000000000000E-01  4.2129645726231E-01  1.4600387046881E+00
    69  6.8000000000000E-01  3.7415753210349E-01  1.4810742231644E+00
    70  6.9000000000000E-01  3.2784206171411E-01  1.5001776298398E+00
    71  7.0000000000000E-01  2.8241318709022E-01  1.5175138042321E+00
    72  7.1000000000000E-01  2.3793392419752E-01  1.5332237738853E+00
    73  7.2000000000000E-01  1.9446864089054E-01  1.5474172348142E+00
    74  7.3000000000000E-01  1.5208439532491E-01  1.5601659670158E+00
    75  7.4000000000000E-01  1.1085208217521E-01  1.5714983741664E+00
    76  7.5000000000000E-01  7.0847337596862E-02  1.5813953512339E+00
    77  7.6000000000000E-01  3.2151160112224E-02  1.5897876516410E+00
    78  7.7000000000000E-01 -5.1497876851183E-03  1.5965548875529E+00
    79  7.8000000000000E-01 -4.0963222720835E-02  1.6015262537544E+00
    80  7.9000000000000E-01 -7.5191646399998E-02  1.6044830185417E+00
    81  8.0000000000000E-01 -1.0773311619941E-01  1.6051627753085E+00
    82  8.1000000000000E-01 -1.3848237786952E-01  1.6032653974291E+00
    83  8.2000000000000E-01 -1.6733234078551E-01  1.5984605880468E+00
    84  8.3000000000000E-01 -1.9417586773184E-01  1.5903968669364E+00
    85  8.4000000000000E-01 -2.1890783966659E-01  1.5787117901770E+00
    86  8.5000000000000E-01 -2.4142744611997E-01  1.5630431563517E+00
    87  8.6000000000000E-01 -2.6164064314666E-01  1.5430409166955E+00
    88  8.7000000000000E-01 -2.7946271345846E-01  1.5183794772285E+00
    89  8.8000000000000E-01 -2.9482085776017E-01  1.4887700594421E+00
    90  8.9000000000000E-01 -3.0765674260337E-01  1.4539727733733E+00
    91  9.0000000000000E-01 -3.1792892841290E-01  1.4138080534740E+00
    92  9.1000000000000E-01 -3.2561510182903E-01  1.3681671139058E+00
    93  9.2000000000000E-01 -3.3071403918150E-01  1.3170210958121E+00
    94  9.3000000000000E-01 -3.3324723274585E-01  1.2604286045434E+00
    95  9.4000000000000E-01 -3.3326011834292E-01  1.1985413692593E+00
    96  9.5000000000000E-01 -3.3082285167754E-01  1.1316078000389E+00
    97  9.6000000000000E-01 -3.2603059136908E-01  1.0599742676335E+00
    98  9.7000000000000E-01 -3.1900325864446E-01  9.8408398705505E-01
    99  9.8000000000000E-01 -3.0988475683139E-01  9.0447344688550E-01
   100  9.9000000000000E-01 -2.9884164777393E-01  8.2176638999997E-01
   101  1.0000000000000E+00 -2.8606129670343E-01  7.3666541655946E-01
   102  1.0100000000000E+00 -2.7174951155108E-01  6.4994134493618E-01
   103  1.0200000000000E+00 -2.5612771677753E-01  5.6242052888560E-01
   104  1.0300000000000E+00 -2.3942971512752E-01  4.7497038804651E-01
   105  1.0400000000000E+00 -2.2189810289209E-01  3.8848346198658E-01
   106  1.0500000000000E+00 -2.0378041493495E-01  3.0386034403362E-01
   107  1.0600000000000E+00 -1.8532508458539E-01  2.2199188863716E-01
   108  1.0700000000000E+00 -1.6677731022537E-01  1.4374111375366E-01
   109  1.0800000000000E+00 -1.4837492480653E-01  6.9925236930515E-02
   110  1.0900000000000E+00 -1.3034436643287E-01  1.2982895959688E-03
   111  1.1000000000000E+00 -1.1289684746975E-01 -6.1465251675276E-02
   112  1.1100000000000E+00 -9.6224816330307E-02 -1.1778539567059E-01
   113  1.1200000000000E+00 -8.0498800249317E-02 -1.6718973632373E-01
   114  1.1300000000000E+00 -6.5864709008444E-02 -2.0932436911379E-01
   115  1.1400000000000E+00 -5.2441669054958E-02 -2.4396232078185E-01
   116  1.1500000000000E+00 -4.0320444814801E-02 -2.7100924769998E-01
   117  1.1600000000000E+00 -2.9562489801390E-02 -2.9050622354579E-01
   118  1.1700000000000E+00 -2.0199654430961E-02 -3.0262950865172E-01
   119  1.1800000000000E+00 -1.2234560995126E-02 -3.0768726823712E-01
   120  1.1900000000000E+00 -5.6416391279105E-03 -3.0611328419247E-01
   121  1.2000000000000E+00 -3.6879806335738E-04 -2.9845778190815E-01
   122  1.2100000000000E+00  3.6603047246821E-03 -2.8537556866415E-01
   123  1.2200000000000E+00  6.5434547567989E-03 -2.6761175100708E-01
   124  1.2300000000000E+00  8.3966024017606E-03 -2.4598536311959E-01
   125  1.2400000000000E+00  9.3501990171027E-03 -2.2137129552247E-01
   126  1.2500000000000E+00  9.5452418026602E-03 -1.9468096091481E-01
   127  1.2600000000000E+00  9.1291318580091E-03 -1.6684217485514E-01
   128  1.2700000000000E+00  8.2514335025452E-03 -1.3877870244183E-01
   129  1.2800000000000E+00  7.0597556101618E-03 -1.1139022874468E-01
   130  1.2900000000000E+00  5.6936444972855E-03 -8.5528007580057E-02
   131  1.3000000000000E+00  4.2766704817812E-03 -6.1965609724766E-02
   132  1.3100000000000E+00  2.9306449250091E-03 -4.1425219931681E-02
   133  1.3200000000000E+00  1.7611945945046E-03 -2.4535197842881E-02
   134  1.3300000000000E+00  8.5120990195786E-04 -1.1802678620041E-02
   135  1.3400000000000E+00  2.5512467481726E-04 -3.5648897202926E-03
   136  1.3500000000000E+00  1.1572944694095E-05 -1.8155370544493E-04
   137  1.3600000000000E+00 -5.5084324452663E-07  7.2886795447112E-06
   138  1.3700000000000E+00 -2.0135563814162E-07  2.5953840847145E-06
   139  1.38  0.  0.
   140  1.39  0.  0.
   141  1.40  0.  0.
   142  1.41  0.  0.
   143  1.42  0.  0.
   144  1.43  0.  0.
   145  1.44  0.  0.
   146  1.45  0.  0.
   147  1.46  0.  0.
   148  1.47  0.  0.
   149  1.48  0.  0.
   150  1.49  0.  0.
   151  1.50  0.  0.
   152  1.51  0.  0.
   153  1.52  0.  0.
   154  1.53  0.  0.
   155  1.54  0.  0.
   156  1.55  0.  0.
   157  1.56  0.  0.
   158  1.57  0.  0.
   159  1.58  0.  0.
   160  1.59  0.  0.
   161  1.60  0.  0.
   162  1.61  0.  0.
   163  1.62  0.  0.
   164  1.63  0.  0.
   165  1.64  0.  0.
   166  1.65  0.  0.
   167  1.66  0.  0.
   168  1.67  0.  0.
   169  1.68  0.  0.
   170  1.69  0.  0.
   171  1.70  0.  0.
   172  1.71  0.  0.
   173  1.72  0.  0.
   174  1.73  0.  0.
   175  1.74  0.  0.
   176  1.75  0.  0.
   177  1.76  0.  0.
   178  1.77  0.  0.
   179  1.78  0.  0.
   180  1.79  0.  0.
   181  1.80  0.  0.
   182  1.81  0.  0.
   183  1.82  0.  0.
   184  1.83  0.  0.
   185  1.84  0.  0.
   186  1.85  0.  0.
   187  1.86  0.  0.
   188  1.87  0.  0.
   189  1.88  0.  0.
   190  1.89  0.  0.
   191  1.90  0.  0.
   192  1.91  0.  0.
   193  1.92  0.  0.
   194  1.93  0.  0.
   195  1.94  0.  0.
   196  1.95  0.  0.
   197  1.96  0.  0.
   198  1.97  0.  0.
   199  1.98  0.  0.
   200  1.99  0.  0.
   201  2.00  0.  0.
   202  2.01  0.  0.
   203  2.02  0.  0.
   204  2.03  0.  0.
   205  2.04  0.  0.
   206  2.05  0.  0.
   207  2.06  0.  0.
   208  2.07  0.  0.
   209  2.08  0.  0.
   210  2.09  0.  0.
   211  2.10  0.  0.
   212  2.11  0.  0.
   213  2.12  0.  0.
   214  2.13  0.  0.
   215  2.14  0.  0.
   216  2.15  0.  0.
   217  2.16  0.  0.
   218  2.17  0.  0.
   219  2.18  0.  0.
   220  2.19  0.  0.
   221  2.20  0.  0.
   222  2.21  0.  0.
   223  2.22  0.  0.
   224  2.23  0.  0.
   225  2.24  0.  0.
   226  2.25  0.  0.
   227  2.26  0.  0.
   228  2.27  0.  0.
   229  2.28  0.  0.
   230  2.29  0.  0.
   231  2.30  0.  0.
   232  2.31  0.  0.
   233  2.32  0.  0.
   234  2.33  0.  0.
   235  2.34  0.  0.
   236  2.35  0.  0.
   237  2.36  0.  0.
   238  2.37  0.  0.
   239  2.38  0.  0.
   240  2.39  0.  0.
   241  2.40  0.  0.
   242  2.41  0.  0.
   243  2.42  0.  0.
   244  2.43  0.  0.
   245  2.44  0.  0.
   246  2.45  0.  0.
   247  2.46  0.  0.
   248  2.47  0.  0.
   249  2.48  0.  0.
   250  2.49  0.  0.
   251  2.50  0.  0.
   252  2.51  0.  0.
   253  2.52  0.  0.
   254  2.53  0.  0.
   255  2.54  0.  0.
   256  2.55  0.  0.
   257  2.56  0.  0.
   258  2.57  0.  0.
   259  2.58  0.  0.
   260  2.59  0.  0.
   261  2.60  0.  0.
   262  2.61  0.  0.
   263  2.62  0.  0.
   264  2.63  0.  0.
   265  2.64  0.  0.
   266  2.65  0.  0.
   267  2.66  0.  0.
   268  2.67  0.  0.
   269  2.68  0.  0.
   270  2.69  0.  0.
   271  2.70  0.  0.
   272  2.71  0.  0.
   273  2.72  0.  0.
   274  2.73  0.  0.
   275  2.74  0.  0.
   276  2.75  0.  0.
   277  2.76  0.  0.
   278  2.77  0.  0.
   279  2.78  0.  0.
   280  2.79  0.  0.
   281  2.80  0.  0.
   282  2.81  0.  0.
   283  2.82  0.  0.
   284  2.83  0.  0.
   285  2.84  0.  0.
   286  2.85  0.  0.
   287  2.86  0.  0.
   288  2.87  0.  0.
   289  2.88  0.  0.
   290  2.89  0.  0.
   291  2.90  0.  0.
   292  2.91  0.  0.
   293  2.92  0.  0.
   294  2.93  0.  0.
   295  2.94  0.  0.
   296  2.95  0.  0.
   297  2.96  0.  0.
   298  2.97  0.  0.
   299  2.98  0.  0.
   300  2.99  0.  0.
   301  3.00  0.  0.
   302  3.01  0.  0.
   303  3.02  0.  0.
   304  3.03  0.  0.
   305  3.04  0.  0.
   306  3.05  0.  0.
   307  3.06  0.  0.
   308  3.07  0.  0.
   309  3.08  0.  0.
   310  3.09  0.  0.
   311  3.10  0.  0.
   312  3.11  0.  0.
   313  3.12  0.  0.
   314  3.13  0.  0.
   315  3.14  0.  0.
   316  3.15  0.  0.
   317  3.16  0.  0.
   318  3.17  0.  0.
   319  3.18  0.  0.
   320  3.19  0.  0.
   321  3.20  0.  0.
   322  3.21  0.  0.
   323  3.22  0.  0.
   324  3.23  0.  0.
   325  3.24  0.  0.
   326  3.25  0.  0.
   327  3.26  0.  0.
   328  3.27  0.  0.
   329  3.28  0.  0.
   330  3.29  0.  0.
   331  3.30  0.  0.
   332  3.31  0.  0.
   333  3.32  0.  0.
   334  3.33  0.  0.
   335  3.34  0.  0.
   336  3.35  0.  0.
   337  3.36  0.  0.
   338  3.37  0.  0.
   339  3.38  0.  0.
   340  3.39  0.  0.
   341  3.40  0.  0.
   342  3.41  0.  0.
   343  3.42  0.  0.
   344  3.43  0.  0.
   345  3.44  0.  0.
   346  3.45  0.  0.
   347  3.46  0.  0.
   348  3.47  0.  0.
   349  3.48  0.  0.
   350  3.49  0.  0.
   351  3.50  0.  0.
   352  3.51  0.  0.
   353  3.52  0.  0.
   354  3.53  0.  0.
   355  3.54  0.  0.
   356  3.55  0.  0.
   357  3.56  0.  0.
   358  3.57  0.  0.
   359  3.58  0.  0.
   360  3.59  0.  0.
   361  3.60  0.  0.
   362  3.61  0.  0.
   363  3.62  0.  0.
   364  3.63  0.  0.
   365  3.64  0.  0.
   366  3.65  0.  0.
   367  3.66  0.  0.
   368  3.67  0.  0.
   369  3.68  0.  0.
   370  3.69  0.  0.
   371  3.70  0.  0.
   372  3.71  0.  0.
   373  3.72  0.  0.
   374  3.73  0.  0.
   375  3.74  0.  0.
   376  3.75  0.  0.
   377  3.76  0.  0.
   378  3.77  0.  0.
   379  3.78  0.  0.
   380  3.79  0.  0.
   381  3.80  0.  0.
   382  3.81  0.  0.
   383  3.82  0.  0.
   384  3.83  0.  0.
   385  3.84  0.  0.
   386  3.85  0.  0.
   387  3.86  0.  0.
   388  3.87  0.  0.
   389  3.88  0.  0.
   390  3.89  0.  0.
   391  3.90  0.  0.
   392  3.91  0.  0.
   393  3.92  0.  0.
   394  3.93  0.  0.
   395  3.94  0.  0.
   396  3.95  0.  0.
   397  3.96  0.  0.
   398  3.97  0.  0.
   399  3.98  0.  0.
   400  3.99  0.  0.
   401  4.00  0.  0.
   402  4.01  0.  0.
   403  4.02  0.  0.
   404  4.03  0.  0.
   405  4.04  0.  0.
   406  4.05  0.  0.
   407  4.06  0.  0.
   408  4.07  0.  0.
   409  4.08  0.  0.
   410  4.09  0.  0.
   411  4.10  0.  0.
   412  4.11  0.  0.
   413  4.12  0.  0.
   414  4.13  0.  0.
   415  4.14  0.  0.
   416  4.15  0.  0.
   417  4.16  0.  0.
   418  4.17  0.  0.
   419  4.18  0.  0.
   420  4.19  0.  0.
   421  4.20  0.  0.
   422  4.21  0.  0.
   423  4.22  0.  0.
   424  4.23  0.  0.
   425  4.24  0.  0.
   426  4.25  0.  0.
   427  4.26  0.  0.
   428  4.27  0.  0.
   429  4.28  0.  0.
   430  4.29  0.  0.
   431  4.30  0.  0.
   432  4.31  0.  0.
   433  4.32  0.  0.
   434  4.33  0.  0.
   435  4.34  0.  0.
   436  4.35  0.  0.
   437  4.36  0.  0.
   438  4.37  0.  0.
   439  4.38  0.  0.
   440  4.39  0.  0.
   441  4.40  0.  0.
   442  4.41  0.  0.
   443  4.42  0.  0.
   444  4.43  0.  0.
   445  4.44  0.  0.
   446  4.45  0.  0.
   447  4.46  0.  0.
   448  4.47  0.  0.
   449  4.48  0.  0.
   450  4.49  0.  0.
   451  4.50  0.  0.
   452  4.51  0.  0.
   453  4.52  0.  0.
   454  4.53  0.  0.
   455  4.54  0.  0.
   456  4.55  0.  0.
   457  4.56  0.  0.
   458  4.57  0.  0.
   459  4.58  0.  0.
   460  4.59  0.  0.
   461  4.60  0.  0.
   462  4.61  0.  0.
   463  4.62  0.  0.
   464  4.63  0.  0.
   465  4.64  0.  0.
   466  4.65  0.  0.
   467  4.66  0.  0.
   468  4.67  0.  0.
   469  4.68  0.  0.
   470  4.69  0.  0.
   471  4.70  0.  0.
   472  4.71  0.  0.
   473  4.72  0.  0.
   474  4.73  0.  0.
   475  4.74  0.  0.
   476  4.75  0.  0.
   477  4.76  0.  0.
   478  4.77  0.  0.
   479  4.78  0.  0.
   480  4.79  0.  0.
   481  4.80  0.  0.
   482  4.81  0.  0.
   483  4.82  0.  0.
   484  4.83  0.  0.
   485  4.84  0.  0.
   486  4.85  0.  0.
   487  4.86  0.  0.
   488  4.87  0.  0.
   489  4.88  0.  0.
   490  4.89  0.  0.
   491  4.90  0.  0.
   492  4.91  0.  0.
   493  4.92  0.  0.
   494  4.93  0.  0.
   495  4.94  0.  0.
   496  4.95  0.  0.
   497  4.96  0.  0.
   498  4.97  0.  0.
   499  4.98  0.  0.
   500  4.99  0.  0.
   501  5.00  0.  0.
   502  5.01  0.  0.
   503  5.02  0.  0.
   504  5.03  0.  0.
   505  5.04  0.  0.
   506  5.05  0.  0.
   507  5.06  0.  0.
   508  5.07  0.  0.
   509  5.08  0.  0.
   510  5.09  0.  0.
   511  5.10  0.  0.
   512  5.11  0.  0.
   513  5.12  0.  0.
   514  5.13  0.  0.
   515  5.14  0.  0.
   516  5.15  0.  0.
   517  5.16  0.  0.
   518  5.17  0.  0.
   519  5.18  0.  0.
   520  5.19  0.  0.
   521  5.20  0.  0.
   522  5.21  0.  0.
   523  5.22  0.  0.
   524  5.23  0.  0.
   525  5.24  0.  0.
   526  5.25  0.  0.
   527  5.26  0.  0.
   528  5.27  0.  0.
   529  5.28  0.  0.
   530  5.29  0.  0.
   531  5.30  0.  0.
   532  5.31  0.  0.
   533  5.32  0.  0.
   534  5.33  0.  0.
   535  5.34  0.  0.
   536  5.35  0.  0.
   537  5.36  0.  0.
   538  5.37  0.  0.
   539  5.38  0.  0.
   540  5.39  0.  0.
   541  5.40  0.  0.
   542  5.41  0.  0.
   543  5.42  0.  0.
   544  5.43  0.  0.
   545  5.44  0.  0.
   546  5.45  0.  0.
   547  5.46  0.  0.
   548  5.47  0.  0.
   549  5.48  0.  0.
   550  5.49  0.  0.
   551  5.50  0.  0.
   552  5.51  0.  0.
   553  5.52  0.  0.
   554  5.53  0.  0.
   555  5.54  0.  0.
   556  5.55  0.  0.
   557  5.56  0.  0.
   558  5.57  0.  0.
   559  5.58  0.  0.
   560  5.59  0.  0.
   561  5.60  0.  0.
   562  5.61  0.  0.
   563  5.62  0.  0.
   564  5.63  0.  0.
   565  5.64  0.  0.
   566  5.65  0.  0.
   567  5.66  0.  0.
   568  5.67  0.  0.
   569  5.68  0.  0.
   570  5.69  0.  0.
   571  5.70  0.  0.
   572  5.71  0.  0.
   573  5.72  0.  0.
   574  5.73  0.  0.
   575  5.74  0.  0.
   576  5.75  0.  0.
   577  5.76  0.  0.
   578  5.77  0.  0.
   579  5.78  0.  0.
   580  5.79  0.  0.
   581  5.80  0.  0.
   582  5.81  0.  0.
   583  5.82  0.  0.
   584  5.83  0.  0.
   585  5.84  0.  0.
   586  5.85  0.  0.
   587  5.86  0.  0.
   588  5.87  0.  0.
   589  5.88  0.  0.
   590  5.89  0.  0.
   591  5.90  0.  0.
   592  5.91  0.  0.
   593  5.92  0.  0.
   594  5.93  0.  0.
   595  5.94  0.  0.
   596  5.95  0.  0.
   597  5.96  0.  0.
   598  5.97  0.  0.
   599  5.98  0.  0.
   600  5.99  0.  0.
   1                         2.7704674627758E+00  3.2789824570185E-01
     1  0.0000000000000E+00 -1.1073513328519E-08  2.8776014789761E-08
     2  1.0000000000000E-02  1.9761669351023E-03 -4.2924604115812E-04
     3  2.0000000000000E-02  7.9009624816697E-03 -1.7254137369430E-03
     4  3.0000000000000E-02  1.7763083351552E-02 -3.9132547327412E-03
     5  4.0000000000000E-02  3.1543072926200E-02 -7.0322504164474E-03
     6  5.0000000000000E-02  4.9212419650686E-02 -1.1134020397862E-02
     7  6.0000000000000E-02  7.0732344202390E-02 -1.6278823319479E-02
     8  7.0000000000000E-02  9.6052323040653E-02 -2.2531274142428E-02
     9  8.0000000000000E-02  1.2510840701721E-01 -2.9955430827352E-02
    10  9.0000000000000E-02  1.5782140300376E-01 -3.8609427354017E-02
    11  1.0000000000000E-01  1.9409499368222E-01 -4.8539848533328E-02
    12  1.1000000000000E-01  2.3381387551324E-01 -5.9776054457857E-02
    13  1.2000000000000E-01  2.7684199728345E-01 -7.2324668283722E-02
    14  1.3000000000000E-01  3.2302098144058E-01 -8.6164440114313E-02
    15  1.4000000000000E-01  3.7216880763758E-01 -1.0124169202838E-01
    16  1.5000000000000E-01  4.2407883258047E-01 -1.1746653493612E-01
    17  1.6000000000000E-01  4.7851921253942E-01 -1.3471002732664E-01
    18  1.7000000000000E-01  5.3523278494308E-01 -1.5280241964862E-01
    19  1.8000000000000E-01  5.9393745359623E-01 -1.7153259677425E-01
    20  1.9000000000000E-01  6.5432710857072E-01 -1.9064879562499E-01
    21  2.0000000000000E-01  7.1607309709030E-01 -2.0986063659940E-01
    22  2.1000000000000E-01  7.7882624617979E-01 -2.2884246705874E-01
    23  2.2000000000000E-01  8.4221942191716E-01 -2.4723797398092E-01
    24  2.3000000000000E-01  9.0587059427362E-01 -2.6466598221198E-01
    25  2.4000000000000E-01  9.6938636120989E-01 -2.8072731575045E-01
    26  2.5000000000000E-01  1.0323658713684E+00 -2.9501256338363E-01
    27  2.6000000000000E-01  1.0944050717860E+00 -3.0711055787951E-01
    28  2.7000000000000E-01  1.1551011959427E+00 -3.1661735083973E-01
    29  2.8000000000000E-01  1.2140573985027E+00 -3.2314544412929E-01
    30  2.9000000000000E-01  1.2708874365840E+00 -3.2633302424320E-01
    31  3.0000000000000E-01  1.3252202935288E+00 -3.2585293859653E-01
    32  3.1000000000000E-01  1.3767046401016E+00 -3.2142115287962E-01
    33  3.2000000000000E-01  1.4250130298686E+00 -3.1280443643857E-01
    34  3.3000000000000E-01  1.4698457302226E+00 -2.9982703803840E-01
    35  3.4000000000000E-01  1.5109340980116E+00 -2.8237613704062E-01
    36  3.5000000000000E-01  1.5480434188403E+00 -2.6040588445850E-01
    37  3.6000000000000E-01  1.5809751416083E+00 -2.3393988382685E-01
    38  3.7000000000000E-01  1.6095684543958E+00 -2.0307200243157E-01
    39  3.8000000000000E-01  1.6337011640549E+00 -1.6796544812442E-01
    40  3.9000000000000E-01  1.6532898593680E+00 -1.2885009450098E-01
    41  4.0000000000000E-01  1.6682893559355E+00 -8.6018086342454E-02
    42  4.1000000000000E-01  1.6786914395586E+00 -3.9817806545370E-02
    43  4.2000000000000E-01  1.6845229432706E+00  9.3536661083475E-03
    44  4.3000000000000E-01  1.6858432108451E+00  6.1059433450348E-02
    45  4.4000000000000E-01  1.6827410160549E+00  1.1483277219188E-01
    46  4.5000000000000E-01  1.6753310217142E+00  1.7018799303104E-01
    47  4.6000000000000E-01  1.6637498751737E+00  2.2663188157095E-01
    48  4.7000000000000E-01  1.6481520470683E+00  2.8367541521168E-01
    49  4.8000000000000E-01  1.6287055274353E+00  3.4084543546255E-01
    50  4.9000000000000E-01  1.6055874975788E+00  3.9769594907733E-01
    51  5.0000000000000E-01  1.5789800970943E+00  4.5381873439468E-01
    52  5.1000000000000E-01  1.5490664032128E+00  5.0885294137673E-01
    53  5.2000000000000E-01  1.5160267340905E+00  5.6249339493816E-01
    54  5.3000000000000E-01  1.4800353789620E+00  6.1449734085081E-01
    55  5.4000000000000E-01  1.4412578463875E+00  6.6468941115431E-01
    56  5.5000000000000E-01  1.3998487074388E+00  7.1296463073293E-01
    57  5.6000000000000E-01  1.3559500939330E+00  7.5928933744737E-01
    58  5.7000000000000E-01  1.3096908931762E+00  8.0369994367033E-01
    59  5.8000000000000E-01  1.2611866605933E+00  8.4629952584257E-01
    60  5.9000000000000E-01  1.2105402506368E+00  8.8725228920116E-01
    61  6.0000000000000E-01  1.1578431450479E+00  9.2677601551184E-01
    62  6.1000000000000E-01  1.1031774364669E+00  9.6513266080854E-01
    63  6.2000000000000E-01  1.0466184051462E+00  1.0026173261555E+00
    64  6.3000000000000E-01  9.8823760768044E-01  1.0395458757066E+00
    65  6.4000000000000E-01  9.2810637976749E-01  1.0762415213456E+00
    66  6.5000000000000E-01  8.6629964056526E-01  1.1130207305874E+00
    67  6.6000000000000E-01  8.0289987463595E-01  1.1501788430286E+00
    68  6.7000000000000E-01  7.3800115915318E-01  1.1879757994818E+00
    69  6.8000000000000E-01  6.7171309926796E-01  1.2266223962926E+00
    70  6.9000000000000E-01  6.0416453348673E-01  1.2662674747601E+00
    71  7.0000000000000E-01  5.3550687370520E-01  1.3069864418835E+00
    72  7.1000000000000E-01  4.6591695116313E-01  1.3487714939668E+00
    73  7.2000000000000E-01  3.9559924993196E-01  1.3915238793293E+00
    74  7.3000000000000E-01  3.2478742340871E-01  1.4350484912119E+00
    75  7.4000000000000E-01  2.5374500636355E-01  1.4790510279068E+00
    76  7.5000000000000E-01  1.8276525497464E-01  1.5231378954018E+00
    77  7.6000000000000E-01  1.1217006950357E-01  1.5668189599000E+00
    78  7.7000000000000E-01  4.2307978271193E-02  1.6095131850778E+00
    79  7.8000000000000E-01 -2.6448813223857E-02  1.6505571137068E+00
    80  7.9000000000000E-01 -9.3708278488027E-02  1.6892160771861E+00
    81  8.0000000000000E-01 -1.5906327639139E-01  1.7246979415882E+00
    82  8.1000000000000E-01 -2.2209702783130E-01  1.7561691269900E+00
    83  8.2000000000000E-01 -2.8238925958013E-01  1.7827725700708E+00
    84  8.3000000000000E-01 -3.3952289108577E-01  1.8036472400621E+00
    85  8.4000000000000E-01 -3.9309112161814E-01  1.8179487668108E+00
    86  8.5000000000000E-01 -4.4270476005218E-01  1.8248706984801E+00
    87  8.6000000000000E-01 -4.8799962820660E-01  1.8236658765289E+00
    88  8.7000000000000E-01 -5.2864386138646E-01  1.8136673980768E+00
    89  8.8000000000000E-01 -5.6434492687602E-01  1.7943086312827E+00
    90  8.9000000000000E-01 -5.9485618275513E-01  1.7651417583113E+00
    91  9.0000000000000E-01 -6.1998280561108E-01  1.7258543428700E+00
    92  9.1000000000000E-01 -6.3958692641595E-01  1.6762834548682E+00
    93  9.2000000000000E-01 -6.5359182884433E-01  1.6164269328241E+00
    94  9.3000000000000E-01 -6.6198508331282E-01  1.5464514242436E+00
    95  9.4000000000000E-01 -6.6482051261880E-01  1.4666969140403E+00
    96  9.5000000000000E-01 -6.6221891072681E-01  1.3776775295676E+00
    97  9.6000000000000E-01 -6.5436746440012E-01  1.2800784961926E+00
    98  9.7000000000000E-01 -6.4151785733214E-01  1.1747492075322E+00
    99  9.8000000000000E-01 -6.2398306745890E-01  1.0626924672938E+00
   100  9.9000000000000E-01 -6.0213289949043E-01  9.4505005291664E-01
   101  1.0000000000000E+00 -5.7638832556949E-01  8.2308484248404E-01
   102  1.0100000000000E+00 -5.4721473658677E-01  6.9815983342341E-01
   103  1.0200000000000E+00 -5.1511423428500E-01  5.7171446209002E-01
   104  1.0300000000000E+00 -4.8061711915920E-01  4.4523870536155E-01
   105  1.0400000000000E+00 -4.4427275061602E-01  3.2024550686192E-01
   106  1.0500000000000E+00 -4.0663997334317E-01  1.9824211980870E-01
   107  1.0600000000000E+00 -3.6827731685107E-01  8.0700994281295E-02
   108  1.0700000000000E+00 -3.2973318328935E-01 -3.0969142157404E-02
   109  1.0800000000000E+00 -2.9153624167247E-01 -1.3545135573869E-01
   110  1.0900000000000E+00 -2.5418624439287E-01 -2.3154708488306E-01
   111  1.1000000000000E+00 -2.1814547439694E-01 -3.1820060649018E-01
   112  1.1100000000000E+00 -1.8383101868474E-01 -3.9452081190158E-01
   113  1.1200000000000E+00 -1.5160804627076E-01 -4.5979976947781E-01
   114  1.1300000000000E+00 -1.2178424654333E-01 -5.1352761964908E-01
   115  1.1400000000000E+00 -9.4605557934886E-02 -5.5540342835568E-01
   116  1.1500000000000E+00 -7.0253287087610E-02 -5.8534171562985E-01
   117  1.1600000000000E+00 -4.8842686544095E-02 -6.0347447382327E-01
   118  1.1700000000000E+00 -3.0423024507623E-02 -6.1014859438073E-01
   119  1.1800000000000E+00 -1.4979144928227E-02 -6.0591872851294E-01
   120  1.1900000000000E+00 -2.4344802519358E-03 -5.9153571513594E-01
   121  1.2000000000000E+00  7.3445559232421E-03 -5.6793081467271E-01
   122  1.2100000000000E+00  1.4542902851041E-02 -5.3619608840709E-01
   123  1.2200000000000E+00  1.9390051405945E-02 -4.9756135711234E-01
   124  1.2300000000000E+00  2.2152274076627E-02 -4.5336825694330E-01
   125  1.2400000000000E+00  2.3124077461563E-02 -4.0504198406014E-01
   126  1.2500000000000E+00  2.2619088745015E-02 -3.5406137894876E-01
   127  1.2600000000000E+00  2.0960608410016E-02 -3.0192805665384E-01
   128  1.2700000000000E+00  1.8471996807388E-02 -2.5013517793083E-01
   129  1.2800000000000E+00  1.5467496192469E-02 -2.0013726425360E-01
   130  1.2900000000000E+00  1.2236227043044E-02 -1.5330759478959E-01
   131  1.3000000000000E+00  9.0190725867201E-03 -1.1088120966837E-01
   132  1.3100000000000E+00  6.0612060985254E-03 -7.4045127377951E-02
   133  1.3200000000000E+00  3.5685394326179E-03 -4.3842783126641E-02
   134  1.3300000000000E+00  1.6889436312064E-03 -2.1117122612720E-02
   135  1.3400000000000E+00  4.9986570611652E-04 -6.4245599019779E-03
   136  1.3500000000000E+00  2.9554017136087E-05 -3.8076041897729E-04
   137  1.3600000000000E+00 -7.9809269159281E-07  1.1440866148154E-05
   138  1.3700000000000E+00 -2.8828489604428E-07  3.9579651233916E-06
   139  1.38  0.  0.
   140  1.39  0.  0.
   141  1.40  0.  0.
   142  1.41  0.  0.
   143  1.42  0.  0.
   144  1.43  0.  0.
   145  1.44  0.  0.
   146  1.45  0.  0.
   147  1.46  0.  0.
   148  1.47  0.  0.
   149  1.48  0.  0.
   150  1.49  0.  0.
   151  1.50  0.  0.
   152  1.51  0.  0.
   153  1.52  0.  0.
   154  1.53  0.  0.
   155  1.54  0.  0.
   156  1.55  0.  0.
   157  1.56  0.  0.
   158  1.57  0.  0.
   159  1.58  0.  0.
   160  1.59  0.  0.
   161  1.60  0.  0.