Sc    ONCVPSP-4.0.1  r_core=   1.35225   1.35225   1.65725
     21.0000     11.0000      231019    zatom,zion,pspd
     8       2   2     4   600     0    pspcod,pspxc,lmax,lloc,mmax,r2well
  5.99000000  5.00000000  0.00000000    rchrg fchrg qchrg
     2     2     2     0     0    nproj
     1     1           extension_switch
   0                         1.0704381862926E+01  9.1317088983223E-01
     1  0.0000000000000E+00 -2.6063268210308E-09  8.1707266508246E-09
     2  1.0000000000000E-02  7.7076993632393E-02 -3.1543070602668E-02
     3  2.0000000000000E-02  1.5398118231259E-01 -6.2956694245455E-02
     4  3.0000000000000E-02  2.3054047793727E-01 -9.4112008699487E-02
     5  4.0000000000000E-02  3.0658420864251E-01 -1.2488127968068E-01
     6  5.0000000000000E-02  3.8194378399572E-01 -1.5513836330531E-01
     7  6.0000000000000E-02  4.5645331065752E-01 -1.8475905300348E-01
     8  7.0000000000000E-02  5.2995014522860E-01 -2.1362128255664E-01
     9  8.0000000000000E-02  6.0227537360289E-01 -2.4160516509605E-01
    10  9.0000000000000E-02  6.7327420921532E-01 -2.6859285744277E-01
    11  1.0000000000000E-01  7.4279630598273E-01 -2.9446824967648E-01
    12  1.1000000000000E-01  8.1069598535890E-01 -3.1911649083486E-01
    13  1.2000000000000E-01  8.7683238061797E-01 -3.4242337268023E-01
    14  1.3000000000000E-01  9.4106950510102E-01 -3.6427460403073E-01
    15  1.4000000000000E-01  1.0032762545629E+00 -3.8455501774812E-01
    16  1.5000000000000E-01  1.0633263568037E+00 -4.0314776064434E-01
    17  1.6000000000000E-01  1.1210982843330E+00 -4.1993352289431E-01
    18  1.7000000000000E-01  1.1764751477883E+00 -4.3478986767052E-01
    19  1.8000000000000E-01  1.2293445891136E+00 -4.4759072336630E-01
    20  1.9000000000000E-01  1.2795986940417E+00 -4.5820609976059E-01
    21  2.0000000000000E-01  1.3271339431633E+00 -4.6650208570624E-01
    22  2.1000000000000E-01  1.3718512198054E+00 -4.7234117941096E-01
    23  2.2000000000000E-01  1.4136558910850E+00 -4.7558299324317E-01
    24  2.3000000000000E-01  1.4524579759087E+00 -4.7608536346096E-01
    25  2.4000000000000E-01  1.4881724104199E+00 -4.7370588165404E-01
    26  2.5000000000000E-01  1.5207194175531E+00 -4.6830384942220E-01
    27  2.6000000000000E-01  1.5500249830695E+00 -4.5974264138334E-01
    28  2.7000000000000E-01  1.5760214358483E+00 -4.4789244456532E-01
    29  2.8000000000000E-01  1.5986481254650E+00 -4.3263332519054E-01
    30  2.9000000000000E-01  1.6178521853535E+00 -4.1385855743762E-01
    31  3.0000000000000E-01  1.6335893653102E+00 -3.9147813359002E-01
    32  3.1000000000000E-01  1.6458249129033E+00 -3.6542236166786E-01
    33  3.2000000000000E-01  1.6545344796848E+00 -3.3564544575934E-01
    34  3.3000000000000E-01  1.6597050250935E+00 -3.0212893632926E-01
    35  3.4000000000000E-01  1.6613356887300E+00 -2.6488493321257E-01
    36  3.5000000000000E-01  1.6594386003762E+00 -2.2395892313015E-01
    37  3.6000000000000E-01  1.6540395968099E+00 -1.7943213660654E-01
    38  3.7000000000000E-01  1.6451788151726E+00 -1.3142331621624E-01
    39  3.8000000000000E-01  1.6329111344014E+00 -8.0089799095376E-02
    40  3.9000000000000E-01  1.6173064390227E+00 -2.5627831453863E-02
    41  4.0000000000000E-01  1.5984496833611E+00  3.1727948902543E-02
    42  4.1000000000000E-01  1.5764407388635E+00  9.1705904714579E-02
    43  4.2000000000000E-01  1.5513940126516E+00  1.5399968495125E-01
    44  4.3000000000000E-01  1.5234378314491E+00  2.1827139727887E-01
    45  4.4000000000000E-01  1.4927135915105E+00  2.8415563385758E-01
    46  4.5000000000000E-01  1.4593746819112E+00  3.5126429002098E-01
    47  4.6000000000000E-01  1.4235851953419E+00  4.1919208898532E-01
    48  4.7000000000000E-01  1.3855184471615E+00  4.8752270075716E-01
    49  4.8000000000000E-01  1.3453553296981E+00  5.5583532071398E-01
    50  4.9000000000000E-01  1.3032825344257E+00  6.2371155372471E-01
    51  5.0000000000000E-01  1.2594906794927E+00  6.9074243389580E-01
    52  5.1000000000000E-01  1.2141723839684E+00  7.5653539871751E-01
    53  5.2000000000000E-01  1.1675203329317E+00  8.2072103007047E-01
    54  5.3000000000000E-01  1.1197253790594E+00  8.8295937362470E-01
    55  5.4000000000000E-01  1.0709747265663E+00  9.4294565285558E-01
    56  5.5000000000000E-01  1.0214502421808E+00  1.0004152042852E+00
    57  5.6000000000000E-01  9.7132693528900E-01  1.0551474765223E+00
    58  5.7000000000000E-01  9.2077164549517E-01  1.1069689569462E+00
    59  5.8000000000000E-01  8.6994197069693E-01  1.1557549159990E+00
    60  5.9000000000000E-01  8.1898546249237E-01  1.2014298894043E+00
    61  6.0000000000000E-01  7.6803910847502E-01  1.2439668524464E+00
    62  6.1000000000000E-01  7.1722911293067E-01  1.2833850768359E+00
    63  6.2000000000000E-01  6.6667097884891E-01  1.3197466986344E+00
    64  6.3000000000000E-01  6.1646988525032E-01  1.3531520641463E+00
    65  6.4000000000000E-01  5.6672134486955E-01  1.3837339584660E+00
    66  6.5000000000000E-01  5.1751211849663E-01  1.4116508573531E+00
    67  6.6000000000000E-01  4.6892135403530E-01  1.4370793761588E+00
    68  6.7000000000000E-01  4.2102191085156E-01  1.4602061185822E+00
    69  6.8000000000000E-01  3.7388182350422E-01  1.4812191520893E+00
    70  6.9000000000000E-01  3.2756585369626E-01  1.5002993550265E+00
    71  7.0000000000000E-01  2.8213707545090E-01  1.5176118920728E+00
    72  7.1000000000000E-01  2.3765843625417E-01  1.5332980791611E+00
    73  7.2000000000000E-01  1.9419423632472E-01  1.5474678960023E+00
    74  7.3000000000000E-01  1.5181146933394E-01  1.5601933937312E+00
    75  7.4000000000000E-01  1.1058097081562E-01  1.5715032270358E+00
    76  7.5000000000000E-01  7.0578325132993E-02  1.5813785147366E+00
    77  7.6000000000000E-01  3.1884488117015E-02  1.5897502006787E+00
    78  7.7000000000000E-01 -5.4139097895290E-03  1.5964980487132E+00
    79  7.8000000000000E-01 -4.1224606045922E-02  1.6014513624147E+00
    80  7.9000000000000E-01 -7.5450110300670E-02  1.6043914731036E+00
    81  8.0000000000000E-01 -1.0798847574326E-01  1.6050559899649E+00
    82  8.1000000000000E-01 -1.3873443151348E-01  1.6031447549321E+00
    83  8.2000000000000E-01 -1.6758085871019E-01  1.5983273939682E+00
    84  8.3000000000000E-01 -1.9442058127200E-01  1.5902523068914E+00
    85  8.4000000000000E-01 -2.1914843225061E-01  1.5785568914141E+00
    86  8.5000000000000E-01 -2.4166354609223E-01  1.5628787549991E+00
    87  8.6000000000000E-01 -2.6187181879559E-01  1.5428676318027E+00
    88  8.7000000000000E-01 -2.7968847051057E-01  1.5181976925483E+00
    89  8.8000000000000E-01 -2.9504063952900E-01  1.4885799136788E+00
    90  8.9000000000000E-01 -3.0786993290278E-01  1.4537741593684E+00
    91  9.0000000000000E-01 -3.1813485726059E-01  1.4136006265380E+00
    92  9.1000000000000E-01 -3.2581305387887E-01  1.3679503092205E+00
    93  9.2000000000000E-01 -3.3090326473648E-01  1.3167941545480E+00
    94  9.3000000000000E-01 -3.3342696111901E-01  1.2601906080602E+00
    95  9.4000000000000E-01 -3.3342957325415E-01  1.1982912804919E+00
    96  9.5000000000000E-01 -3.3098126830214E-01  1.1313445109348E+00
    97  9.6000000000000E-01 -3.2617723459202E-01  1.0596966512928E+00
    98  9.7000000000000E-01 -3.1913744202377E-01  9.8379095305126E-01
    99  9.8000000000000E-01 -3.1000586173748E-01  9.0416399811434E-01
   100  9.9000000000000E-01 -2.9894914214963E-01  8.2143967931488E-01
   101  1.0000000000000E+00 -2.8615475288340E-01  7.3632080142029E-01
   102  1.0100000000000E+00 -2.7182862258946E-01  6.4957843831295E-01
   103  1.0200000000000E+00 -2.5619231075886E-01  5.6203924472849E-01
   104  1.0300000000000E+00 -2.3947976697837E-01  4.7457097975373E-01
   105  1.0400000000000E+00 -2.2193374326749E-01  3.8806655247019E-01
   106  1.0500000000000E+00 -2.0380193582442E-01  3.0342694619659E-01
   107  1.0600000000000E+00 -1.8533294136524E-01  2.2154341532578E-01
   108  1.0700000000000E+00 -1.6677211997545E-01  1.4327937653314E-01
   109  1.0800000000000E+00 -1.4835746080830E-01  6.9452433338764E-02
   110  1.0900000000000E+00 -1.3031554886829E-01  8.1697885344479E-04
   111  1.1000000000000E+00 -1.1285773044487E-01 -6.1952184192694E-02
   112  1.1100000000000E+00 -9.6176571450137E-02 -1.1827478456256E-01
   113  1.1200000000000E+00 -8.0442697068955E-02 -1.6767819195315E-01
   114  1.1300000000000E+00 -6.5802092776248E-02 -2.0980834181289E-01
   115  1.1400000000000E+00 -5.2373936244885E-02 -2.4443817197566E-01
   116  1.1500000000000E+00 -4.0249017013375E-02 -2.7147332622373E-01
   117  1.1600000000000E+00 -2.9488786569226E-02 -2.9095494525342E-01
   118  1.1700000000000E+00 -2.0125065796552E-02 -3.0305943728556E-01
   119  1.1800000000000E+00 -1.2160420259293E-02 -3.0809519545537E-01
   120  1.1900000000000E+00 -5.5691966595373E-03 -3.0649630663581E-01
   121  1.2000000000000E+00 -2.9919675088554E-04 -2.9881337322994E-01
   122  1.2100000000000E+00  3.7260517359653E-03 -2.8570164454962E-01
   123  1.2200000000000E+00  6.6044834636306E-03 -2.6790672536352E-01
   124  1.2300000000000E+00  8.4522139680566E-03 -2.4624819382819E-01
   125  1.2400000000000E+00  9.3998719981985E-03 -2.2160151839703E-01
   126  1.2500000000000E+00  9.5886402365710E-03 -1.9487871080713E-01
   127  1.2600000000000E+00  9.1661089974036E-03 -1.6700819317522E-01
   128  1.2700000000000E+00  8.2820310604178E-03 -1.3891433067593E-01
   129  1.2800000000000E+00  7.0841985776404E-03 -1.1149738810443E-01
   130  1.2900000000000E+00  5.7123303671622E-03 -8.5609161707663E-02
   131  1.3000000000000E+00  4.2901522433606E-03 -6.2023709147340E-02
   132  1.3100000000000E+00  2.9396209147898E-03 -4.1463663140353E-02
   133  1.3200000000000E+00  1.7664862275263E-03 -2.4557756505546E-02
   134  1.3300000000000E+00  8.5374737792591E-04 -1.1813463070247E-02
   135  1.3400000000000E+00  2.5587229792845E-04 -3.5680683561273E-03
   136  1.3500000000000E+00  1.1595218264062E-05 -1.8166145034834E-04
   137  1.3600000000000E+00 -5.5290221417809E-07  7.2969258195804E-06
   138  1.3700000000000E+00 -2.0212024147736E-07  2.5984380312038E-06
   139  1.38  0. -0.
   140  1.39  0.  0.
   141  1.40  0.  0.
   142  1.41  0.  0.
   143  1.42  0.  0.
   144  1.43  0.  0.
   145  1.44  0.  0.
   146  1.45  0.  0.
   147  1.46  0.  0.
   148  1.47  0.  0.
   149  1.48  0.  0.
   150  1.49  0.  0.
   151  1.50  0.  0.
   152  1.51  0.  0.
   153  1.52  0.  0.
   154  1.53  0.  0.
   155  1.54  0.  0.
   156  1.55  0.  0.
   157  1.56  0.  0.
   158  1.57  0.  0.
   159  1.58  0.  0.
   160  1.59  0.  0.
   161  1.60  0.  0.
   162  1.61  0.  0.
   163  1.62  0.  0.
   164  1.63  0.  0.
   165  1.64  0.  0.
   166  1.65  0.  0.
   167  1.66  0.  0.
   168  1.67  0.  0.
   169  1.68  0.  0.
   170  1.69  0.  0.
   171  1.70  0.  0.
   172  1.71  0.  0.
   173  1.72  0.  0.
   174  1.73  0.  0.
   175  1.74  0.  0.
   176  1.75  0.  0.
   177  1.76  0.  0.
   178  1.77  0.  0.
   179  1.78  0.  0.
   180  1.79  0.  0.
   181  1.80  0.  0.
   182  1.81  0.  0.
   183  1.82  0.  0.
   184  1.83  0.  0.
   185  1.84  0.  0.
   186  1.85  0.  0.
   187  1.86  0.  0.
   188  1.87  0.  0.
   189  1.88  0.  0.
   190  1.89  0.  0.
   191  1.90  0.  0.
   192  1.91  0.  0.
   193  1.92  0.  0.
   194  1.93  0.  0.
   195  1.94  0.  0.
   196  1.95  0.  0.
   197  1.96  0.  0.
   198  1.97  0.  0.
   199  1.98  0.  0.
   200  1.99  0.  0.
   201  2.00  0.  0.
   202  2.01  0.  0.
   203  2.02  0.  0.
   204  2.03  0.  0.
   205  2.04  0.  0.
   206  2.05  0.  0.
   207  2.06  0.  0.
   208  2.07  0.  0.
   209  2.08  0.  0.
   210  2.09  0.  0.
   211  2.10  0.  0.
   212  2.11  0.  0.
   213  2.12  0.  0.
   214  2.13  0.  0.
   215  2.14  0.  0.
   216  2.15  0.  0.
   217  2.16  0.  0.
   218  2.17  0.  0.
   219  2.18  0.  0.
   220  2.19  0.  0.
   221  2.20  0.  0.
   222  2.21  0.  0.
   223  2.22  0.  0.
   224  2.23  0.  0.
   225  2.24  0.  0.
   226  2.25  0.  0.
   227  2.26  0.  0.
   228  2.27  0.  0.
   229  2.28  0.  0.
   230  2.29  0.  0.
   231  2.30  0.  0.
   232  2.31  0.  0.
   233  2.32  0.  0.
   234  2.33  0.  0.
   235  2.34  0.  0.
   236  2.35  0.  0.
   237  2.36  0.  0.
   238  2.37  0.  0.
   239  2.38  0.  0.
   240  2.39  0.  0.
   241  2.40  0.  0.
   242  2.41  0.  0.
   243  2.42  0.  0.
   244  2.43  0.  0.
   245  2.44  0.  0.
   246  2.45  0.  0.
   247  2.46  0.  0.
   248  2.47  0.  0.
   249  2.48  0.  0.
   250  2.49  0.  0.
   251  2.50  0.  0.
   252  2.51  0.  0.
   253  2.52  0.  0.
   254  2.53  0.  0.
   255  2.54  0.  0.
   256  2.55  0.  0.
   257  2.56  0.  0.
   258  2.57  0.  0.
   259  2.58  0.  0.
   260  2.59  0.  0.
   261  2.60  0.  0.
   262  2.61  0.  0.
   263  2.62  0.  0.
   264  2.63  0.  0.
   265  2.64  0.  0.
   266  2.65  0.  0.
   267  2.66  0.  0.
   268  2.67  0.  0.
   269  2.68  0.  0.
   270  2.69  0.  0.
   271  2.70  0.  0.
   272  2.71  0.  0.
   273  2.72  0.  0.
   274  2.73  0.  0.
   275  2.74  0.  0.
   276  2.75  0.  0.
   277  2.76  0.  0.
   278  2.77  0.  0.
   279  2.78  0.  0.
   280  2.79  0.  0.
   281  2.80  0.  0.
   282  2.81  0.  0.
   283  2.82  0.  0.
   284  2.83  0.  0.
   285  2.84  0.  0.
   286  2.85  0.  0.
   287  2.86  0.  0.
   288  2.87  0.  0.
   289  2.88  0.  0.
   290  2.89  0.  0.
   291  2.90  0.  0.
   292  2.91  0.  0.
   293  2.92  0.  0.
   294  2.93  0.  0.
   295  2.94  0.  0.
   296  2.95  0.  0.
   297  2.96  0.  0.
   298  2.97  0.  0.
   299  2.98  0.  0.
   300  2.99  0.  0.
   301  3.00  0.  0.
   302  3.01  0.  0.
   303  3.02  0.  0.
   304  3.03  0.  0.
   305  3.04  0.  0.
   306  3.05  0.  0.
   307  3.06  0.  0.
   308  3.07  0.  0.
   309  3.08  0.  0.
   310  3.09  0.  0.
   311  3.10  0.  0.
   312  3.11  0.  0.
   313  3.12  0.  0.
   314  3.13  0.  0.
   315  3.14  0.  0.
   316  3.15  0.  0.
   317  3.16  0.  0.
   318  3.17  0.  0.
   319  3.18  0.  0.
   320  3.19  0.  0.
   321  3.20  0.  0.
   322  3.21  0.  0.
   323  3.22  0.  0.
   324  3.23  0.  0.
   325  3.24  0.  0.
   326  3.25  0.  0.
   327  3.26  0.  0.
   328  3.27  0.  0.
   329  3.28  0.  0.
   330  3.29  0.  0.
   331  3.30  0.  0.
   332  3.31  0.  0.
   333  3.32  0.  0.
   334  3.33  0.  0.
   335  3.34  0.  0.
   336  3.35  0.  0.
   337  3.36  0.  0.
   338  3.37  0.  0.
   339  3.38  0.  0.
   340  3.39  0.  0.
   341  3.40  0.  0.
   342  3.41  0.  0.
   343  3.42  0.  0.
   344  3.43  0.  0.
   345  3.44  0.  0.
   346  3.45  0.  0.
   347  3.46  0.  0.
   348  3.47  0.  0.
   349  3.48  0.  0.
   350  3.49  0.  0.
   351  3.50  0.  0.
   352  3.51  0.  0.
   353  3.52  0.  0.
   354  3.53  0.  0.
   355  3.54  0.  0.
   356  3.55  0.  0.
   357  3.56  0.  0.
   358  3.57  0.  0.
   359  3.58  0.  0.
   360  3.59  0.  0.
   361  3.60  0.  0.
   362  3.61  0.  0.
   363  3.62  0.  0.
   364  3.63  0.  0.
   365  3.64  0.  0.
   366  3.65  0.  0.
   367  3.66  0.  0.
   368  3.67  0.  0.
   369  3.68  0.  0.
   370  3.69  0.  0.
   371  3.70  0.  0.
   372  3.71  0.  0.
   373  3.72  0.  0.
   374  3.73  0.  0.
   375  3.74  0.  0.
   376  3.75  0.  0.
   377  3.76  0.  0.
   378  3.77  0.  0.
   379  3.78  0.  0.
   380  3.79  0.  0.
   381  3.80  0.  0.
   382  3.81  0.  0.
   383  3.82  0.  0.
   384  3.83  0.  0.
   385  3.84  0.  0.
   386  3.85  0.  0.
   387  3.86  0.  0.
   388  3.87  0.  0.
   389  3.88  0.  0.
   390  3.89  0.  0.
   391  3.90  0.  0.
   392  3.91  0.  0.
   393  3.92  0.  0.
   394  3.93  0.  0.
   395  3.94  0.  0.
   396  3.95  0.  0.
   397  3.96  0.  0.
   398  3.97  0.  0.
   399  3.98  0.  0.
   400  3.99  0.  0.
   401  4.00  0.  0.
   402  4.01  0.  0.
   403  4.02  0.  0.
   404  4.03  0.  0.
   405  4.04  0.  0.
   406  4.05  0.  0.
   407  4.06  0.  0.
   408  4.07  0.  0.
   409  4.08  0.  0.
   410  4.09  0.  0.
   411  4.10  0.  0.
   412  4.11  0.  0.
   413  4.12  0.  0.
   414  4.13  0.  0.
   415  4.14  0.  0.
   416  4.15  0.  0.
   417  4.16  0.  0.
   418  4.17  0.  0.
   419  4.18  0.  0.
   420  4.19  0.  0.
   421  4.20  0.  0.
   422  4.21  0.  0.
   423  4.22  0.  0.
   424  4.23  0.  0.
   425  4.24  0.  0.
   426  4.25  0.  0.
   427  4.26  0.  0.
   428  4.27  0.  0.
   429  4.28  0.  0.
   430  4.29  0.  0.
   431  4.30  0.  0.
   432  4.31  0.  0.
   433  4.32  0.  0.
   434  4.33  0.  0.
   435  4.34  0.  0.
   436  4.35  0.  0.
   437  4.36  0.  0.
   438  4.37  0.  0.
   439  4.38  0.  0.
   440  4.39  0.  0.
   441  4.40  0.  0.
   442  4.41  0.  0.
   443  4.42  0.  0.
   444  4.43  0.  0.
   445  4.44  0.  0.
   446  4.45  0.  0.
   447  4.46  0.  0.
   448  4.47  0.  0.
   449  4.48  0.  0.
   450  4.49  0.  0.
   451  4.50  0.  0.
   452  4.51  0.  0.
   453  4.52  0.  0.
   454  4.53  0.  0.
   455  4.54  0.  0.
   456  4.55  0.  0.
   457  4.56  0.  0.
   458  4.57  0.  0.
   459  4.58  0.  0.
   460  4.59  0.  0.
   461  4.60  0.  0.
   462  4.61  0.  0.
   463  4.62  0.  0.
   464  4.63  0.  0.
   465  4.64  0.  0.
   466  4.65  0.  0.
   467  4.66  0.  0.
   468  4.67  0.  0.
   469  4.68  0.  0.
   470  4.69  0.  0.
   471  4.70  0.  0.
   472  4.71  0.  0.
   473  4.72  0.  0.
   474  4.73  0.  0.
   475  4.74  0.  0.
   476  4.75  0.  0.
   477  4.76  0.  0.
   478  4.77  0.  0.
   479  4.78  0.  0.
   480  4.79  0.  0.
   481  4.80  0.  0.
   482  4.81  0.  0.
   483  4.82  0.  0.
   484  4.83  0.  0.
   485  4.84  0.  0.
   486  4.85  0.  0.
   487  4.86  0.  0.
   488  4.87  0.  0.
   489  4.88  0.  0.
   490  4.89  0.  0.
   491  4.90  0.  0.
   492  4.91  0.  0.
   493  4.92  0.  0.
   494  4.93  0.  0.
   495  4.94  0.  0.
   496  4.95  0.  0.
   497  4.96  0.  0.
   498  4.97  0.  0.
   499  4.98  0.  0.
   500  4.99  0.  0.
   501  5.00  0.  0.
   502  5.01  0.  0.
   503  5.02  0.  0.
   504  5.03  0.  0.
   505  5.04  0.  0.
   506  5.05  0.  0.
   507  5.06  0.  0.
   508  5.07  0.  0.
   509  5.08  0.  0.
   510  5.09  0.  0.
   511  5.10  0.  0.
   512  5.11  0.  0.
   513  5.12  0.  0.
   514  5.13  0.  0.
   515  5.14  0.  0.
   516  5.15  0.  0.
   517  5.16  0.  0.
   518  5.17  0.  0.
   519  5.18  0.  0.
   520  5.19  0.  0.
   521  5.20  0.  0.
   522  5.21  0.  0.
   523  5.22  0.  0.
   524  5.23  0.  0.
   525  5.24  0.  0.
   526  5.25  0.  0.
   527  5.26  0.  0.
   528  5.27  0.  0.
   529  5.28  0.  0.
   530  5.29  0.  0.
   531  5.30  0.  0.
   532  5.31  0.  0.
   533  5.32  0.  0.
   534  5.33  0.  0.
   535  5.34  0.  0.
   536  5.35  0.  0.
   537  5.36  0.  0.
   538  5.37  0.  0.
   539  5.38  0.  0.
   540  5.39  0.  0.
   541  5.40  0.  0.
   542  5.41  0.  0.
   543  5.42  0.  0.
   544  5.43  0.  0.
   545  5.44  0.  0.
   546  5.45  0.  0.
   547  5.46  0.  0.
   548  5.47  0.  0.
   549  5.48  0.  0.
   550  5.49  0.  0.
   551  5.50  0.  0.
   552  5.51  0.  0.
   553  5.52  0.  0.
   554  5.53  0.  0.
   555  5.54  0.  0.
   556  5.55  0.  0.
   557  5.56  0.  0.
   558  5.57  0.  0.
   559  5.58  0.  0.
   560  5.59  0.  0.
   561  5.60  0.  0.
   562  5.61  0.  0.
   563  5.62  0.  0.
   564  5.63  0.  0.
   565  5.64  0.  0.
   566  5.65  0.  0.
   567  5.66  0.  0.
   568  5.67  0.  0.
   569  5.68  0.  0.
   570  5.69  0.  0.
   571  5.70  0.  0.
   572  5.71  0.  0.
   573  5.72  0.  0.
   574  5.73  0.  0.
   575  5.74  0.  0.
   576  5.75  0.  0.
   577  5.76  0.  0.
   578  5.77  0.  0.
   579  5.78  0.  0.
   580  5.79  0.  0.
   581  5.80  0.  0.
   582  5.81  0.  0.
   583  5.82  0.  0.
   584  5.83  0.  0.
   585  5.84  0.  0.
   586  5.85  0.  0.
   587  5.86  0.  0.
   588  5.87  0.  0.
   589  5.88  0.  0.
   590  5.89  0.  0.
   591  5.90  0.  0.
   592  5.91  0.  0.
   593  5.92  0.  0.
   594  5.93  0.  0.
   595  5.94  0.  0.
   596  5.95  0.  0.
   597  5.96  0.  0.
   598  5.97  0.  0.
   599  5.98  0.  0.
   600  5.99  0.  0.
   1                         2.7679396731850E+00  3.2693747370098E-01
     1  0.0000000000000E+00 -1.1034161084833E-08  2.8654648109167E-08
     2  1.0000000000000E-02  1.9770204902074E-03 -4.3236389422566E-04
     3  2.0000000000000E-02  7.9043465645990E-03 -1.7377845582132E-03
     4  3.0000000000000E-02  1.7770585409379E-02 -3.9407146875948E-03
     5  4.0000000000000E-02  3.1556134127814E-02 -7.0801467554914E-03
     6  5.0000000000000E-02  4.9232282445342E-02 -1.1207035230625E-02
     7  6.0000000000000E-02  7.0760005744474E-02 -1.6380816102364E-02
     8  7.0000000000000E-02  9.6088495872263E-02 -2.2665147353332E-02
     9  8.0000000000000E-02  1.2515348819727E-01 -3.0123022674851E-02
    10  9.0000000000000E-02  1.5787545263623E-01 -3.8811434640709E-02
    11  1.0000000000000E-01  1.9415772353299E-01 -4.8775781980865E-02
    12  1.1000000000000E-01  2.3388464812160E-01 -6.0044227922093E-02
    13  1.2000000000000E-01  2.7691983567940E-01 -7.2622222374003E-02
    14  1.3000000000000E-01  3.2310458927944E-01 -8.6487399796127E-02
    15  1.4000000000000E-01  3.7225659926871E-01 -1.0158505686575E-01
    16  1.5000000000000E-01  4.2416897228342E-01 -1.1782439973851E-01
    17  1.6000000000000E-01  4.7860966189879E-01 -1.3507573013210E-01
    18  1.7000000000000E-01  5.3532135709708E-01 -1.5316871321979E-01
    19  1.8000000000000E-01  5.9402187289314E-01 -1.7189183912989E-01
    20  1.9000000000000E-01  6.5440507400466E-01 -1.9099315459057E-01
    21  2.0000000000000E-01  7.1614234777032E-01 -2.1018230295481E-01
    22  2.1000000000000E-01  7.7888462701557E-01 -2.2913387059706E-01
    23  2.2000000000000E-01  8.4226494768389E-01 -2.4749199667883E-01
    24  2.3000000000000E-01  9.0590151024823E-01 -2.6487616275163E-01
    25  2.4000000000000E-01  9.6940119865038E-01 -2.8088803982573E-01
    26  2.5000000000000E-01  1.0323634962353E+00 -2.9511923456444E-01
    27  2.6000000000000E-01  1.0943847252774E+00 -3.0715974428788E-01
    28  2.7000000000000E-01  1.1550625256256E+00 -3.1660690349977E-01
    29  2.8000000000000E-01  1.2140004790724E+00 -3.2307458357290E-01
    30  2.9000000000000E-01  1.2708127795553E+00 -3.2620239276574E-01
    31  3.0000000000000E-01  1.3251288454623E+00 -3.2566461644275E-01
    32  3.1000000000000E-01  1.3765977692732E+00 -3.2117863757381E-01
    33  3.2000000000000E-01  1.4248925016067E+00 -3.1251258543222E-01
    34  3.3000000000000E-01  1.4697136714450E+00 -2.9949197580752E-01
    35  3.4000000000000E-01  1.5107929517919E+00 -2.8200512869818E-01
    36  3.5000000000000E-01  1.5478958901101E+00 -2.6000717883093E-01
    37  3.6000000000000E-01  1.5808241353490E+00 -2.3352252975361E-01
    38  3.7000000000000E-01  1.6094170078889E+00 -2.0264564276252E-01
    39  3.8000000000000E-01  1.6335523749316E+00 -1.6754009649144E-01
    40  3.9000000000000E-01  1.6531468113251E+00 -1.2843590041246E-01
    41  4.0000000000000E-01  1.6681550440626E+00 -8.5625094478942E-02
    42  4.1000000000000E-01  1.6785686972461E+00 -3.9455716313200E-02
    43  4.2000000000000E-01  1.6844143726418E+00  9.6757346875782E-03
    44  4.3000000000000E-01  1.6857511185734E+00  6.1333161571313E-02
    45  4.4000000000000E-01  1.6826673562969E+00  1.1505084616613E-01
    46  4.5000000000000E-01  1.6752773477125E+00  1.7034428504155E-01
    47  4.6000000000000E-01  1.6637173008593E+00  2.2672160263903E-01
    48  4.7000000000000E-01  1.6481412197353E+00  2.8369523643003E-01
    49  4.8000000000000E-01  1.6287166122706E+00  3.4079357434682E-01
    50  4.9000000000000E-01  1.6056201745181E+00  3.9757221877078E-01
    51  5.0000000000000E-01  1.5790335701466E+00  4.5362455440233E-01
    52  5.1000000000000E-01  1.5491394220650E+00  5.0859130948434E-01
    53  5.2000000000000E-01  1.5161176274717E+00  5.6216882095979E-01
    54  5.3000000000000E-01  1.4801420989288E+00  6.1411574382185E-01
    55  5.4000000000000E-01  1.4413780223951E+00  6.6425798252079E-01
    56  5.5000000000000E-01  1.3999797087912E+00  7.1249166695533E-01
    57  5.6000000000000E-01  1.3560890989747E+00  7.5878404621784E-01
    58  5.7000000000000E-01  1.3098349633943E+00  8.0317222861486E-01
    59  5.8000000000000E-01  1.2613328176581E+00  8.4575975512612E-01
    60  5.9000000000000E-01  1.2106855543188E+00  8.8671105386111E-01
    61  6.0000000000000E-01  1.1579847699104E+00  9.2624388360037E-01
    62  6.1000000000000E-01  1.1033127452579E+00  9.6461993352397E-01
    63  6.2000000000000E-01  1.0467450168874E+00  1.0021338020804E+00
    64  6.3000000000000E-01  9.8835345858282E-01  1.0391006290511E+00
    65  6.4000000000000E-01  9.2820977528655E-01  1.0758426997194E+00
    66  6.5000000000000E-01  8.6638929713739E-01  1.1126753773113E+00
    67  6.6000000000000E-01  8.0297494990811E-01  1.1498927483460E+00
    68  6.7000000000000E-01  7.3806126982243E-01  1.1877533842761E+00
    69  6.8000000000000E-01  6.7175832597791E-01  1.2264666310631E+00
    70  6.9000000000000E-01  6.0419541257587E-01  1.2661798356878E+00
    71  7.0000000000000E-01  5.3552437595817E-01  1.3069669048497E+00
    72  7.1000000000000E-01  4.6592244807080E-01  1.3488185664004E+00
    73  7.2000000000000E-01  3.9559446831015E-01  1.3916346687728E+00
    74  7.3000000000000E-01  3.2477438954925E-01  1.4352188085479E+00
    75  7.4000000000000E-01  2.5372598118621E-01  1.4792755222859E+00
    76  7.5000000000000E-01  1.8274266190587E-01  1.5234102171022E+00
    77  7.6000000000000E-01  1.1214641702164E-01  1.5671319466314E+00
    78  7.7000000000000E-01  4.2285779219973E-02  1.6098590666483E+00
    79  7.8000000000000E-01 -2.6467123342856E-02  1.6509277295148E+00
    80  7.9000000000000E-01 -9.3720421986193E-02  1.6896031006872E+00
    81  8.0000000000000E-01 -1.5906721037892E-01  1.7250931057344E+00
    82  8.1000000000000E-01 -2.2209101554274E-01  1.7565644446417E+00
    83  8.2000000000000E-01 -2.8237193399531E-01  1.7831605435499E+00
    84  8.3000000000000E-01 -3.3949330898915E-01  1.8040210543344E+00
    85  8.4000000000000E-01 -3.9304880647836E-01  1.8183024612519E+00
    86  8.5000000000000E-01 -4.4264973238902E-01  1.8251993127809E+00
    87  8.6000000000000E-01 -4.8793242243517E-01  1.8239655670148E+00
    88  8.7000000000000E-01 -5.2856552848243E-01  1.8139355215323E+00
    89  8.8000000000000E-01 -5.6425702258067E-01  1.7945437942663E+00
    90  8.9000000000000E-01 -5.9476074142447E-01  1.7653438308893E+00
    91  9.0000000000000E-01 -6.1988230020109E-01  1.7260244366743E+00
    92  9.1000000000000E-01 -6.3948421547371E-01  1.6764238663526E+00
    93  9.2000000000000E-01 -6.5349009173396E-01  1.6165410535431E+00
    94  9.3000000000000E-01 -6.6188774523470E-01  1.5465436208743E+00
    95  9.4000000000000E-01 -6.6473116127280E-01  1.4667723816890E+00
    96  9.5000000000000E-01 -6.6214120671592E-01  1.3777421226258E+00
    97  9.6000000000000E-01 -6.5430504766359E-01  1.2801385416142E+00
    98  9.7000000000000E-01 -6.4147425203190E-01  1.1748113058771E+00
    99  9.8000000000000E-01 -6.2396158781411E-01  1.0627632872072E+00
   100  9.9000000000000E-01 -6.0213655906177E-01  9.4513612488557E-01
   101  1.0000000000000E+00 -5.7641975243512E-01  8.2319235772228E-01
   102  1.0100000000000E+00 -5.4727609672708E-01  6.9829445358399E-01
   103  1.0200000000000E+00 -5.1520716530684E-01  5.7188114519766E-01
   104  1.0300000000000E+00 -4.8074267624492E-01  4.4544155289874E-01
   105  1.0400000000000E+00 -4.4443136628555E-01  3.2048763634838E-01
   106  1.0500000000000E+00 -4.0683143227553E-01  1.9852556649834E-01
   107  1.0600000000000E+00 -3.6850074663319E-01  8.1026644781901E-02
   108  1.0700000000000E+00 -3.2998706155460E-01 -3.0601582434439E-02
   109  1.0800000000000E+00 -2.9181841966968E-01 -1.3504336034692E-01
   110  1.0900000000000E+00 -2.5449398659870E-01 -2.3110126936170E-01
   111  1.1000000000000E+00 -2.1847551336204E-01 -3.1772065766165E-01
   112  1.1100000000000E+00 -1.8417962389782E-01 -3.9401138543831E-01
   113  1.1200000000000E+00 -1.5197110544491E-01 -4.5926635865128E-01
   114  1.1300000000000E+00 -1.2215735738634E-01 -5.1297639902100E-01
   115  1.1400000000000E+00 -9.4984128168008E-02 -5.5484107692208E-01
   116  1.1500000000000E+00 -7.0632640233917E-02 -5.8477522456491E-01
   117  1.1600000000000E+00 -4.9218170824631E-02 -6.0291094447087E-01
   118  1.1700000000000E+00 -3.0790122065983E-02 -6.0959503249711E-01
   119  1.1800000000000E+00 -1.5333578555191E-02 -6.0538184096254E-01
   120  1.1900000000000E+00 -2.7723148037795E-03 -5.9102171527849E-01
   121  1.2000000000000E+00  7.0268201277223E-03 -5.6744524255365E-01
   122  1.2100000000000E+00  1.4248247209173E-02 -5.3574365157639E-01
   123  1.2200000000000E+00  1.9120869115465E-02 -4.9714579745816E-01
   124  1.2300000000000E+00  2.1910315172018E-02 -4.5299224834837E-01
   125  1.2400000000000E+00  2.2910410513007E-02 -4.0470706498397E-01
   126  1.2500000000000E+00  2.2434080551351E-02 -3.5376792322903E-01
   127  1.2600000000000E+00  2.0803922577178E-02 -3.0167528484295E-01
   128  1.2700000000000E+00  1.8342612015629E-02 -2.4992121163006E-01
   129  1.2800000000000E+00  1.5363742669177E-02 -1.9995921907309E-01
   130  1.2900000000000E+00  1.2155876637859E-02 -1.5316182358023E-01
   131  1.3000000000000E+00  8.9595149546261E-03 -1.1076378981718E-01
   132  1.3100000000000E+00  6.0193482109704E-03 -7.3951473728009E-02
   133  1.3200000000000E+00  3.5408778888587E-03 -4.3767792241353E-02
   134  1.3300000000000E+00  1.6716948189003E-03 -2.1055442685128E-02
   135  1.3400000000000E+00  4.8951216103815E-04 -6.3726498889911E-03
   136  1.3500000000000E+00  2.1166666307982E-05 -3.2751475194187E-04
   137  1.3600000000000E+00 -1.0575648470830E-06  1.3143218720629E-05
   138  1.3700000000000E+00 -3.9355962301069E-07  4.6468826033113E-06
   139  1.38  0. -0.
   140  1.39  0.  0.
   141  1.40  0.  0.
   142  1.41  0.  0.
   143  1.42  0.  0.
   144  1.43  0.  0.
   145  1.44  0.  0.
   146  1.45  0.  0.
   147  1.46  0.  0.
   148  1.47  0.  0.
   149  1.48  0.  0.
   150  1.49  0.  0.
   151  1.50  0.  0.
   152  1.51  0.  0.
   153  1.52  0.  0.
   154  1.53  0.  0.
   155  1.54  0.  0.
   156  1.55  0.  0.
   157  1.56  0.  0.
   158  1.57  0.  0.
   159  1.58  0.  0.
   160  1.59  0.  0.
   161  1.60  0.  0.
   162  1.61  0.  0.