Ir    ONCVPSP-4.0.1  r_core=   1.60652   1.60652   1.50421   2.25929
     77.0000     17.0000      231019    zatom,zion,pspd
     8       2   3     4   500     0    pspcod,pspxc,lmax,lloc,mmax,r2well
  4.99000000  5.00000000  0.00000000    rchrg fchrg qchrg
     2     2     2     2     0    nproj
     1     1           extension_switch
   0                         2.7454582279298E+01  2.3212777960497E+00
     1  0.0000000000000E+00  1.3364332973609E-09 -2.0552907153970E-09
     2  1.0000000000000E-02  6.9703786439354E-02  3.5282346420677E-03
     3  2.0000000000000E-02  1.3931286074633E-01  7.0248663805785E-03
     4  3.0000000000000E-02  2.0873166479376E-01  1.0459902244093E-02
     5  4.0000000000000E-02  2.7786296861792E-01  1.3806537817190E-02
     6  5.0000000000000E-02  3.4660708453454E-01  1.7042673783607E-02
     7  6.0000000000000E-02  4.1486114032655E-01  2.0152340678730E-02
     8  7.0000000000000E-02  4.8251842959534E-01  2.3127003713342E-02
     9  8.0000000000000E-02  5.4946785603109E-01  2.5966721585856E-02
    10  9.0000000000000E-02  6.1559348672892E-01  2.8681135704646E-02
    11  1.0000000000000E-01  6.8077422778316E-01  3.1290269154780E-02
    12  1.1000000000000E-01  7.4488363326392E-01  3.3825118015262E-02
    13  1.2000000000000E-01  8.0778985635181E-01  3.6328021210676E-02
    14  1.3000000000000E-01  8.6935574891897E-01  3.8852798904553E-02
    15  1.4000000000000E-01  9.2943911323599E-01  4.1464653447923E-02
    16  1.5000000000000E-01  9.8789310680052E-01  4.4239831018542E-02
    17  1.6000000000000E-01  1.0445667985672E+00  4.7265046255192E-02
    18  1.7000000000000E-01  1.0993058721561E+00  5.0636676338269E-02
    19  1.8000000000000E-01  1.1519534689717E+00  5.4459735022119E-02
    20  1.9000000000000E-01  1.2023511616258E+00  5.8846641019486E-02
    21  2.0000000000000E-01  1.2503400456571E+00  6.3915798806774E-02
    22  2.1000000000000E-01  1.2957619353335E+00  6.9790013300180E-02
    23  2.2000000000000E-01  1.3384606473348E+00  7.6594762887992E-02
    24  2.3000000000000E-01  1.3782833543803E+00  8.4456357942847E-02
    25  2.4000000000000E-01  1.4150819894258E+00  9.3500014132786E-02
    26  2.5000000000000E-01  1.4487146799197E+00  1.0384787156391E-01
    27  2.6000000000000E-01  1.4790471908075E+00  1.1561699198941E-01
    28  2.7000000000000E-01  1.5059543545220E+00  1.2891736698721E-01
    29  2.8000000000000E-01  1.5293214660965E+00  1.4384997012868E-01
    30  2.9000000000000E-01  1.5490456217990E+00  1.6050488572838E-01
    31  3.0000000000000E-01  1.5650369803021E+00  1.7895954578578E-01
    32  3.1000000000000E-01  1.5772199263686E+00  1.9927710521584E-01
    33  3.2000000000000E-01  1.5855341183254E+00  2.2150498344198E-01
    34  3.3000000000000E-01  1.5899354022140E+00  2.4567359792057E-01
    35  3.4000000000000E-01  1.5903965774001E+00  2.7179531222224E-01
    36  3.5000000000000E-01  1.5869080005816E+00  2.9986361795794E-01
    37  3.6000000000000E-01  1.5794780175156E+00  3.2985256616084E-01
    38  3.7000000000000E-01  1.5681332143482E+00  3.6171645977822E-01
    39  3.8000000000000E-01  1.5529184831405E+00  3.9538981475514E-01
    40  3.9000000000000E-01  1.5338968989911E+00  4.3078759287318E-01
    41  4.0000000000000E-01  1.5111494090206E+00  4.6780570511243E-01
    42  4.1000000000000E-01  1.4847743363492E+00  5.0632177990907E-01
    43  4.2000000000000E-01  1.4548867050270E+00  5.4619618635439E-01
    44  4.3000000000000E-01  1.4216173946192E+00  5.8727329820013E-01
    45  4.4000000000000E-01  1.3851121357522E+00  6.2938298056789E-01
    46  4.5000000000000E-01  1.3455303603578E+00  6.7234227757556E-01
    47  4.6000000000000E-01  1.3030439225635E+00  7.1595727575550E-01
    48  4.7000000000000E-01  1.2578357081327E+00  7.6002511520337E-01
    49  4.8000000000000E-01  1.2100981520242E+00  8.0433611791729E-01
    50  4.9000000000000E-01  1.1600316849882E+00  8.4867600080669E-01
    51  5.0000000000000E-01  1.1078431311226E+00  8.9282813940558E-01
    52  5.1000000000000E-01  1.0537440789568E+00  9.3657584744429E-01
    53  5.2000000000000E-01  9.9794924890703E-01  9.7970463713372E-01
    54  5.3000000000000E-01  9.4067487983874E-01  1.0220044253074E+00
    55  5.4000000000000E-01  8.8213715699084E-01  1.0632716514449E+00
    56  5.5000000000000E-01  8.2255070266219E-01  1.1033112750576E+00
    57  5.6000000000000E-01  7.6212714984767E-01  1.1419386219306E+00
    58  5.7000000000000E-01  7.0107381746044E-01  1.1789810512540E+00
    59  5.8000000000000E-01  6.3959250391105E-01  1.2142794187008E+00
    60  5.9000000000000E-01  5.7787841366553E-01  1.2476893139714E+00
    61  6.0000000000000E-01  5.1611922900690E-01  1.2790820551717E+00
    62  6.1000000000000E-01  4.5449433661989E-01  1.3083454265495E+00
    63  6.2000000000000E-01  3.9317421584890E-01  1.3353841505326E+00
    64  6.3000000000000E-01  3.3231999259255E-01  1.3601200895968E+00
    65  6.4000000000000E-01  2.7208315984324E-01  1.3824921781806E+00
    66  6.5000000000000E-01  2.1260546290805E-01  1.4024560895703E+00
    67  6.6000000000000E-01  1.5401894440903E-01  1.4199836473220E+00
    68  6.7000000000000E-01  9.6446141308916E-02  1.4350619952906E+00
    69  6.8000000000000E-01  4.0000423490893E-02  1.4476925446163E+00
    70  6.9000000000000E-01 -1.5213539110748E-02  1.4578897200013E+00
    71  7.0000000000000E-01 -6.9099196135704E-02  1.4656795312281E+00
    72  7.1000000000000E-01 -1.2156744051603E-01  1.4710979990504E+00
    73  7.2000000000000E-01 -1.7253585534673E-01  1.4741894672755E+00
    74  7.3000000000000E-01 -2.2192790434702E-01  1.4750048350043E+00
    75  7.4000000000000E-01 -2.6967208736047E-01  1.4735997445473E+00
    76  7.5000000000000E-01 -3.1570108296177E-01  1.4700327614780E+00
    77  7.6000000000000E-01 -3.5995090045215E-01  1.4643635835763E+00
    78  7.7000000000000E-01 -4.0236006332780E-01  1.4566513150584E+00
    79  7.8000000000000E-01 -4.4286884569411E-01  1.4469528414753E+00
    80  7.9000000000000E-01 -4.8141858208119E-01  1.4353213390040E+00
    81  8.0000000000000E-01 -5.1795106970569E-01  1.4218049495762E+00
    82  8.1000000000000E-01 -5.5240808044126E-01  1.4064456504175E+00
    83  8.2000000000000E-01 -5.8473099763318E-01  1.3892783431538E+00
    84  8.3000000000000E-01 -6.1486059045420E-01  1.3703301837276E+00
    85  8.4000000000000E-01 -6.4273693578931E-01  1.3496201700257E+00
    86  8.5000000000000E-01 -6.6829949470062E-01  1.3271589994116E+00
    87  8.6000000000000E-01 -6.9148734740940E-01  1.3029492033666E+00
    88  8.7000000000000E-01 -7.1223958749406E-01  1.2769855612503E+00
    89  8.8000000000000E-01 -7.3049587269481E-01  1.2492557898869E+00
    90  8.9000000000000E-01 -7.4619712639747E-01  1.2197415003528E+00
    91  9.0000000000000E-01 -7.5928638059710E-01  1.1884194080810E+00
    92  9.1000000000000E-01 -7.6970974797727E-01  1.1552627773001E+00
    93  9.2000000000000E-01 -7.7741750773944E-01  1.1202430759773E+00
    94  9.3000000000000E-01 -7.8236528703479E-01  1.0833318129283E+00
    95  9.4000000000000E-01 -7.8451531734128E-01  1.0445025246750E+00
    96  9.5000000000000E-01 -7.8383774293961E-01  1.0037328760429E+00
    97  9.6000000000000E-01 -7.8031195681767E-01  9.6100683548122E-01
    98  9.7000000000000E-01 -7.7392793791201E-01  9.1631688369991E-01
    99  9.8000000000000E-01 -7.6468756260937E-01  8.6966621251648E-01
   100  9.9000000000000E-01 -7.5260586290509E-01  8.2107086982369E-01
   101  1.0000000000000E+00 -7.3771220356789E-01  7.7056180635710E-01
   102  1.0100000000000E+00 -7.2005135110005E-01  7.1818678047602E-01
   103  1.0200000000000E+00 -6.9968440821015E-01  6.6401207847492E-01
   104  1.0300000000000E+00 -6.7668958892659E-01  6.0812401000636E-01
   105  1.0400000000000E+00 -6.5116281135912E-01  5.5063014100012E-01
   106  1.0500000000000E+00 -6.2321808743517E-01  4.9166022996360E-01
   107  1.0600000000000E+00 -5.9298769167565E-01  4.3136683771263E-01
   108  1.0700000000000E+00 -5.6062209418359E-01  3.6992558533629E-01
   109  1.0800000000000E+00 -5.2628964645496E-01  3.0753504047675E-01
   110  1.0900000000000E+00 -4.9017601234405E-01  2.4441621774451E-01
   111  1.1000000000000E+00 -4.5248334044315E-01  1.8081168516090E-01
   112  1.1100000000000E+00 -4.1342917824233E-01  1.1698427488593E-01
   113  1.1200000000000E+00 -3.7324513261474E-01  5.3215402985016E-02
   114  1.1300000000000E+00 -3.3217528539641E-01 -1.0196990431575E-02
   115  1.1400000000000E+00 -2.9047437699453E-01 -7.2940862857536E-02
   116  1.1500000000000E+00 -2.4840577502325E-01 -1.3469282862339E-01
   117  1.1600000000000E+00 -2.0623924883705E-01 -1.9512122542975E-01
   118  1.1700000000000E+00 -1.6424857446813E-01 -2.5388945216817E-01
   119  1.1800000000000E+00 -1.2270899778151E-01 -3.1065953678464E-01
   120  1.1900000000000E+00 -8.1894586618132E-02 -3.6509588823974E-01
   121  1.2000000000000E+00 -4.2075505203128E-02 -4.1686918260589E-01
   122  1.2100000000000E+00 -3.5152461529806E-03 -4.6566033001439E-01
   123  1.2200000000000E+00  3.3532143062230E-02 -5.1116446665920E-01
   124  1.2300000000000E+00  6.8824801358717E-02 -5.5309491437965E-01
   125  1.2400000000000E+00  1.0213572473176E-01 -5.9118704955354E-01
   126  1.2500000000000E+00  1.3325532832804E-01 -6.2520202314005E-01
   127  1.2600000000000E+00  1.6199386260279E-01 -6.5493027474892E-01
   128  1.2700000000000E+00  1.8818364763389E-01 -6.8019478556085E-01
   129  1.2800000000000E+00  2.1168109160523E-01 -7.0085401776005E-01
   130  1.2900000000000E+00  2.3236846198583E-01 -7.1680449186578E-01
   131  1.3000000000000E+00  2.5015538096018E-01 -7.2798295787654E-01
   132  1.3100000000000E+00  2.6498002016997E-01 -7.3436812140805E-01
   133  1.3200000000000E+00  2.7680997380264E-01 -7.3598189200656E-01
   134  1.3300000000000E+00  2.8564279339042E-01 -7.3289012737428E-01
   135  1.3400000000000E+00  2.9150617233606E-01 -7.2520285430707E-01
   136  1.3500000000000E+00  2.9445777309955E-01 -7.1307395462861E-01
   137  1.3600000000000E+00  2.9458469506763E-01 -6.9670031216000E-01
   138  1.3700000000000E+00  2.9200258631973E-01 -6.7632042469114E-01
   139  1.3800000000000E+00  2.8685440770775E-01 -6.5221249287661E-01
   140  1.3900000000000E+00  2.7930886283831E-01 -6.2469200589532E-01
   141  1.4000000000000E+00  2.6955851256350E-01 -5.9410885140437E-01
   142  1.4100000000000E+00  2.5781759738919E-01 -5.6084398468882E-01
   143  1.4200000000000E+00  2.4431959573676E-01 -5.2530569886398E-01
   144  1.4300000000000E+00  2.2931455012987E-01 -4.8792554435070E-01
   145  1.4400000000000E+00  2.1306619713094E-01 -4.4915395162549E-01
   146  1.4500000000000E+00  1.9584894007037E-01 -4.0945561621611E-01
   147  1.4600000000000E+00  1.7794470631542E-01 -3.6930470909501E-01
   148  1.4700000000000E+00  1.5963973293465E-01 -3.2917997889774E-01
   149  1.4800000000000E+00  1.4122132653134E-01 -2.8955981543008E-01
   150  1.4900000000000E+00  1.2297464389076E-01 -2.5091734528786E-01
   151  1.5000000000000E+00  1.0517951931141E-01 -2.1371559425897E-01
   152  1.5100000000000E+00  8.8107412193228E-02 -1.7840285199776E-01
   153  1.5200000000000E+00  7.2016394555753E-02 -1.4540469153845E-01
   154  1.5300000000000E+00  5.7139513293823E-02 -1.1510573326803E-01
   155  1.5400000000000E+00  4.3666016212690E-02 -8.7821165808701E-02
   156  1.5500000000000E+00  3.1781813026206E-02 -6.3856922449614E-02
   157  1.5600000000000E+00  2.1649302111053E-02 -4.3480158078391E-02
   158  1.5700000000000E+00  1.3393609237402E-02 -2.6898514402754E-02
   159  1.5800000000000E+00  7.1179516255828E-03 -1.4285753566822E-02
   160  1.5900000000000E+00  2.8006493019956E-03 -5.6076563952136E-03
   161  1.6000000000000E+00  4.5312075408883E-04 -9.1319336989615E-04
   162  1.6100000000000E+00 -3.3235509943592E-05  7.2143842311908E-05
   163  1.6200000000000E+00  1.1675678030221E-05 -2.4326250134350E-05
   164  1.63 -0.  0.
   165  1.64 -0.  0.
   166  1.65  0.  0.
   167  1.66  0.  0.
   168  1.67  0.  0.
   169  1.68  0.  0.
   170  1.69  0.  0.
   171  1.70  0.  0.
   172  1.71  0.  0.
   173  1.72  0.  0.
   174  1.73  0.  0.
   175  1.74  0.  0.
   176  1.75  0.  0.
   177  1.76  0.  0.
   178  1.77  0.  0.
   179  1.78  0.  0.
   180  1.79  0.  0.
   181  1.80  0.  0.
   182  1.81  0.  0.
   183  1.82  0.  0.
   184  1.83  0.  0.
   185  1.84  0.  0.
   186  1.85  0.  0.
   187  1.86  0.  0.
   188  1.87  0.  0.
   189  1.88  0.  0.
   190  1.89  0.  0.
   191  1.90  0.  0.
   192  1.91  0.  0.
   193  1.92  0.  0.
   194  1.93  0.  0.
   195  1.94  0.  0.
   196  1.95  0.  0.
   197  1.96  0.  0.
   198  1.97  0.  0.
   199  1.98  0.  0.
   200  1.99  0.  0.
   201  2.00  0.  0.
   202  2.01  0.  0.
   203  2.02  0.  0.
   204  2.03  0.  0.
   205  2.04  0.  0.
   206  2.05  0.  0.
   207  2.06  0.  0.
   208  2.07  0.  0.
   209  2.08  0.  0.
   210  2.09  0.  0.
   211  2.10  0.  0.
   212  2.11  0.  0.
   213  2.12  0.  0.
   214  2.13  0.  0.
   215  2.14  0.  0.
   216  2.15  0.  0.
   217  2.16  0.  0.
   218  2.17  0.  0.
   219  2.18  0.  0.
   220  2.19  0.  0.
   221  2.20  0.  0.
   222  2.21  0.  0.
   223  2.22  0.  0.
   224  2.23  0.  0.
   225  2.24  0.  0.
   226  2.25  0.  0.
   227  2.26  0.  0.
   228  2.27  0.  0.
   229  2.28  0.  0.
   230  2.29  0.  0.
   231  2.30  0.  0.
   232  2.31  0.  0.
   233  2.32  0.  0.
   234  2.33  0.  0.
   235  2.34  0.  0.
   236  2.35  0.  0.
   237  2.36  0.  0.
   238  2.37  0.  0.
   239  2.38  0.  0.
   240  2.39  0.  0.
   241  2.40  0.  0.
   242  2.41  0.  0.
   243  2.42  0.  0.
   244  2.43  0.  0.
   245  2.44  0.  0.
   246  2.45  0.  0.
   247  2.46  0.  0.
   248  2.47  0.  0.
   249  2.48  0.  0.
   250  2.49  0.  0.
   251  2.50  0.  0.
   252  2.51  0.  0.
   253  2.52  0.  0.
   254  2.53  0.  0.
   255  2.54  0.  0.
   256  2.55  0.  0.
   257  2.56  0.  0.
   258  2.57  0.  0.
   259  2.58  0.  0.
   260  2.59  0.  0.
   261  2.60  0.  0.
   262  2.61  0.  0.
   263  2.62  0.  0.
   264  2.63  0.  0.
   265  2.64  0.  0.
   266  2.65  0.  0.
   267  2.66  0.  0.
   268  2.67  0.  0.
   269  2.68  0.  0.
   270  2.69  0.  0.
   271  2.70  0.  0.
   272  2.71  0.  0.
   273  2.72  0.  0.
   274  2.73  0.  0.
   275  2.74  0.  0.
   276  2.75  0.  0.
   277  2.76  0.  0.
   278  2.77  0.  0.
   279  2.78  0.  0.
   280  2.79  0.  0.
   281  2.80  0.  0.
   282  2.81  0.  0.
   283  2.82  0.  0.
   284  2.83  0.  0.
   285  2.84  0.  0.
   286  2.85  0.  0.
   287  2.86  0.  0.
   288  2.87  0.  0.
   289  2.88  0.  0.
   290  2.89  0.  0.
   291  2.90  0.  0.
   292  2.91  0.  0.
   293  2.92  0.  0.
   294  2.93  0.  0.
   295  2.94  0.  0.
   296  2.95  0.  0.
   297  2.96  0.  0.
   298  2.97  0.  0.
   299  2.98  0.  0.
   300  2.99  0.  0.
   301  3.00  0.  0.
   302  3.01  0.  0.
   303  3.02  0.  0.
   304  3.03  0.  0.
   305  3.04  0.  0.
   306  3.05  0.  0.
   307  3.06  0.  0.
   308  3.07  0.  0.
   309  3.08  0.  0.
   310  3.09  0.  0.
   311  3.10  0.  0.
   312  3.11  0.  0.
   313  3.12  0.  0.
   314  3.13  0.  0.
   315  3.14  0.  0.
   316  3.15  0.  0.
   317  3.16  0.  0.
   318  3.17  0.  0.
   319  3.18  0.  0.
   320  3.19  0.  0.
   321  3.20  0.  0.
   322  3.21  0.  0.
   323  3.22  0.  0.
   324  3.23  0.  0.
   325  3.24  0.  0.
   326  3.25  0.  0.
   327  3.26  0.  0.
   328  3.27  0.  0.
   329  3.28  0.  0.
   330  3.29  0.  0.
   331  3.30  0.  0.
   332  3.31  0.  0.
   333  3.32  0.  0.
   334  3.33  0.  0.
   335  3.34  0.  0.
   336  3.35  0.  0.
   337  3.36  0.  0.
   338  3.37  0.  0.
   339  3.38  0.  0.
   340  3.39  0.  0.
   341  3.40  0.  0.
   342  3.41  0.  0.
   343  3.42  0.  0.
   344  3.43  0.  0.
   345  3.44  0.  0.
   346  3.45  0.  0.
   347  3.46  0.  0.
   348  3.47  0.  0.
   349  3.48  0.  0.
   350  3.49  0.  0.
   351  3.50  0.  0.
   352  3.51  0.  0.
   353  3.52  0.  0.
   354  3.53  0.  0.
   355  3.54  0.  0.
   356  3.55  0.  0.
   357  3.56  0.  0.
   358  3.57  0.  0.
   359  3.58  0.  0.
   360  3.59  0.  0.
   361  3.60  0.  0.
   362  3.61  0.  0.
   363  3.62  0.  0.
   364  3.63  0.  0.
   365  3.64  0.  0.
   366  3.65  0.  0.
   367  3.66  0.  0.
   368  3.67  0.  0.
   369  3.68  0.  0.
   370  3.69  0.  0.
   371  3.70  0.  0.
   372  3.71  0.  0.
   373  3.72  0.  0.
   374  3.73  0.  0.
   375  3.74  0.  0.
   376  3.75  0.  0.
   377  3.76  0.  0.
   378  3.77  0.  0.
   379  3.78  0.  0.
   380  3.79  0.  0.
   381  3.80  0.  0.
   382  3.81  0.  0.
   383  3.82  0.  0.
   384  3.83  0.  0.
   385  3.84  0.  0.
   386  3.85  0.  0.
   387  3.86  0.  0.
   388  3.87  0.  0.
   389  3.88  0.  0.
   390  3.89  0.  0.
   391  3.90  0.  0.
   392  3.91  0.  0.
   393  3.92  0.  0.
   394  3.93  0.  0.
   395  3.94  0.  0.
   396  3.95  0.  0.
   397  3.96  0.  0.
   398  3.97  0.  0.
   399  3.98  0.  0.
   400  3.99  0.  0.
   401  4.00  0.  0.
   402  4.01  0.  0.
   403  4.02  0.  0.
   404  4.03  0.  0.
   405  4.04  0.  0.
   406  4.05  0.  0.
   407  4.06  0.  0.
   408  4.07  0.  0.
   409  4.08  0.  0.
   410  4.09  0.  0.
   411  4.10  0.  0.
   412  4.11  0.  0.
   413  4.12  0.  0.
   414  4.13  0.  0.
   415  4.14  0.  0.
   416  4.15  0.  0.
   417  4.16  0.  0.
   418  4.17  0.  0.
   419  4.18  0.  0.
   420  4.19  0.  0.
   421  4.20  0.  0.
   422  4.21  0.  0.
   423  4.22  0.  0.
   424  4.23  0.  0.
   425  4.24  0.  0.
   426  4.25  0.  0.
   427  4.26  0.  0.
   428  4.27  0.  0.
   429  4.28  0.  0.
   430  4.29  0.  0.
   431  4.30  0.  0.
   432  4.31  0.  0.
   433  4.32  0.  0.
   434  4.33  0.  0.
   435  4.34  0.  0.
   436  4.35  0.  0.
   437  4.36  0.  0.
   438  4.37  0.  0.
   439  4.38  0.  0.
   440  4.39  0.  0.
   441  4.40  0.  0.
   442  4.41  0.  0.
   443  4.42  0.  0.
   444  4.43  0.  0.
   445  4.44  0.  0.
   446  4.45  0.  0.
   447  4.46  0.  0.
   448  4.47  0.  0.
   449  4.48  0.  0.
   450  4.49  0.  0.
   451  4.50  0.  0.
   452  4.51  0.  0.
   453  4.52  0.  0.
   454  4.53  0.  0.
   455  4.54  0.  0.
   456  4.55  0.  0.
   457  4.56  0.  0.
   458  4.57  0.  0.
   459  4.58  0.  0.
   460  4.59  0.  0.
   461  4.60  0.  0.
   462  4.61  0.  0.
   463  4.62  0.  0.
   464  4.63  0.  0.
   465  4.64  0.  0.
   466  4.65  0.  0.
   467  4.66  0.  0.
   468  4.67  0.  0.
   469  4.68  0.  0.
   470  4.69  0.  0.
   471  4.70  0.  0.
   472  4.71  0.  0.
   473  4.72  0.  0.
   474  4.73  0.  0.
   475  4.74  0.  0.
   476  4.75  0.  0.
   477  4.76  0.  0.
   478  4.77  0.  0.
   479  4.78  0.  0.
   480  4.79  0.  0.
   481  4.80  0.  0.
   482  4.81  0.  0.
   483  4.82  0.  0.
   484  4.83  0.  0.
   485  4.84  0.  0.
   486  4.85  0.  0.
   487  4.86  0.  0.
   488  4.87  0.  0.
   489  4.88  0.  0.
   490  4.89  0.  0.
   491  4.90  0.  0.
   492  4.91  0.  0.
   493  4.92  0.  0.
   494  4.93  0.  0.
   495  4.94  0.  0.
   496  4.95  0.  0.
   497  4.96  0.  0.
   498  4.97  0.  0.
   499  4.98  0.  0.
   500  4.99  0.  0.
   1                         6.7438410189971E+00  9.7379462324043E-01
     1  0.0000000000000E+00 -4.3397151011648E-09  9.0446840967881E-09
     2  1.0000000000000E-02  1.3248557800140E-03  3.2709453149210E-05
     3  2.0000000000000E-02  5.2992014166721E-03  1.2286633687279E-04
     4  3.0000000000000E-02  1.1922266186090E-02  2.4679692157635E-04
     5  4.0000000000000E-02  2.1192416088689E-02  3.6584193115680E-04
     6  5.0000000000000E-02  3.3106638656738E-02  4.2753321557246E-04
     7  6.0000000000000E-02  4.7659839488502E-02  3.6720401375540E-04
     8  7.0000000000000E-02  6.4843967870943E-02  1.0999664421582E-04
     9  8.0000000000000E-02  8.4646993192578E-02 -4.2677758399636E-04
    10  9.0000000000000E-02  1.0705175773843E-01 -1.3309795598364E-03
    11  1.0000000000000E-01  1.3203473481917E-01 -2.6927449921805E-03
    12  1.1000000000000E-01  1.5956472394502E-01 -4.6014145654293E-03
    13  1.2000000000000E-01  1.8960151685263E-01 -7.1423621265093E-03
    14  1.3000000000000E-01  2.2209456958416E-01 -1.0393794334496E-02
    15  1.4000000000000E-01  2.5698171646899E-01 -1.4423596605878E-02
    16  1.5000000000000E-01  2.9418796175363E-01 -1.9286300025515E-02
    17  1.6000000000000E-01  3.3362438376060E-01 -2.5020242158268E-02
    18  1.7000000000000E-01  3.7518718484564E-01 -3.1644991418236E-02
    19  1.8000000000000E-01  4.1875691809186E-01 -3.9159099888553E-02
    20  1.9000000000000E-01  4.6419791867121E-01 -4.7538243323112E-02
    21  2.0000000000000E-01  5.1135796417385E-01 -5.6733799619065E-02
    22  2.1000000000000E-01  5.6006818402226E-01 -6.6671908467404E-02
    23  2.2000000000000E-01  6.1014323343015E-01 -7.7253045336307E-02
    24  2.3000000000000E-01  6.6138174232480E-01 -8.8352132602907E-02
    25  2.4000000000000E-01  7.1356704432357E-01 -9.9819199729156E-02
    26  2.5000000000000E-01  7.6646818534603E-01 -1.1148059309198E-01
    27  2.6000000000000E-01  8.1984120585899E-01 -1.2314072465247E-01
    28  2.7000000000000E-01  8.7343068520561E-01 -1.3458433731350E-01
    29  2.8000000000000E-01  9.2697153107068E-01 -1.4557925379944E-01
    30  2.9000000000000E-01  9.8019099199215E-01 -1.5587956542005E-01
    31  3.0000000000000E-01  1.0328108660476E+00 -1.6522920736981E-01
    32  3.1000000000000E-01  1.0845498745231E+00 -1.7336585846691E-01
    33  3.2000000000000E-01  1.1351261655988E+00 -1.8002509563624E-01
    34  3.3000000000000E-01  1.1842599099442E+00 -1.8494472715452E-01
    35  3.4000000000000E-01  1.2316759476693E+00 -1.8786922384073E-01
    36  3.5000000000000E-01  1.2771064443887E+00 -1.8855416410371E-01
    37  3.6000000000000E-01  1.3202935132550E+00 -1.8677060713329E-01
    38  3.7000000000000E-01  1.3609917597427E+00 -1.8230930859226E-01
    39  3.8000000000000E-01  1.3989707067160E+00 -1.7498469494905E-01
    40  3.9000000000000E-01  1.4340170588883E+00 -1.6463851607135E-01
    41  4.0000000000000E-01  1.4659367681612E+00 -1.5114310082614E-01
    42  4.1000000000000E-01  1.4945568644719E+00 -1.3440414712064E-01
    43  4.2000000000000E-01  1.5197270206286E+00 -1.1436298595403E-01
    44  4.3000000000000E-01  1.5413208241076E+00 -9.0998268489904E-02
    45  4.4000000000000E-01  1.5592367338438E+00 -6.4327035728768E-02
    46  4.5000000000000E-01  1.5733987055667E+00 -3.4405141865488E-02
    47  4.6000000000000E-01  1.5837564751287E+00 -1.3270146393758E-03
    48  4.7000000000000E-01  1.5902854954165E+00  3.4775251306964E-02
    49  4.8000000000000E-01  1.5929865287215E+00  7.3733459096085E-02
    50  4.9000000000000E-01  1.5918849027494E+00  1.1534551041321E-01
    51  5.0000000000000E-01  1.5870294446461E+00  1.5937820786838E-01
    52  5.1000000000000E-01  1.5784911133905E+00  2.0557061221521E-01
    53  5.2000000000000E-01  1.5663613565333E+00  2.5363789634233E-01
    54  5.3000000000000E-01  1.5507502224327E+00  3.0327562757905E-01
    55  5.4000000000000E-01  1.5317842637485E+00  3.5416440070147E-01
    56  5.5000000000000E-01  1.5096042719069E+00  4.0597473628381E-01
    57  5.6000000000000E-01  1.4843628854627E+00  4.5837215288339E-01
    58  5.7000000000000E-01  1.4562221176869E+00  5.1102231711696E-01
    59  5.8000000000000E-01  1.4253508502421E+00  5.6359617309195E-01
    60  5.9000000000000E-01  1.3919223404447E+00  6.1577495197122E-01
    61  6.0000000000000E-01  1.3561117893167E+00  6.6725496371488E-01
    62  6.1000000000000E-01  1.3180940164127E+00  7.1775207625731E-01
    63  6.2000000000000E-01  1.2780412852698E+00  7.6700579250385E-01
    64  6.3000000000000E-01  1.2361213203124E+00  8.1478284249627E-01
    65  6.4000000000000E-01  1.1924955521969E+00  8.6088021678570E-01
    66  6.5000000000000E-01  1.1473176239669E+00  9.0512757731921E-01
    67  6.6000000000000E-01  1.1007321850955E+00  9.4738899381275E-01
    68  6.7000000000000E-01  1.0528739946107E+00  9.8756396643769E-01
    69  6.8000000000000E-01  1.0038673481451E+00  1.0255877094561E+00
    70  6.9000000000000E-01  9.5382583703634E-01  1.0614306849436E+00
    71  7.0000000000000E-01  9.0285244067008E-01  1.0950973906625E+00
    72  7.1000000000000E-01  8.5103994621929E-01  1.1266244212083E+00
    73  7.2000000000000E-01  7.9847168295052E-01  1.1560778364521E+00
    74  7.3000000000000E-01  7.4522255146099E-01  1.1835498857493E+00
    75  7.4000000000000E-01  6.9136032172720E-01  1.2091551500922E+00
    76  7.5000000000000E-01  6.3694716781450E-01  1.2330261770657E+00
    77  7.6000000000000E-01  5.8204140164376E-01  1.2553086948659E+00
    78  7.7000000000000E-01  5.2669936345168E-01  1.2761565015136E+00
    79  7.8000000000000E-01  4.7097742261840E-01  1.2957261335208E+00
    80  7.9000000000000E-01  4.1493403946084E-01  1.3141714244712E+00
    81  8.0000000000000E-01  3.5863183647357E-01  1.3316380680902E+00
    82  8.1000000000000E-01  3.0213962639921E-01  1.3482583023120E+00
    83  8.2000000000000E-01  2.4553434446287E-01  1.3641458305055E+00
    84  8.3000000000000E-01  1.8890283312544E-01  1.3793910933941E+00
    85  8.4000000000000E-01  1.3234342979827E-01  1.3940570002841E+00
    86  8.5000000000000E-01  7.5967311088115E-02  1.4081752210831E+00
    87  8.6000000000000E-01  1.9899551264560E-02  1.4217431313313E+00
    88  8.7000000000000E-01 -3.5720142304812E-02  1.4347214912376E+00
    89  8.8000000000000E-01 -9.0737048106349E-02  1.4470329266858E+00
    90  8.9000000000000E-01 -1.4498142852973E-01  1.4585612655856E+00
    91  9.0000000000000E-01 -1.9826892445337E-01  1.4691517670321E+00
    92  9.1000000000000E-01 -2.5040135603671E-01  1.4786122638023E+00
    93  9.2000000000000E-01 -3.0116793126980E-01  1.4867152210534E+00
    94  9.3000000000000E-01 -3.5034685550836E-01  1.4932006960339E+00
    95  9.4000000000000E-01 -3.9770732685867E-01  1.4977801655061E+00
    96  9.5000000000000E-01 -4.4301189402860E-01  1.5001411697557E+00
    97  9.6000000000000E-01 -4.8601914529444E-01  1.4999527048736E+00
    98  9.7000000000000E-01 -5.2648668970279E-01  1.4968712787821E+00
    99  9.8000000000000E-01 -5.6417438468785E-01  1.4905475315553E+00
   100  9.9000000000000E-01 -5.9884775807848E-01  1.4806333072724E+00
   101  1.0000000000000E+00 -6.3028156712774E-01  1.4667890532018E+00
   102  1.0100000000000E+00 -6.5826343284021E-01  1.4486914128154E+00
   103  1.0200000000000E+00 -6.8259748459680E-01  1.4260408721692E+00
   104  1.0300000000000E+00 -7.0310794796330E-01  1.3985693147325E+00
   105  1.0400000000000E+00 -7.1964260768290E-01  1.3660473379396E+00
   106  1.0500000000000E+00 -7.3207607822499E-01  1.3282911856373E+00
   107  1.0600000000000E+00 -7.4031281591467E-01  1.2851691542473E+00
   108  1.0700000000000E+00 -7.4428980958784E-01  1.2366073368341E+00
   109  1.0800000000000E+00 -7.4397889086447E-01  1.1825945782692E+00
   110  1.0900000000000E+00 -7.3938861047544E-01  1.1231865262356E+00
   111  1.1000000000000E+00 -7.3056563349314E-01  1.0585086766692E+00
   112  1.1100000000000E+00 -7.1759561376082E-01  9.8875832827510E-01
   113  1.1200000000000E+00 -7.0060351610125E-01  9.1420537859356E-01
   114  1.1300000000000E+00 -6.7975336393971E-01  8.3519191356022E-01
   115  1.1400000000000E+00 -6.5524739958257E-01  7.5213056313880E-01
   116  1.1500000000000E+00 -6.2732465443930E-01  6.6550161716887E-01
   117  1.1600000000000E+00 -5.9625893672786E-01  5.7584891755482E-01
   118  1.1700000000000E+00 -5.6235625454281E-01  4.8377456507646E-01
   119  1.1800000000000E+00 -5.2595170231589E-01  3.8993250083187E-01
   120  1.1900000000000E+00 -4.8740584859370E-01  2.9502104348781E-01
   121  1.2000000000000E+00 -4.4710067235196E-01  1.9977448337458E-01
   122  1.2100000000000E+00 -4.0543510377212E-01  1.0495385304657E-01
   123  1.2200000000000E+00 -3.6282023316926E-01  1.1337010477777E-02
   124  1.2300000000000E+00 -3.1967425857398E-01 -8.0291814436989E-02
   125  1.2400000000000E+00 -2.7641724812172E-01 -1.6915284740875E-01
   126  1.2500000000000E+00 -2.3346579777691E-01 -2.5448179938859E-01
   127  1.2600000000000E+00 -1.9122766796990E-01 -3.3554091998154E-01
   128  1.2700000000000E+00 -1.5009648431206E-01 -4.1162989304292E-01
   129  1.2800000000000E+00 -1.1044658769330E-01 -4.8209639269605E-01
   130  1.2900000000000E+00 -7.2628117693067E-02 -5.4634612108966E-01
   131  1.3000000000000E+00 -3.6962410373854E-02 -6.0385215547711E-01
   132  1.3100000000000E+00 -3.7377872391393E-03 -6.5416344151496E-01
   133  1.3200000000000E+00  2.6794193595089E-02 -6.9691228208432E-01
   134  1.3300000000000E+00  5.4421959967145E-02 -7.3182068605332E-01
   135  1.3400000000000E+00  7.8976566120845E-02 -7.5870545905984E-01
   136  1.3500000000000E+00  1.0033370447252E-01 -7.7748193838194E-01
   137  1.3600000000000E+00  1.1841505230358E-01 -7.8816629585057E-01
   138  1.3700000000000E+00  1.3318892790796E-01 -7.9087635622113E-01
   139  1.3800000000000E+00  1.4467024216430E-01 -7.8583090298340E-01
   140  1.3900000000000E+00  1.5291974335179E-01 -7.7334746901159E-01
   141  1.4000000000000E+00  1.5804256498565E-01 -7.5383863509413E-01
   142  1.4100000000000E+00  1.6018609834083E-01 -7.2780688486575E-01
   143  1.4200000000000E+00  1.5953722298836E-01 -6.9583808962454E-01
   144  1.4300000000000E+00  1.5631893976534E-01 -6.5859372026139E-01
   145  1.4400000000000E+00  1.5078646114213E-01 -6.1680190607277E-01
   146  1.4500000000000E+00  1.4322282350037E-01 -5.7124748062844E-01
   147  1.4600000000000E+00  1.3393409441638E-01 -5.2276117317697E-01
   148  1.4700000000000E+00  1.2324425540498E-01 -4.7220811975435E-01
   149  1.4800000000000E+00  1.1148984695154E-01 -4.2047588186536E-01
   150  1.4900000000000E+00  9.9014467287558E-02 -3.6846217035716E-01
   151  1.5000000000000E+00  8.6163204214888E-02 -3.1706243054415E-01
   152  1.5100000000000E+00  7.3277102184136E-02 -2.6715760729122E-01
   153  1.5200000000000E+00  6.0686137148319E-02 -2.1959767471642E-01
   154  1.5300000000000E+00  4.8696423862117E-02 -1.7517368865701E-01
   155  1.5400000000000E+00  3.7569827375624E-02 -1.3457909365230E-01
   156  1.5500000000000E+00  2.7559304106356E-02 -9.8467203697142E-02
   157  1.5600000000000E+00  1.8888583674871E-02 -6.7415741567946E-02