Ir    ONCVPSP-4.0.1  r_core=   1.60652   1.60652   1.50421   2.25929
     77.0000     17.0000      250925    zatom,zion,pspd
     8   -1012   3     4   500     0    pspcod,pspxc,lmax,lloc,mmax,r2well
  4.99000000  5.00000000  0.00000000    rchrg fchrg qchrg
     2     3     3     2    nproj
     3     1           extension_switch
     4     4     4    nprojso
   0                         2.5534704167412E+01  2.2715781429098E+00
     1  0.0000000000000E+00  1.3003229604180E-09 -2.0609914885839E-09
     2  1.0000000000000E-02  6.9667952590228E-02  2.5384276720979E-03
     3  2.0000000000000E-02  1.3924100515783E-01  5.0468230796844E-03
     4  3.0000000000000E-02  2.0862343781213E-01  7.4967669586383E-03
     5  4.0000000000000E-02  2.7771791054011E-01  9.8630346414682E-03
     6  5.0000000000000E-02  3.4642470184054E-01  1.2125115382507E-02
     7  6.0000000000000E-02  4.1464100484925E-01  1.4268639610722E-02
     8  7.0000000000000E-02  4.8226029856367E-01  1.6286685885256E-02
     9  8.0000000000000E-02  5.4917181047427E-01  1.8180941389795E-02
    10  9.0000000000000E-02  6.1526008532601E-01  1.9962692313622E-02
    11  1.0000000000000E-01  6.8040467288928E-01  2.1653623387989E-02
    12  1.1000000000000E-01  7.4447994554894E-01  2.3286409127926E-02
    13  1.2000000000000E-01  8.0735505425477E-01  2.4905082917441E-02
    14  1.3000000000000E-01  8.6889402895540E-01  2.6565173910677E-02
    15  1.4000000000000E-01  9.2895602709968E-01  2.8333605739387E-02
    16  1.5000000000000E-01  9.8739573117770E-01  3.0288355151028E-02
    17  1.6000000000000E-01  1.0440638936303E+00  3.2517872882965E-02
    18  1.7000000000000E-01  1.0988080248255E+00  3.5120273237495E-02
    19  1.8000000000000E-01  1.1514732172278E+00  3.8202302888528E-02
    20  1.9000000000000E-01  1.2019030964111E+00  4.1878103357534E-02
    21  2.0000000000000E-01  1.2499408872358E+00  4.6267785276028E-02
    22  2.1000000000000E-01  1.2954305813559E+00  5.1495835943296E-02
    23  2.2000000000000E-01  1.3382181902906E+00  5.7689384733792E-02
    24  2.3000000000000E-01  1.3781530666058E+00  6.4976353554712E-02
    25  2.4000000000000E-01  1.4150892743489E+00  7.3483521757725E-02
    26  2.5000000000000E-01  1.4488869887727E+00  8.3334536628595E-02
    27  2.6000000000000E-01  1.4794139046086E+00  9.4647901785340E-02
    28  2.7000000000000E-01  1.5065466317015E+00  1.0753497648659E-01
    29  2.8000000000000E-01  1.5301720567260E+00  1.2209801897412E-01
    30  2.9000000000000E-01  1.5501886499511E+00  1.3842830654162E-01
    31  3.0000000000000E-01  1.5665076966215E+00  1.5660436404127E-01
    32  3.1000000000000E-01  1.5790544334579E+00  1.7669033102416E-01
    33  3.2000000000000E-01  1.5877690720390E+00  1.9873449568250E-01
    34  3.3000000000000E-01  1.5926076923951E+00  2.2276802125234E-01
    35  3.4000000000000E-01  1.5935429919826E+00  2.4880388758525E-01
    36  3.5000000000000E-01  1.5905648773127E+00  2.7683606725245E-01
    37  3.6000000000000E-01  1.5836808878145E+00  3.0683895185888E-01
    38  3.7000000000000E-01  1.5729164440097E+00  3.3876704027876E-01
    39  3.8000000000000E-01  1.5583149147128E+00  3.7255489634142E-01
    40  3.9000000000000E-01  1.5399375006958E+00  4.0811737916625E-01
    41  4.0000000000000E-01  1.5178629350471E+00  4.4535014494013E-01
    42  4.1000000000000E-01  1.4921870032400E+00  4.8413041452237E-01
    43  4.2000000000000E-01  1.4630218886798E+00  5.2431799692495E-01
    44  4.3000000000000E-01  1.4304953521633E+00  5.6575655452319E-01
    45  4.4000000000000E-01  1.3947497562216E+00  6.0827509187357E-01
    46  4.5000000000000E-01  1.3559409476817E+00  6.5168964632051E-01
    47  4.6000000000000E-01  1.3142370139343E+00  6.9580515522526E-01
    48  4.7000000000000E-01  1.2698169302977E+00  7.4041747170598E-01
    49  4.8000000000000E-01  1.2228691174945E+00  7.8531549828953E-01
    50  4.9000000000000E-01  1.1735899295644E+00  8.3028340588932E-01
    51  5.0000000000000E-01  1.1221820935233E+00  8.7510290407229E-01
    52  5.1000000000000E-01  1.0688531227057E+00  9.1955552769303E-01
    53  5.2000000000000E-01  1.0138137259979E+00  9.6342490467004E-01
    54  5.3000000000000E-01  9.5727623507017E-01  1.0064989699675E+00
    55  5.4000000000000E-01  8.9945307124949E-01  1.0485720917249E+00
    56  5.5000000000000E-01  8.4055527284732E-01  1.0894470769341E+00
    57  5.6000000000000E-01  7.8079110258131E-01  1.1289370260789E+00
    58  5.7000000000000E-01  7.2036475322441E-01  1.1668670086934E+00
    59  5.8000000000000E-01  6.5947516780410E-01  1.2030755348276E+00
    60  5.9000000000000E-01  5.9831498858828E-01  1.2374158008732E+00
    61  6.0000000000000E-01  5.3706964676618E-01  1.2697566920570E+00
    62  6.1000000000000E-01  4.7591660220283E-01  1.2999835280775E+00
    63  6.2000000000000E-01  4.1502473995580E-01  1.3279985427832E+00
    64  6.3000000000000E-01  3.5455392743810E-01  1.3537210933856E+00
    65  6.4000000000000E-01  2.9465473324149E-01  1.3770875994005E+00
    66  6.5000000000000E-01  2.3546830574604E-01  1.3980512162216E+00
    67  6.6000000000000E-01  1.7712640678804E-01  1.4165812528887E+00
    68  6.7000000000000E-01  1.1975159288642E-01  1.4326623481202E+00
    69  6.8000000000000E-01  6.3457533888303E-02  1.4462934229716E+00
    70  6.9000000000000E-01  8.3494564336954E-03  1.4574864324709E+00
    71  7.0000000000000E-01 -4.5475302598836E-02  1.4662649422086E+00
    72  7.1000000000000E-01 -9.7926649476788E-02  1.4726625590442E+00
    73  7.2000000000000E-01 -1.4892101231355E-01  1.4767212477886E+00
    74  7.3000000000000E-01 -1.9838056490792E-01  1.4784895678677E+00
    75  7.4000000000000E-01 -2.4623241653020E-01  1.4780208655341E+00
    76  7.5000000000000E-01 -2.9240778906307E-01  1.4753714581342E+00
    77  7.6000000000000E-01 -3.3684120311466E-01  1.4705988472323E+00
    78  7.7000000000000E-01 -3.7946969452860E-01  1.4637599970354E+00
    79  7.8000000000000E-01 -4.2023208212263E-01  1.4549097135475E+00
    80  7.9000000000000E-01 -4.5906830649833E-01  1.4440991582186E+00
    81  8.0000000000000E-01 -4.9591885839457E-01  1.4313745275707E+00
    82  8.1000000000000E-01 -5.3072431332568E-01  1.4167759274079E+00
    83  8.2000000000000E-01 -5.6342498717819E-01  1.4003364667880E+00
    84  8.3000000000000E-01 -5.9396072507171E-01  1.3820815930200E+00
    85  8.4000000000000E-01 -6.2227083315705E-01  1.3620286845931E+00
    86  8.5000000000000E-01 -6.4829416017135E-01  1.3401869142316E+00
    87  8.6000000000000E-01 -6.7196933254531E-01  1.3165573892667E+00
    88  8.7000000000000E-01 -6.9323514371139E-01  1.2911335713158E+00
    89  8.8000000000000E-01 -7.1203109504817E-01  1.2639019719425E+00
    90  8.9000000000000E-01 -7.2829808267293E-01  1.2348431156295E+00
    91  9.0000000000000E-01 -7.4197922111686E-01  1.2039327561298E+00
    92  9.1000000000000E-01 -7.5302079184274E-01  1.1711433271492E+00
    93  9.2000000000000E-01 -7.6137330165091E-01  1.1364456034594E+00
    94  9.3000000000000E-01 -7.6699263331737E-01  1.0998105440263E+00
    95  9.4000000000000E-01 -7.6984126837190E-01  1.0612112846465E+00
    96  9.5000000000000E-01 -7.6988955979869E-01  1.0206252439941E+00
    97  9.6000000000000E-01 -7.6711703067304E-01  9.7803630396399E-01
    98  9.7000000000000E-01 -7.6151367336902E-01  9.3343702280619E-01
    99  9.8000000000000E-01 -7.5308122301904E-01  8.8683083784636E-01
   100  9.9000000000000E-01 -7.4183437839826E-01  8.3823421360268E-01
   101  1.0000000000000E+00 -7.2780194336446E-01  7.8767869088178E-01
   102  1.0100000000000E+00 -7.1102786241517E-01  7.3521279297512E-01
   103  1.0200000000000E+00 -6.9157212482960E-01  6.8090374638562E-01
   104  1.0300000000000E+00 -6.6951151323880E-01  6.2483897558741E-01
   105  1.0400000000000E+00 -6.4494017429728E-01  5.6712733413356E-01
   106  1.0500000000000E+00 -6.1796999138834E-01  5.0790003793897E-01
   107  1.0600000000000E+00 -5.8873074195988E-01  4.4731127074141E-01
   108  1.0700000000000E+00 -5.5737002511352E-01  3.8553843651263E-01
   109  1.0800000000000E+00 -5.2405294841283E-01  3.2278203888385E-01
   110  1.0900000000000E+00 -4.8896156649881E-01  2.5926517340414E-01
   111  1.1000000000000E+00 -4.5229406792182E-01  1.9523262454027E-01
   112  1.1100000000000E+00 -4.1426371059285E-01  1.3094956570771E-01
   113  1.1200000000000E+00 -3.7509751032312E-01  6.6699867137028E-02
   114  1.1300000000000E+00 -3.3503469102817E-01  2.7840229761764E-03
   115  1.1400000000000E+00 -2.9432490922373E-01 -6.0483284447883E-02
   116  1.1500000000000E+00 -2.5322626939369E-01 -1.2277595890383E-01
   117  1.1600000000000E+00 -2.1200315057435E-01 -1.8375957266743E-01
   118  1.1700000000000E+00 -1.7092386803525E-01 -2.4309472092668E-01
   119  1.1800000000000E+00 -1.3025819715170E-01 -3.0044060679302E-01
   120  1.1900000000000E+00 -9.0274789438550E-02 -3.5545881081774E-01
   121  1.2000000000000E+00 -5.1238513150687E-02 -4.0781719489073E-01
   122  1.2100000000000E+00 -1.3407752854513E-02 -4.5719388706250E-01
   123  1.2200000000000E+00  2.2968296147542E-02 -5.0328129132030E-01
   124  1.2300000000000E+00  5.7652301699485E-02 -5.4579006466033E-01
   125  1.2400000000000E+00  9.0421399749101E-02 -5.8445300300815E-01
   126  1.2500000000000E+00  1.2106969332152E-01 -6.1902877764799E-01
   127  1.2600000000000E+00  1.4941060921038E-01 -6.4930546486376E-01
   128  1.2700000000000E+00  1.7527907742090E-01 -6.7510381345020E-01
   129  1.2800000000000E+00  1.9853350028851E-01 -6.9628019759748E-01
   130  1.2900000000000E+00  2.1905748064569E-01 -7.1272920639039E-01
   131  1.3000000000000E+00  2.3676128135884E-01 -7.2438582570449E-01
   132  1.3100000000000E+00  2.5158299196870E-01 -7.3122717356454E-01
   133  1.3200000000000E+00  2.6348938203776E-01 -7.3327375604949E-01
   134  1.3300000000000E+00  2.7247642502121E-01 -7.3059021740301E-01
   135  1.3400000000000E+00  2.7856948100601E-01 -7.2328556509288E-01
   136  1.3500000000000E+00  2.8182313145007E-01 -7.1151285806919E-01
   137  1.3600000000000E+00  2.8232066400423E-01 -6.9546835424899E-01
   138  1.3700000000000E+00  2.8017321055346E-01 -6.7539012120614E-01
   139  1.3800000000000E+00  2.7551854667734E-01 -6.5155612202503E-01
   140  1.3900000000000E+00  2.6851956576353E-01 -6.2428179621785E-01
   141  1.4000000000000E+00  2.5936244589004E-01 -5.9391716331865E-01
   142  1.4100000000000E+00  2.4825453226752E-01 -5.6084348416184E-01
   143  1.4200000000000E+00  2.3542196243761E-01 -5.2546952182897E-01
   144  1.4300000000000E+00  2.2110706544903E-01 -4.8822745063059E-01
   145  1.4400000000000E+00  2.0556556988588E-01 -4.4956846729133E-01
   146  1.4500000000000E+00  1.8906365875486E-01 -4.0995816348892E-01
   147  1.4600000000000E+00  1.7187491187039E-01 -3.6987172309601E-01
   148  1.4700000000000E+00  1.5427717842968E-01 -3.2978901075807E-01
   149  1.4800000000000E+00  1.3654942433720E-01 -2.9018962149134E-01
   150  1.4900000000000E+00  1.1896859968888E-01 -2.5154796235301E-01
   151  1.5000000000000E+00  1.0180655159722E-01 -2.1432840085738E-01
   152  1.5100000000000E+00  8.5327053596123E-02 -1.7898061604152E-01
   153  1.5200000000000E+00  6.9780924017815E-02 -1.4593158161054E-01
   154  1.5300000000000E+00  5.5394663474602E-02 -1.1556721232282E-01
   155  1.5400000000000E+00  4.2352086837276E-02 -8.8203666909924E-02
   156  1.5500000000000E+00  3.0833966567671E-02 -6.4148043174403E-02
   157  1.5600000000000E+00  2.0998192398600E-02 -4.3668472995096E-02
   158  1.5700000000000E+00  1.2968037147341E-02 -2.6976147735346E-02
   159  1.5800000000000E+00  6.8326067373962E-03 -1.4226587312477E-02
   160  1.5900000000000E+00  2.6317699666318E-03 -5.4885217662511E-03
   161  1.6000000000000E+00  4.3707983899589E-04 -9.1367551389106E-04
   162  1.6100000000000E+00 -4.3139477551944E-05  9.0333623305542E-05
   163  1.6200000000000E+00  1.2951505949442E-05 -2.7091164878025E-05
   164  1.63  0.  0.
   165  1.64  0.  0.
   166  1.65  0.  0.
   167  1.66  0.  0.
   168  1.67  0.  0.
   169  1.68  0.  0.
   170  1.69  0.  0.
   171  1.70  0.  0.
   172  1.71  0.  0.
   173  1.72  0.  0.
   174  1.73  0.  0.
   175  1.74  0.  0.
   176  1.75  0.  0.
   177  1.76  0.  0.
   178  1.77  0.  0.
   179  1.78  0.  0.
   180  1.79  0.  0.
   181  1.80  0.  0.
   182  1.81  0.  0.
   183  1.82  0.  0.
   184  1.83  0.  0.
   185  1.84  0.  0.
   186  1.85  0.  0.
   187  1.86  0.  0.
   188  1.87  0.  0.
   189  1.88  0.  0.
   190  1.89  0.  0.
   191  1.90  0.  0.
   192  1.91  0.  0.
   193  1.92  0.  0.
   194  1.93  0.  0.
   195  1.94  0.  0.
   196  1.95  0.  0.
   197  1.96  0.  0.
   198  1.97  0.  0.
   199  1.98  0.  0.
   200  1.99  0.  0.
   201  2.00  0.  0.
   202  2.01  0.  0.
   203  2.02  0.  0.
   204  2.03  0.  0.
   205  2.04  0.  0.
   206  2.05  0.  0.
   207  2.06  0.  0.
   208  2.07  0.  0.
   209  2.08  0.  0.
   210  2.09  0.  0.
   211  2.10  0.  0.
   212  2.11  0.  0.
   213  2.12  0.  0.
   214  2.13  0.  0.
   215  2.14  0.  0.
   216  2.15  0.  0.
   217  2.16  0.  0.
   218  2.17  0.  0.
   219  2.18  0.  0.
   220  2.19  0.  0.
   221  2.20  0.  0.
   222  2.21  0.  0.
   223  2.22  0.  0.
   224  2.23  0.  0.
   225  2.24  0.  0.
   226  2.25  0.  0.
   227  2.26  0.  0.
   228  2.27  0.  0.
   229  2.28  0.  0.
   230  2.29  0.  0.
   231  2.30  0.  0.
   232  2.31  0.  0.
   233  2.32  0.  0.
   234  2.33  0.  0.
   235  2.34  0.  0.
   236  2.35  0.  0.
   237  2.36  0.  0.
   238  2.37  0.  0.
   239  2.38  0.  0.
   240  2.39  0.  0.
   241  2.40  0.  0.
   242  2.41  0.  0.
   243  2.42  0.  0.
   244  2.43  0.  0.
   245  2.44  0.  0.
   246  2.45  0.  0.
   247  2.46  0.  0.
   248  2.47  0.  0.
   249  2.48  0.  0.
   250  2.49  0.  0.
   251  2.50  0.  0.
   252  2.51  0.  0.
   253  2.52  0.  0.
   254  2.53  0.  0.
   255  2.54  0.  0.
   256  2.55  0.  0.
   257  2.56  0.  0.
   258  2.57  0.  0.
   259  2.58  0.  0.
   260  2.59  0.  0.
   261  2.60  0.  0.
   262  2.61  0.  0.
   263  2.62  0.  0.
   264  2.63  0.  0.
   265  2.64  0.  0.
   266  2.65  0.  0.
   267  2.66  0.  0.
   268  2.67  0.  0.
   269  2.68  0.  0.
   270  2.69  0.  0.
   271  2.70  0.  0.
   272  2.71  0.  0.
   273  2.72  0.  0.
   274  2.73  0.  0.
   275  2.74  0.  0.
   276  2.75  0.  0.
   277  2.76  0.  0.
   278  2.77  0.  0.
   279  2.78  0.  0.
   280  2.79  0.  0.
   281  2.80  0.  0.
   282  2.81  0.  0.
   283  2.82  0.  0.
   284  2.83  0.  0.
   285  2.84  0.  0.
   286  2.85  0.  0.
   287  2.86  0.  0.
   288  2.87  0.  0.
   289  2.88  0.  0.
   290  2.89  0.  0.
   291  2.90  0.  0.
   292  2.91  0.  0.
   293  2.92  0.  0.
   294  2.93  0.  0.
   295  2.94  0.  0.
   296  2.95  0.  0.
   297  2.96  0.  0.
   298  2.97  0.  0.
   299  2.98  0.  0.
   300  2.99  0.  0.
   301  3.00  0.  0.
   302  3.01  0.  0.
   303  3.02  0.  0.
   304  3.03  0.  0.
   305  3.04  0.  0.
   306  3.05  0.  0.
   307  3.06  0.  0.
   308  3.07  0.  0.
   309  3.08  0.  0.
   310  3.09  0.  0.
   311  3.10  0.  0.
   312  3.11  0.  0.
   313  3.12  0.  0.
   314  3.13  0.  0.
   315  3.14  0.  0.
   316  3.15  0.  0.
   317  3.16  0.  0.
   318  3.17  0.  0.
   319  3.18  0.  0.
   320  3.19  0.  0.
   321  3.20  0.  0.
   322  3.21  0.  0.
   323  3.22  0.  0.
   324  3.23  0.  0.
   325  3.24  0.  0.
   326  3.25  0.  0.
   327  3.26  0.  0.
   328  3.27  0.  0.
   329  3.28  0.  0.
   330  3.29  0.  0.
   331  3.30  0.  0.
   332  3.31  0.  0.
   333  3.32  0.  0.
   334  3.33  0.  0.
   335  3.34  0.  0.
   336  3.35  0.  0.
   337  3.36  0.  0.
   338  3.37  0.  0.
   339  3.38  0.  0.
   340  3.39  0.  0.
   341  3.40  0.  0.
   342  3.41  0.  0.
   343  3.42  0.  0.
   344  3.43  0.  0.
   345  3.44  0.  0.
   346  3.45  0.  0.
   347  3.46  0.  0.
   348  3.47  0.  0.
   349  3.48  0.  0.
   350  3.49  0.  0.
   351  3.50  0.  0.
   352  3.51  0.  0.
   353  3.52  0.  0.
   354  3.53  0.  0.
   355  3.54  0.  0.
   356  3.55  0.  0.
   357  3.56  0.  0.
   358  3.57  0.  0.
   359  3.58  0.  0.
   360  3.59  0.  0.
   361  3.60  0.  0.
   362  3.61  0.  0.
   363  3.62  0.  0.
   364  3.63  0.  0.
   365  3.64  0.  0.
   366  3.65  0.  0.
   367  3.66  0.  0.
   368  3.67  0.  0.
   369  3.68  0.  0.
   370  3.69  0.  0.
   371  3.70  0.  0.
   372  3.71  0.  0.
   373  3.72  0.  0.
   374  3.73  0.  0.
   375  3.74  0.  0.
   376  3.75  0.  0.
   377  3.76  0.  0.
   378  3.77  0.  0.
   379  3.78  0.  0.
   380  3.79  0.  0.
   381  3.80  0.  0.
   382  3.81  0.  0.
   383  3.82  0.  0.
   384  3.83  0.  0.
   385  3.84  0.  0.
   386  3.85  0.  0.
   387  3.86  0.  0.
   388  3.87  0.  0.
   389  3.88  0.  0.
   390  3.89  0.  0.
   391  3.90  0.  0.
   392  3.91  0.  0.
   393  3.92  0.  0.
   394  3.93  0.  0.
   395  3.94  0.  0.
   396  3.95  0.  0.
   397  3.96  0.  0.
   398  3.97  0.  0.
   399  3.98  0.  0.
   400  3.99  0.  0.
   401  4.00  0.  0.
   402  4.01  0.  0.
   403  4.02  0.  0.
   404  4.03  0.  0.
   405  4.04  0.  0.
   406  4.05  0.  0.
   407  4.06  0.  0.
   408  4.07  0.  0.
   409  4.08  0.  0.
   410  4.09  0.  0.
   411  4.10  0.  0.
   412  4.11  0.  0.
   413  4.12  0.  0.
   414  4.13  0.  0.
   415  4.14  0.  0.
   416  4.15  0.  0.
   417  4.16  0.  0.
   418  4.17  0.  0.
   419  4.18  0.  0.
   420  4.19  0.  0.
   421  4.20  0.  0.
   422  4.21  0.  0.
   423  4.22  0.  0.
   424  4.23  0.  0.
   425  4.24  0.  0.
   426  4.25  0.  0.
   427  4.26  0.  0.
   428  4.27  0.  0.
   429  4.28  0.  0.
   430  4.29  0.  0.
   431  4.30  0.  0.
   432  4.31  0.  0.
   433  4.32  0.  0.
   434  4.33  0.  0.
   435  4.34  0.  0.
   436  4.35  0.  0.
   437  4.36  0.  0.
   438  4.37  0.  0.
   439  4.38  0.  0.
   440  4.39  0.  0.
   441  4.40  0.  0.
   442  4.41  0.  0.
   443  4.42  0.  0.
   444  4.43  0.  0.
   445  4.44  0.  0.
   446  4.45  0.  0.
   447  4.46  0.  0.
   448  4.47  0.  0.
   449  4.48  0.  0.
   450  4.49  0.  0.
   451  4.50  0.  0.
   452  4.51  0.  0.
   453  4.52  0.  0.
   454  4.53  0.  0.
   455  4.54  0.  0.
   456  4.55  0.  0.
   457  4.56  0.  0.
   458  4.57  0.  0.
   459  4.58  0.  0.
   460  4.59  0.  0.
   461  4.60  0.  0.
   462  4.61  0.  0.
   463  4.62  0.  0.
   464  4.63  0.  0.
   465  4.64  0.  0.
   466  4.65  0.  0.
   467  4.66  0.  0.
   468  4.67  0.  0.
   469  4.68  0.  0.
   470  4.69  0.  0.
   471  4.70  0.  0.
   472  4.71  0.  0.
   473  4.72  0.  0.
   474  4.73  0.  0.
   475  4.74  0.  0.
   476  4.75  0.  0.
   477  4.76  0.  0.
   478  4.77  0.  0.
   479  4.78  0.  0.
   480  4.79  0.  0.
   481  4.80  0.  0.
   482  4.81  0.  0.
   483  4.82  0.  0.
   484  4.83  0.  0.
   485  4.84  0.  0.
   486  4.85  0.  0.
   487  4.86  0.  0.
   488  4.87  0.  0.
   489  4.88  0.  0.
   490  4.89  0.  0.
   491  4.90  0.  0.
   492  4.91  0.  0.
   493  4.92  0.  0.
   494  4.93  0.  0.
   495  4.94  0.  0.
   496  4.95  0.  0.
   497  4.96  0.  0.
   498  4.97  0.  0.
   499  4.98  0.  0.
   500  4.99  0.  0.
   1                         5.3042963253154E+00  5.0334167372802E-01 -6.0158193822308E-02
     1  0.0000000000000E+00 -2.4263093895138E-09  6.0004708563044E-09 -1.6984084738429E-08
     2  1.0000000000000E-02  1.3219944854170E-03 -2.2506745967812E-04 -2.1334125787772E-04
     3  2.0000000000000E-02  5.2860150763109E-03 -9.0418044676490E-04 -8.3505969401618E-04
     4  3.0000000000000E-02  1.1886118850558E-02 -2.0489163288606E-03 -1.8107087545699E-03
     5  4.0000000000000E-02  2.1112221298545E-02 -3.6780594427202E-03 -3.0510989653657E-03
     6  5.0000000000000E-02  3.2949831900112E-02 -5.8168466337981E-03 -4.4345950277224E-03
     7  6.0000000000000E-02  4.7379693896882E-02 -8.4959356527024E-03 -5.8102623262373E-03
     8  7.0000000000000E-02  6.4377337975929E-02 -1.1750120434818E-02 -7.0017951052409E-03
     9  8.0000000000000E-02  8.3912562007023E-02 -1.5616823289839E-02 -7.8121415865330E-03
    10  9.0000000000000E-02  1.0594885114904E-01 -2.0134399403226E-02 -8.0287260267351E-03
    11  1.0000000000000E-01  1.3044275451571E-01 -2.5340293689302E-02 -7.4291544650714E-03
    12  1.1000000000000E-01  1.5734323612673E-01 -3.1269093837268E-02 -5.7872799603231E-03
    13  1.2000000000000E-01  1.8659101903368E-01 -3.7950526274144E-02 -2.8794946855861E-03
    14  1.3000000000000E-01  2.1811794227555E-01 -4.5407443670678E-02  1.5088894776372E-03
    15  1.4000000000000E-01  2.5184635066708E-01 -5.3653853491320E-02  7.5773131103188E-03
    16  1.5000000000000E-01  2.8768853734549E-01 -6.2693036916308E-02  1.5503835464595E-02
    17  1.6000000000000E-01  3.2554625849495E-01 -7.2515806238598E-02  2.5439333089391E-02
    18  1.7000000000000E-01  3.6531033874086E-01 -8.3098946580466E-02  3.7502163494864E-02
    19  1.8000000000000E-01  4.0686038437329E-01 -9.4403884523497E-02  5.1773417966782E-02
    20  1.9000000000000E-01  4.5006461984326E-01 -1.0637562206126E-01  6.8292876527279E-02
    21  2.0000000000000E-01  4.9477986090932E-01 -1.1894196924539E-01  8.7055764534380E-02
    22  2.1000000000000E-01  5.4085163543275E-01 -1.3201310309889E-01  1.0801039477583E-01
    23  2.2000000000000E-01  5.8811446017247E-01 -1.4548147392950E-01  1.3105676144088E-01
    24  2.3000000000000E-01  6.3639227906633E-01 -1.5922207321444E-01  1.5604613339099E-01
    25  2.4000000000000E-01  6.8549906545804E-01 -1.7309306988574E-01  1.8278167406115E-01
    26  2.5000000000000E-01  7.3523958759807E-01 -1.8693681426707E-01  2.1102009450513E-01
    27  2.6000000000000E-01  7.8541033357300E-01 -2.0058120125121E-01  2.4047432496161E-01
    28  2.7000000000000E-01  8.3580058866322E-01 -2.1384137671608E-01  2.7081716928055E-01
    29  2.8000000000000E-01  8.8619365505694E-01 -2.2652176381216E-01  3.0168588603352E-01
    30  2.9000000000000E-01  9.3636820091940E-01 -2.3841837876553E-01  3.3268762054954E-01
    31  3.0000000000000E-01  9.8609972309000E-01 -2.4932139937401E-01  3.6340559386585E-01
    32  3.1000000000000E-01  1.0351621052119E+00 -2.5901794356572E-01  3.9340593803611E-01
    33  3.2000000000000E-01  1.0833292509395E+00 -2.6729501036232E-01  4.2224505273824E-01
    34  3.3000000000000E-01  1.1303767700646E+00 -2.7394253145479E-01  4.4947734597646E-01
    35  3.4000000000000E-01  1.1760836939906E+00 -2.7875647844943E-01  4.7466321213751E-01
    36  3.5000000000000E-01  1.2202341959997E+00 -2.8154196875016E-01  4.9737709395310E-01
    37  3.6000000000000E-01  1.2626192912165E+00 -2.8211631206592E-01  5.1721547119426E-01
    38  3.7000000000000E-01  1.3030384911026E+00 -2.8031193969811E-01  5.3380461828357E-01
    39  3.8000000000000E-01  1.3413013877078E+00 -2.7597916008681E-01  5.4680797549508E-01
    40  3.9000000000000E-01  1.3772291437693E+00 -2.6898868655933E-01  5.5593298400292E-01
    41  4.0000000000000E-01  1.4106558660672E+00 -2.5923388679786E-01  5.6093724365502E-01
    42  4.1000000000000E-01  1.4414298411952E+00 -2.4663270816497E-01  5.6163386384886E-01
    43  4.2000000000000E-01  1.4694146150648E+00 -2.3112923861865E-01  5.5789589207249E-01
    44  4.3000000000000E-01  1.4944898999820E+00 -2.1269486941213E-01  5.4965972129352E-01
    45  4.4000000000000E-01  1.5165522959825E+00 -1.9132903299099E-01  5.3692739612975E-01
    46  4.5000000000000E-01  1.5355158162293E+00 -1.6705949733706E-01  5.1976775826972E-01
    47  4.6000000000000E-01  1.5513122096031E+00 -1.3994220631821E-01  4.9831639354328E-01
    48  4.7000000000000E-01  1.5638910770986E+00 -1.1006066422553E-01  4.7277436595927E-01
    49  4.8000000000000E-01  1.5732197822062E+00 -7.7524871449838E-02  4.4340574748506E-01
    50  4.9000000000000E-01  1.5792831590421E+00 -4.2469826994767E-02  4.1053397588978E-01
    51  5.0000000000000E-01  1.5820830255234E+00 -5.0536220712904E-03  3.7453709615070E-01
    52  5.1000000000000E-01  1.5816375123013E+00  3.4544842802113E-02  3.3584196326621E-01
    53  5.2000000000000E-01  1.5779802213926E+00  7.6128477126439E-02  2.9491750539304E-01
    54  5.3000000000000E-01  1.5711592314308E+00  1.1948490915776E-01  2.5226716559139E-01
    55  5.4000000000000E-01  1.5612359691280E+00  1.6438963092213E-01  2.0842065773644E-01
    56  5.5000000000000E-01  1.5482839688493E+00  2.1060932123902E-01  1.6392518696261E-01
    57  5.6000000000000E-01  1.5323875440961E+00  2.5790528442708E-01  1.1933629704682E-01
    58  5.7000000000000E-01  1.5136403961477E+00  3.0603693948920E-01  7.5208516130225E-02
    59  5.8000000000000E-01  1.4921441860705E+00  3.5476529294894E-01  3.2085977924602E-02
    60  5.9000000000000E-01  1.4680070967734E+00  4.0385632818640E-01 -9.5068021041025E-03
    61  6.0000000000000E-01  1.4413424117263E+00  4.5308424512190E-01 -4.9073817217898E-02
    62  6.1000000000000E-01  1.4122671363881E+00  5.0223448641981E-01 -8.6155952832297E-02
    63  6.2000000000000E-01  1.3809006872989E+00  5.5110649000436E-01 -1.2033869724522E-01
    64  6.3000000000000E-01  1.3473636722100E+00  5.9951611254105E-01 -1.5125902544327E-01
    65  6.4000000000000E-01  1.3117767825676E+00  6.4729767456356E-01 -1.7861131631672E-01
    66  6.5000000000000E-01  1.2742598171855E+00  6.9430558501459E-01 -2.0215218107075E-01
    67  6.6000000000000E-01  1.2349308530645E+00  7.4041551099462E-01 -2.2170410066851E-01
    68  6.7000000000000E-01  1.1939055761122E+00  7.8552506733201E-01 -2.3715779241703E-01
    69  6.8000000000000E-01  1.1512967810341E+00  8.2955401003896E-01 -2.4847324990784E-01
    70  6.9000000000000E-01  1.1072140459817E+00  8.7244392762230E-01 -2.5567942599838E-01
    71  7.0000000000000E-01  1.0617635837167E+00  9.1415743439060E-01 -2.5887255488593E-01
    72  7.1000000000000E-01  1.0150482671676E+00  9.5467688014094E-01 -2.5821313608818E-01
    73  7.2000000000000E-01  9.6716782338462E-01  9.9400260072094E-01 -2.5392162977602E-01
    74  7.3000000000000E-01  9.1821918612042E-01  1.0321507437440E+00 -2.4627293889237E-01
    75  7.4000000000000E-01  8.6829699365875E-01  1.0691507129887E+00 -2.3558977832172E-01
    76  7.5000000000000E-01  8.1749421514597E-01  1.1050422835481E+00 -2.2223505454703E-01
    77  7.6000000000000E-01  7.6590288562939E-01  1.1398724474355E+00 -2.0660340027042E-01
    78  7.7000000000000E-01  7.1361492733243E-01  1.1736920559259E+00 -1.8911202695986E-01
    79  7.8000000000000E-01  6.6072303245902E-01  1.2065523302848E+00 -1.7019107380176E-01
    80  7.9000000000000E-01  6.0732158106876E-01  1.2385013165692E+00 -1.5027364377056E-01
    81  8.0000000000000E-01  5.5350756634159E-01  1.2695803627891E+00 -1.2978572617738E-01
    82  8.1000000000000E-01  4.9938149888848E-01  1.2998206978070E+00 -1.0913620992520E-01
    83  8.2000000000000E-01  4.4504826168310E-01  1.3292401908917E+00 -8.8707192627920E-02
    84  8.3000000000000E-01  3.9061788769999E-01  1.3578403688009E+00 -6.8844787680226E-02
    85  8.4000000000000E-01  3.3620623344477E-01  1.3856037636677E+00 -4.9850624299632E-02
    86  8.5000000000000E-01  2.8193552324013E-01  1.4124916598455E+00 -3.1974224584146E-02
    87  8.6000000000000E-01  2.2793474136174E-01  1.4384423012990E+00 -1.5406426903026E-02
    88  8.7000000000000E-01  1.7433985186710E-01  1.4633696132143E+00 -2.7400669538961E-04
    89  8.8000000000000E-01  1.2129382918034E-01  1.4871624823775E+00  1.3364375701906E-02
    90  8.9000000000000E-01  6.8946486131827E-02  1.5096846306736E+00  2.5520794865628E-02
    91  9.0000000000000E-01  1.7454090138705E-02  1.5307751049900E+00  3.6279169104745E-02
    92  9.1000000000000E-01 -3.3021237522620E-02  1.5502493950405E+00  4.5794808280680E-02
    93  9.2000000000000E-01 -8.2312339935833E-02  1.5679011783947E+00  5.4292380648313E-02
    94  9.3000000000000E-01 -1.3024805625974E-01  1.5835046795087E+00  6.2062309606457E-02
    95  9.4000000000000E-01 -1.7665445833549E-01  1.5968176170613E+00  6.9455642370067E-02
    96  9.5000000000000E-01 -2.2135627903608E-01  1.6075847016234E+00  7.6877463375367E-02
    97  9.6000000000000E-01 -2.6417851481412E-01  1.6155416338799E+00  8.4778955084622E-02
    98  9.7000000000000E-01 -3.0494818074904E-01  1.6204195425133E+00  9.3648237207819E-02
    99  9.8000000000000E-01 -3.4349619256473E-01  1.6219497906606E+00  1.0400014162263E-01
   100  9.9000000000000E-01 -3.7965934666320E-01  1.6198690707984E+00  1.1636510392542E-01
   101  1.0000000000000E+00 -4.1328236627147E-01  1.6139247001638E+00  1.3127737310714E-01
   102  1.0100000000000E+00 -4.4421997939531E-01  1.6038800225746E+00  1.4926275786331E-01
   103  1.0200000000000E+00 -4.7233899246917E-01  1.5895198178998E+00  1.7082614115562E-01
   104  1.0300000000000E+00 -4.9752032243146E-01  1.5706556175699E+00  1.9643900354726E-01
   105  1.0400000000000E+00 -5.1966094947544E-01  1.5471308235010E+00  2.2652720028534E-01
   106  1.0500000000000E+00 -5.3867575294588E-01  1.5188255286730E+00  2.6145923697909E-01
   107  1.0600000000000E+00 -5.5449919378289E-01  1.4856609403825E+00  3.0153528394574E-01
   108  1.0700000000000E+00 -5.6708680855085E-01  1.4476033118633E+00  3.4697715988994E-01
   109  1.0800000000000E+00 -5.7641648241012E-01  1.4046672944614E+00  3.9791950169894E-01
   110  1.0900000000000E+00 -5.8248947137458E-01  1.3569186308282E+00  4.5440231888558E-01
   111  1.1000000000000E+00 -5.8533114778060E-01  1.3044761194463E+00  5.1636510902996E-01
   112  1.1100000000000E+00 -5.8499144705083E-01  1.2475127921876E+00  5.8364268461546E-01
   113  1.1200000000000E+00 -5.8154499846246E-01  1.1862562592161E+00  6.5596283260170E-01
   114  1.1300000000000E+00 -5.7509092768690E-01  1.1209881892921E+00  7.3294589618732E-01
   115  1.1400000000000E+00 -5.6575232423327E-01  1.0520429080752E+00  8.1410633427197E-01
   116  1.1500000000000E+00 -5.5367537254121E-01  9.7980511220589E-01  8.9885627853117E-01
   117  1.1600000000000E+00 -5.3902815119822E-01  9.0470671239758E-01  9.8651107162101E-01
   118  1.1700000000000E+00 -5.2199911053675E-01  8.2722283433979E-01  1.0762967332527E+00
   119  1.1800000000000E+00 -5.0279524454354E-01  7.4786702146489E-01  1.1673592647246E+00
   120  1.1900000000000E+00 -4.8163997854995E-01  6.6718569847883E-01  1.2587756672073E+00