Ir    ONCVPSP-4.0.1  r_core=   1.60652   1.60652   1.50421   2.25929
     77.0000     17.0000      250217    zatom,zion,pspd
     8       2   3     4   500     0    pspcod,pspxc,lmax,lloc,mmax,r2well
  4.99000000  5.00000000  0.00000000    rchrg fchrg qchrg
     2     3     3     2    nproj
     3     1           extension_switch
     4     4     4    nprojso
   0                         2.5590835315474E+01  2.2733284888946E+00
     1  0.0000000000000E+00  1.3043411906111E-09 -2.0656770946537E-09
     2  1.0000000000000E-02  6.9669204559258E-02  2.5649904960705E-03
     3  2.0000000000000E-02  1.3924362046708E-01  5.0997414395125E-03
     4  3.0000000000000E-02  2.0862763604755E-01  7.5756300442504E-03
     5  4.0000000000000E-02  2.7772401324962E-01  9.9672355838503E-03
     6  5.0000000000000E-02  3.4643312330397E-01  1.2253862276125E-02
     7  6.0000000000000E-02  4.1465224004710E-01  1.4420969892232E-02
     8  7.0000000000000E-02  4.8227490857454E-01  1.6461483803162E-02
     9  8.0000000000000E-02  5.4919040558102E-01  1.8376958242198E-02
    10  9.0000000000000E-02  6.1528330615546E-01  2.0178569079254E-02
    11  1.0000000000000E-01  6.8043316994981E-01  2.1887915330423E-02
    12  1.1000000000000E-01  7.4451435756343E-01  2.3537611914760E-02
    13  1.2000000000000E-01  8.0739598571239E-01  2.5171659766390E-02
    14  1.3000000000000E-01  8.6894202732441E-01  2.6845583253037E-02
    15  1.4000000000000E-01  9.2901156015447E-01  2.8626328878989E-02
    16  1.5000000000000E-01  9.8745916489616E-01  3.0591923393605E-02
    17  1.6000000000000E-01  1.0441354711124E+00  3.2830893617146E-02
    18  1.7000000000000E-01  1.0988878466716E+00  3.5441454463820E-02
    19  1.8000000000000E-01  1.1515612237922E+00  3.8530475717697E-02
    20  1.9000000000000E-01  1.2019990523213E+00  4.2212242031916E-02
    21  2.0000000000000E-01  1.2500443685285E+00  4.6607024309939E-02
    22  2.1000000000000E-01  1.2955409655425E+00  5.1839484026338E-02
    23  2.2000000000000E-01  1.3383346496138E+00  5.8036935096647E-02
    24  2.3000000000000E-01  1.3782745646987E+00  6.5327490558410E-02
    25  2.4000000000000E-01  1.4152145664495E+00  7.3838123532953E-02
    26  2.5000000000000E-01  1.4490146255872E+00  8.3692673661269E-02
    27  2.6000000000000E-01  1.4795422398540E+00  9.5009831416719E-02
    28  2.7000000000000E-01  1.5066738332952E+00  1.0790113336939E-01
    29  2.8000000000000E-01  1.5302961215256E+00  1.2246900159921E-01
    30  2.9000000000000E-01  1.5503074218861E+00  1.3880486002203E-01
    31  3.0000000000000E-01  1.5666188879963E+00  1.5698735940945E-01
    32  3.1000000000000E-01  1.5791556491506E+00  1.7708074136427E-01
    33  3.2000000000000E-01  1.5878578362648E+00  1.9913336948010E-01
    34  3.3000000000000E-01  1.5926814776563E+00  2.2317645339899E-01
    35  3.4000000000000E-01  1.5935992497848E+00  2.4922298852304E-01
    36  3.5000000000000E-01  1.5906010701901E+00  2.7726693078359E-01
    37  3.6000000000000E-01  1.5836945221800E+00  3.0728262217702E-01
    38  3.7000000000000E-01  1.5729051033253E+00  3.3922447880062E-01
    39  3.8000000000000E-01  1.5582762924614E+00  3.7302694892994E-01
    40  3.9000000000000E-01  1.5398694326354E+00  4.0860474433889E-01
    41  4.0000000000000E-01  1.5177634302300E+00  4.4585334364831E-01
    42  4.1000000000000E-01  1.4920542732959E+00  4.8464976207009E-01
    43  4.2000000000000E-01  1.4628543748818E+00  5.2485357756741E-01
    44  4.3000000000000E-01  1.4302917498288E+00  5.6630819924812E-01
    45  4.4000000000000E-01  1.3945090360358E+00  6.0884235982269E-01
    46  4.5000000000000E-01  1.3556623735785E+00  6.5227181025318E-01
    47  4.6000000000000E-01  1.3139201572202E+00  6.9640119136480E-01
    48  4.7000000000000E-01  1.2694616797641E+00  7.4102605423989E-01
    49  4.8000000000000E-01  1.2224756853218E+00  7.8593499872179E-01
    50  4.9000000000000E-01  1.1731588528934E+00  8.3091189736330E-01
    51  5.0000000000000E-01  1.1217142316324E+00  8.7573817070272E-01
    52  5.1000000000000E-01  1.0683496498071E+00  9.2019507886168E-01
    53  5.2000000000000E-01  1.0132761197341E+00  9.6406599415695E-01
    54  5.3000000000000E-01  9.5670626086347E-01  1.0071386197074E+00
    55  5.4000000000000E-01  8.9885276272459E-01  1.0492071198986E+00
    56  5.5000000000000E-01  8.3992690861190E-01  1.0900741300295E+00
    57  5.6000000000000E-01  7.8013717971043E-01  1.1295526144849E+00
    58  5.7000000000000E-01  7.1968795784958E-01  1.1674675453269E+00
    59  5.8000000000000E-01  6.5877834325720E-01  1.2036573762356E+00
    60  5.9000000000000E-01  5.9760110159185E-01  1.2379752902058E+00
    61  6.0000000000000E-01  5.3634175219626E-01  1.2702902032681E+00
    62  6.1000000000000E-01  4.7517780697553E-01  1.3004875106802E+00
    63  6.2000000000000E-01  4.1427816660501E-01  1.3284695664716E+00
    64  6.3000000000000E-01  3.5380267795927E-01  1.3541558918275E+00
    65  6.4000000000000E-01  2.9390185377319E-01  1.3774831125100E+00
    66  6.5000000000000E-01  2.3471675264916E-01  1.3984046302388E+00
    67  6.6000000000000E-01  1.7637901466033E-01  1.4168900376206E+00
    68  6.7000000000000E-01  1.1901104501944E-01  1.4329242907357E+00
    69  6.8000000000000E-01  6.2726335633776E-02  1.4465066577940E+00
    70  6.9000000000000E-01  7.6299118984074E-03  1.4576494662695E+00
    71  7.0000000000000E-01 -4.6181110165905E-02  1.4663766745593E+00
    72  7.1000000000000E-01 -9.8616873303433E-02  1.4727222974052E+00
    73  7.2000000000000E-01 -1.4959405349521E-01  1.4767287170191E+00
    74  7.3000000000000E-01 -1.9903507940841E-01  1.4784449140050E+00
    75  7.4000000000000E-01 -2.4686731770547E-01  1.4779246537376E+00
    76  7.5000000000000E-01 -2.9302224569861E-01  1.4752246647972E+00
    77  7.6000000000000E-01 -3.3743463304522E-01  1.4704028463579E+00
    78  7.7000000000000E-01 -3.8004175398638E-01  1.4635165410683E+00
    79  7.8000000000000E-01 -4.2078265103568E-01  1.4546209089427E+00
    80  7.9000000000000E-01 -4.5959747003325E-01  1.4437674361185E+00
    81  8.0000000000000E-01 -4.9642688510546E-01  1.4310026100445E+00
    82  8.1000000000000E-01 -5.3121163033318E-01  1.4163667897804E+00
    83  8.2000000000000E-01 -5.6389215285805E-01  1.3998932966572E+00
    84  8.3000000000000E-01 -5.9440839977955E-01  1.3816077466162E+00
    85  8.4000000000000E-01 -6.2269974855431E-01  1.3615276411843E+00
    86  8.5000000000000E-01 -6.4870508774706E-01  1.3396622293132E+00
    87  8.6000000000000E-01 -6.7236305194699E-01  1.3160126473001E+00
    88  8.7000000000000E-01 -6.9361241150644E-01  1.2905723387911E+00
    89  8.8000000000000E-01 -7.1239261453528E-01  1.2633277515391E+00
    90  8.9000000000000E-01 -7.2864447534910E-01  1.2342593022352E+00
    91  9.0000000000000E-01 -7.4231100038139E-01  1.2033425954496E+00
    92  9.1000000000000E-01 -7.5333833948513E-01  1.1705498775968E+00
    93  9.2000000000000E-01 -7.6167684762405E-01  1.1358517019715E+00
    94  9.3000000000000E-01 -7.6728223924358E-01  1.0992187763756E+00
    95  9.4000000000000E-01 -7.7011681516590E-01  1.0606239607553E+00
    96  9.5000000000000E-01 -7.7015073972123E-01  1.0200443786690E+00
    97  9.6000000000000E-01 -7.6736334405132E-01  9.7746360337601E-01
    98  9.7000000000000E-01 -7.6174443013758E-01  9.3287387694841E-01
    99  9.8000000000000E-01 -7.5329554914808E-01  8.8627831909288E-01
   100  9.9000000000000E-01 -7.4203122718729E-01  8.3769308138959E-01
   101  1.0000000000000E+00 -7.2798011148870E-01  7.8714940242129E-01
   102  1.0100000000000E+00 -7.1118601052231E-01  7.3469551980644E-01
   103  1.0200000000000E+00 -6.9170880239697E-01  6.8039839646079E-01
   104  1.0300000000000E+00 -6.6962518731610E-01  6.2434522048768E-01
   105  1.0400000000000E+00 -6.4502926168113E-01  5.6664464091617E-01
   106  1.0500000000000E+00 -6.1803289370171E-01  5.0742770502494E-01
   107  1.0600000000000E+00 -5.8876588304441E-01  4.4684846717480E-01
   108  1.0700000000000E+00 -5.5737589008629E-01  3.8508424385202E-01
   109  1.0800000000000E+00 -5.2402812369323E-01  3.2233549492852E-01
   110  1.0900000000000E+00 -4.8890478007590E-01  2.5882531691253E-01
   111  1.1000000000000E+00 -4.5220422910909E-01  1.9479854006620E-01
   112  1.1100000000000E+00 -4.1413994850643E-01  1.3052042766298E-01
   113  1.1200000000000E+00 -3.7493921032102E-01  6.6274982186790E-02
   114  1.1300000000000E+00 -3.3484152836290E-01  2.3628698863807E-03
   115  1.1400000000000E+00 -2.9409687918787E-01 -6.0901018363872E-02
   116  1.1500000000000E+00 -2.5296371327843E-01 -1.2319034554879E-01
   117  1.1600000000000E+00 -2.1170677681303E-01 -1.8417041588655E-01
   118  1.1700000000000E+00 -1.7059476796774E-01 -2.4350153487779E-01
   119  1.1800000000000E+00 -1.2989785492009E-01 -3.0084260055815E-01
   120  1.1900000000000E+00 -8.9885085608379E-02 -3.5585487975883E-01
   121  1.2000000000000E+00 -5.0821721744499E-02 -4.0820591914633E-01
   122  1.2100000000000E+00 -1.2966531583722E-02 -4.5757353746949E-01
   123  1.2200000000000E+00  2.3430922561329E-02 -5.0364984292324E-01
   124  1.2300000000000E+00  5.8132965114195E-02 -5.4614521784696E-01
   125  1.2400000000000E+00  9.0916418992196E-02 -5.8479221218034E-01
   126  1.2500000000000E+00  1.2157511115836E-01 -6.1934928720918E-01
   127  1.2600000000000E+00  1.4992223555910E-01 -6.4960435217590E-01
   128  1.2700000000000E+00  1.7579253837487E-01 -6.7537803828885E-01
   129  1.2800000000000E+00  1.9904429240587E-01 -6.9652665751457E-01
   130  1.2900000000000E+00  2.1956102986987E-01 -7.1294479728272E-01
   131  1.3000000000000E+00  2.3725300584687E-01 -7.2456750678340E-01
   132  1.3100000000000E+00  2.5205836802690E-01 -7.3137203583074E-01
   133  1.3200000000000E+00  2.6394401229780E-01 -7.3337909329856E-01
   134  1.3300000000000E+00  2.7290610793558E-01 -7.3065359872169E-01
   135  1.3400000000000E+00  2.7897028070122E-01 -7.2330490775760E-01
   136  1.3500000000000E+00  2.8219144694893E-01 -7.1148649972407E-01
   137  1.3600000000000E+00  2.8265329681685E-01 -6.9539512322461E-01
   138  1.3700000000000E+00  2.8046742963943E-01 -6.7526940384154E-01
   139  1.3800000000000E+00  2.7577214979995E-01 -6.5138792587332E-01
   140  1.3900000000000E+00  2.6873093629020E-01 -6.2406680805247E-01
   141  1.4000000000000E+00  2.5953060414138E-01 -5.9365680091027E-01
   142  1.4100000000000E+00  2.4837918057959E-01 -5.6053994086543E-01
   143  1.4200000000000E+00  2.3550352317783E-01 -5.2512580310577E-01
   144  1.4300000000000E+00  2.2114671131441E-01 -4.8784740172969E-01
   145  1.4400000000000E+00  2.0556524591114E-01 -4.4915679142755E-01
   146  1.4500000000000E+00  1.8902609556763E-01 -4.0952042997838E-01
   147  1.4600000000000E+00  1.7180362984738E-01 -3.6941436504396E-01
   148  1.4700000000000E+00  1.5417648253159E-01 -3.2931931203467E-01
   149  1.4800000000000E+00  1.3642438952914E-01 -2.8971569287837E-01
   150  1.4900000000000E+00  1.1882504698387E-01 -2.5107870689334E-01
   151  1.5000000000000E+00  1.0165101487841E-01 -2.1387346859837E-01
   152  1.5100000000000E+00  8.5166737545881E-02 -1.7855034852305E-01
   153  1.5200000000000E+00  6.9623652240284E-02 -1.4553694746577E-01
   154  1.5300000000000E+00  5.5248814181879E-02 -1.1521973841886E-01
   155  1.5400000000000E+00  4.2226514766424E-02 -8.7915371336760E-02
   156  1.5500000000000E+00  3.0737933990459E-02 -6.3931332464577E-02
   157  1.5600000000000E+00  2.0941381238198E-02 -4.3536202091760E-02
   158  1.5700000000000E+00  1.2958744757206E-02 -2.6938634367881E-02
   159  1.5800000000000E+00  6.8911460844591E-03 -1.4314264537370E-02
   160  1.5900000000000E+00  2.7145452182381E-03 -5.6239265426157E-03
   161  1.6000000000000E+00  4.3836774230714E-04 -9.1451085672770E-04
   162  1.6100000000000E+00 -3.1209160570134E-05  7.0796261942797E-05
   163  1.6200000000000E+00  1.1148581104076E-05 -2.4136275472691E-05
   164  1.63  0.  0.
   165  1.64  0.  0.
   166  1.65  0.  0.
   167  1.66  0.  0.
   168  1.67  0.  0.
   169  1.68  0.  0.
   170  1.69  0.  0.
   171  1.70  0.  0.
   172  1.71  0.  0.
   173  1.72  0.  0.
   174  1.73  0.  0.
   175  1.74  0.  0.
   176  1.75  0.  0.
   177  1.76  0.  0.
   178  1.77  0.  0.
   179  1.78  0.  0.
   180  1.79  0.  0.
   181  1.80  0.  0.
   182  1.81  0.  0.
   183  1.82  0.  0.
   184  1.83  0.  0.
   185  1.84  0.  0.
   186  1.85  0.  0.
   187  1.86  0.  0.
   188  1.87  0.  0.
   189  1.88  0.  0.
   190  1.89  0.  0.
   191  1.90  0.  0.
   192  1.91  0.  0.
   193  1.92  0.  0.
   194  1.93  0.  0.
   195  1.94  0.  0.
   196  1.95  0.  0.
   197  1.96  0.  0.
   198  1.97  0.  0.
   199  1.98  0.  0.
   200  1.99  0.  0.
   201  2.00  0.  0.
   202  2.01  0.  0.
   203  2.02  0.  0.
   204  2.03  0.  0.
   205  2.04  0.  0.
   206  2.05  0.  0.
   207  2.06  0.  0.
   208  2.07  0.  0.
   209  2.08  0.  0.
   210  2.09  0.  0.
   211  2.10  0.  0.
   212  2.11  0.  0.
   213  2.12  0.  0.
   214  2.13  0.  0.
   215  2.14  0.  0.
   216  2.15  0.  0.
   217  2.16  0.  0.
   218  2.17  0.  0.
   219  2.18  0.  0.
   220  2.19  0.  0.
   221  2.20  0.  0.
   222  2.21  0.  0.
   223  2.22  0.  0.
   224  2.23  0.  0.
   225  2.24  0.  0.
   226  2.25  0.  0.
   227  2.26  0.  0.
   228  2.27  0.  0.
   229  2.28  0.  0.
   230  2.29  0.  0.
   231  2.30  0.  0.
   232  2.31  0.  0.
   233  2.32  0.  0.
   234  2.33  0.  0.
   235  2.34  0.  0.
   236  2.35  0.  0.
   237  2.36  0.  0.
   238  2.37  0.  0.
   239  2.38  0.  0.
   240  2.39  0.  0.
   241  2.40  0.  0.
   242  2.41  0.  0.
   243  2.42  0.  0.
   244  2.43  0.  0.
   245  2.44  0.  0.
   246  2.45  0.  0.
   247  2.46  0.  0.
   248  2.47  0.  0.
   249  2.48  0.  0.
   250  2.49  0.  0.
   251  2.50  0.  0.
   252  2.51  0.  0.
   253  2.52  0.  0.
   254  2.53  0.  0.
   255  2.54  0.  0.
   256  2.55  0.  0.
   257  2.56  0.  0.
   258  2.57  0.  0.
   259  2.58  0.  0.
   260  2.59  0.  0.
   261  2.60  0.  0.
   262  2.61  0.  0.
   263  2.62  0.  0.
   264  2.63  0.  0.
   265  2.64  0.  0.
   266  2.65  0.  0.
   267  2.66  0.  0.
   268  2.67  0.  0.
   269  2.68  0.  0.
   270  2.69  0.  0.
   271  2.70  0.  0.
   272  2.71  0.  0.
   273  2.72  0.  0.
   274  2.73  0.  0.
   275  2.74  0.  0.
   276  2.75  0.  0.
   277  2.76  0.  0.
   278  2.77  0.  0.
   279  2.78  0.  0.
   280  2.79  0.  0.
   281  2.80  0.  0.
   282  2.81  0.  0.
   283  2.82  0.  0.
   284  2.83  0.  0.
   285  2.84  0.  0.
   286  2.85  0.  0.
   287  2.86  0.  0.
   288  2.87  0.  0.
   289  2.88  0.  0.
   290  2.89  0.  0.
   291  2.90  0.  0.
   292  2.91  0.  0.
   293  2.92  0.  0.
   294  2.93  0.  0.
   295  2.94  0.  0.
   296  2.95  0.  0.
   297  2.96  0.  0.
   298  2.97  0.  0.
   299  2.98  0.  0.
   300  2.99  0.  0.
   301  3.00  0.  0.
   302  3.01  0.  0.
   303  3.02  0.  0.
   304  3.03  0.  0.
   305  3.04  0.  0.
   306  3.05  0.  0.
   307  3.06  0.  0.
   308  3.07  0.  0.
   309  3.08  0.  0.
   310  3.09  0.  0.
   311  3.10  0.  0.
   312  3.11  0.  0.
   313  3.12  0.  0.
   314  3.13  0.  0.
   315  3.14  0.  0.
   316  3.15  0.  0.
   317  3.16  0.  0.
   318  3.17  0.  0.
   319  3.18  0.  0.
   320  3.19  0.  0.
   321  3.20  0.  0.
   322  3.21  0.  0.
   323  3.22  0.  0.
   324  3.23  0.  0.
   325  3.24  0.  0.
   326  3.25  0.  0.
   327  3.26  0.  0.
   328  3.27  0.  0.
   329  3.28  0.  0.
   330  3.29  0.  0.
   331  3.30  0.  0.
   332  3.31  0.  0.
   333  3.32  0.  0.
   334  3.33  0.  0.
   335  3.34  0.  0.
   336  3.35  0.  0.
   337  3.36  0.  0.
   338  3.37  0.  0.
   339  3.38  0.  0.
   340  3.39  0.  0.
   341  3.40  0.  0.
   342  3.41  0.  0.
   343  3.42  0.  0.
   344  3.43  0.  0.
   345  3.44  0.  0.
   346  3.45  0.  0.
   347  3.46  0.  0.
   348  3.47  0.  0.
   349  3.48  0.  0.
   350  3.49  0.  0.
   351  3.50  0.  0.
   352  3.51  0.  0.
   353  3.52  0.  0.
   354  3.53  0.  0.
   355  3.54  0.  0.
   356  3.55  0.  0.
   357  3.56  0.  0.
   358  3.57  0.  0.
   359  3.58  0.  0.
   360  3.59  0.  0.
   361  3.60  0.  0.
   362  3.61  0.  0.
   363  3.62  0.  0.
   364  3.63  0.  0.
   365  3.64  0.  0.
   366  3.65  0.  0.
   367  3.66  0.  0.
   368  3.67  0.  0.
   369  3.68  0.  0.
   370  3.69  0.  0.
   371  3.70  0.  0.
   372  3.71  0.  0.
   373  3.72  0.  0.
   374  3.73  0.  0.
   375  3.74  0.  0.
   376  3.75  0.  0.
   377  3.76  0.  0.
   378  3.77  0.  0.
   379  3.78  0.  0.
   380  3.79  0.  0.
   381  3.80  0.  0.
   382  3.81  0.  0.
   383  3.82  0.  0.
   384  3.83  0.  0.
   385  3.84  0.  0.
   386  3.85  0.  0.
   387  3.86  0.  0.
   388  3.87  0.  0.
   389  3.88  0.  0.
   390  3.89  0.  0.
   391  3.90  0.  0.
   392  3.91  0.  0.
   393  3.92  0.  0.
   394  3.93  0.  0.
   395  3.94  0.  0.
   396  3.95  0.  0.
   397  3.96  0.  0.
   398  3.97  0.  0.
   399  3.98  0.  0.
   400  3.99  0.  0.
   401  4.00  0.  0.
   402  4.01  0.  0.
   403  4.02  0.  0.
   404  4.03  0.  0.
   405  4.04  0.  0.
   406  4.05  0.  0.
   407  4.06  0.  0.
   408  4.07  0.  0.
   409  4.08  0.  0.
   410  4.09  0.  0.
   411  4.10  0.  0.
   412  4.11  0.  0.
   413  4.12  0.  0.
   414  4.13  0.  0.
   415  4.14  0.  0.
   416  4.15  0.  0.
   417  4.16  0.  0.
   418  4.17  0.  0.
   419  4.18  0.  0.
   420  4.19  0.  0.
   421  4.20  0.  0.
   422  4.21  0.  0.
   423  4.22  0.  0.
   424  4.23  0.  0.
   425  4.24  0.  0.
   426  4.25  0.  0.
   427  4.26  0.  0.
   428  4.27  0.  0.
   429  4.28  0.  0.
   430  4.29  0.  0.
   431  4.30  0.  0.
   432  4.31  0.  0.
   433  4.32  0.  0.
   434  4.33  0.  0.
   435  4.34  0.  0.
   436  4.35  0.  0.
   437  4.36  0.  0.
   438  4.37  0.  0.
   439  4.38  0.  0.
   440  4.39  0.  0.
   441  4.40  0.  0.
   442  4.41  0.  0.
   443  4.42  0.  0.
   444  4.43  0.  0.
   445  4.44  0.  0.
   446  4.45  0.  0.
   447  4.46  0.  0.
   448  4.47  0.  0.
   449  4.48  0.  0.
   450  4.49  0.  0.
   451  4.50  0.  0.
   452  4.51  0.  0.
   453  4.52  0.  0.
   454  4.53  0.  0.
   455  4.54  0.  0.
   456  4.55  0.  0.
   457  4.56  0.  0.
   458  4.57  0.  0.
   459  4.58  0.  0.
   460  4.59  0.  0.
   461  4.60  0.  0.
   462  4.61  0.  0.
   463  4.62  0.  0.
   464  4.63  0.  0.
   465  4.64  0.  0.
   466  4.65  0.  0.
   467  4.66  0.  0.
   468  4.67  0.  0.
   469  4.68  0.  0.
   470  4.69  0.  0.
   471  4.70  0.  0.
   472  4.71  0.  0.
   473  4.72  0.  0.
   474  4.73  0.  0.
   475  4.74  0.  0.
   476  4.75  0.  0.
   477  4.76  0.  0.
   478  4.77  0.  0.
   479  4.78  0.  0.
   480  4.79  0.  0.
   481  4.80  0.  0.
   482  4.81  0.  0.
   483  4.82  0.  0.
   484  4.83  0.  0.
   485  4.84  0.  0.
   486  4.85  0.  0.
   487  4.86  0.  0.
   488  4.87  0.  0.
   489  4.88  0.  0.
   490  4.89  0.  0.
   491  4.90  0.  0.
   492  4.91  0.  0.
   493  4.92  0.  0.
   494  4.93  0.  0.
   495  4.94  0.  0.
   496  4.95  0.  0.
   497  4.96  0.  0.
   498  4.97  0.  0.
   499  4.98  0.  0.
   500  4.99  0.  0.
   1                         5.3046257491299E+00  5.0331471127002E-01 -6.0165366067450E-02
     1  0.0000000000000E+00 -2.4312657026515E-09  6.0141105255596E-09 -1.7015029071463E-08
     2  1.0000000000000E-02  1.3217447702154E-03 -2.2431722415431E-04 -2.1498808046035E-04
     3  2.0000000000000E-02  5.2850226355335E-03 -9.0119750118824E-04 -8.4160907671137E-04
     4  3.0000000000000E-02  1.1883909791424E-02 -2.0422717895116E-03 -1.8253035355006E-03
     5  4.0000000000000E-02  2.1108353118945E-02 -3.6664124231333E-03 -3.0766965448718E-03
     6  5.0000000000000E-02  3.2943905064040E-02 -5.7989766993226E-03 -4.4738988621923E-03
     7  6.0000000000000E-02  4.7371362453599E-02 -8.4707726001100E-03 -5.8656589485049E-03
     8  7.0000000000000E-02  6.4366318984226E-02 -1.1716770730541E-02 -7.0752980514252E-03
     9  8.0000000000000E-02  8.3898643550887E-02 -1.5574592570703E-02 -7.9053434637795E-03
    10  9.0000000000000E-02  1.0593189876051E-01 -2.0082810527027E-02 -8.1427597874378E-03
    11  1.0000000000000E-01  1.3042271585409E-01 -2.5279099916544E-02 -7.5646647584917E-03
    12  1.1000000000000E-01  1.5732014380006E-01 -3.1198286829261E-02 -5.9444052231531E-03
    13  1.2000000000000E-01  1.8656499148731E-01 -3.7870338702385E-02 -3.0578604048687E-03
    14  1.3000000000000E-01  2.1808918271377E-01 -4.5318346348241E-02  1.3101661299736E-03
    15  1.4000000000000E-01  2.5181514401536E-01 -5.3556547054075E-02  7.3596073136762E-03
    16  1.5000000000000E-01  2.8765524530273E-01 -6.2588438199398E-02  1.5268987740498E-02
    17  1.6000000000000E-01  3.2551131276610E-01 -7.2405029608957E-02  2.5189611765045E-02
    18  1.7000000000000E-01  3.6527423257979E-01 -8.2983280596068E-02  3.7240217386634E-02
    19  1.8000000000000E-01  4.0682366260240E-01 -9.4284764393511E-02  5.1502220241113E-02
    20  1.9000000000000E-01  4.5002786755029E-01 -1.0625459847507E-01  6.8015660890718E-02
    21  2.0000000000000E-01  4.9474369105143E-01 -1.1882067422103E-01  8.6775955075510E-02
    22  2.1000000000000E-01  5.4081667560316E-01 -1.3189321357132E-01  1.0773153092530E-01
    23  2.2000000000000E-01  5.8808133880513E-01 -1.4536467385391E-01  1.3078241963161E-01
    24  2.3000000000000E-01  6.3636161136872E-01 -1.5911001499941E-01  1.5577984708256E-01
    25  2.4000000000000E-01  6.8547143937080E-01 -1.7298733599351E-01  1.8252685384181E-01
    26  2.5000000000000E-01  7.3521555008302E-01 -1.8683887982346E-01  2.1077994999879E-01
    27  2.6000000000000E-01  7.8539037752738E-01 -2.0049239849572E-01  2.4025179024442E-01
    28  2.7000000000000E-01  8.3578514074841E-01 -2.1376286209281E-01  2.7061483345547E-01
    29  2.8000000000000E-01  8.8618306471424E-01 -2.2645448845577E-01  3.0150593051811E-01
    30  2.9000000000000E-01  9.3636273082389E-01 -2.3836306307337E-01  3.3253176450817E-01
    31  3.0000000000000E-01  9.8609954126687E-01 -2.4927851227795E-01  3.6327504906093E-01
    32  3.1000000000000E-01  1.0351672790077E+00 -2.5898768702533E-01  3.9330137419019E-01
    33  3.2000000000000E-01  1.0833397430052E+00 -2.6727730949805E-01  4.2216657429011E-01
    34  3.3000000000000E-01  1.1303924364671E+00 -2.7393703062629E-01  4.4942448088655E-01
    35  3.4000000000000E-01  1.1761042845283E+00 -2.7876254346305E-01  4.7463491315336E-01
    36  3.5000000000000E-01  1.2202593567514E+00 -2.8155869525365E-01  4.9737175249058E-01
    37  3.6000000000000E-01  1.2626485693091E+00 -2.8214254005877E-01  5.1723094372855E-01
    38  3.7000000000000E-01  1.3030713416366E+00 -2.8034627395706E-01  5.3383826488133E-01
    39  3.8000000000000E-01  1.3413371827346E+00 -2.7601999617868E-01  5.4685670986220E-01
    40  3.9000000000000E-01  1.3772671831702E+00 -2.6903424199149E-01  5.5599333417286E-01
    41  4.0000000000000E-01  1.4106953901444E+00 -2.5928223674207E-01  5.6100542221058E-01
    42  4.1000000000000E-01  1.4414700447463E+00 -2.4668182508580E-01  5.6170584635569E-01
    43  4.2000000000000E-01  1.4694546626785E+00 -2.3117703504536E-01  5.5796750221323E-01
    44  4.3000000000000E-01  1.4945289422647E+00 -2.1273924301434E-01  5.4972672103072E-01
    45  4.4000000000000E-01  1.5165894864023E+00 -1.9136791305652E-01  5.3698557909588E-01
    46  4.5000000000000E-01  1.5355503282457E+00 -1.6709089170528E-01  5.1981304448814E-01
    47  4.6000000000000E-01  1.5513432537407E+00 -1.3996424779572E-01  4.9834492352689E-01
    48  4.7000000000000E-01  1.5639179176179E+00 -1.1007165550440E-01  4.7278259221472E-01
    49  4.8000000000000E-01  1.5732417530289E+00 -7.7523327560876E-02  4.4339052147159E-01
    50  4.9000000000000E-01  1.5792996785953E+00 -4.2454514361123E-02  4.1049262854268E-01
    51  5.0000000000000E-01  1.5820936101866E+00 -5.0235932794917E-03  3.7446751017823E-01
    52  5.1000000000000E-01  1.5816417881606E+00  3.4590219326121E-02  3.3574263556767E-01
    53  5.2000000000000E-01  1.5779779340360E+00  7.6189493260455E-02  2.9478759811643E-01
    54  5.3000000000000E-01  1.5711502535548E+00  1.1956149966599E-01  2.5210654455582E-01
    55  5.4000000000000E-01  1.5612203057631E+00  1.6448136297916E-01  2.0822991717595E-01
    56  5.5000000000000E-01  1.5482617600591E+00  2.1071539126672E-01  1.6370565980815E-01
    57  5.6000000000000E-01  1.5323590650503E+00  2.5802452247597E-01  1.1909005023893E-01
    58  5.7000000000000E-01  1.5136060545198E+00  3.0616782124866E-01  7.4938330748224E-02
    59  5.8000000000000E-01  1.4921045167661E+00  3.5490595931962E-01  3.1795314218420E-02
    60  5.9000000000000E-01  1.4679627540432E+00  4.0400461219516E-01 -9.8138543894253E-03
    61  6.0000000000000E-01  1.4412941587747E+00  4.5323770580904E-01 -4.9392602534058E-02
    62  6.1000000000000E-01  1.4122158326372E+00  5.0239044918181E-01 -8.6481326553016E-02
    63  6.2000000000000E-01  1.3808472735169E+00  5.5126209273676E-01 -1.2066511416490E-01
    64  6.3000000000000E-01  1.3473091537589E+00  5.9966835679797E-01 -1.5158063853191E-01
    65  6.4000000000000E-01  1.3117222110663E+00  6.4744348083521E-01 -1.7892208398439E-01
    66  6.5000000000000E-01  1.2742062709197E+00  6.9444185112469E-01 -2.0244598099329E-01
    67  6.6000000000000E-01  1.2348794165052E+00  7.4053917253811E-01 -2.2197484806238E-01
    68  6.7000000000000E-01  1.1938573189285E+00  7.8563315901145E-01 -2.3739956052469E-01
    69  6.8000000000000E-01  1.1512527370020E+00  8.2964372671739E-01 -2.4868039037141E-01
    70  6.9000000000000E-01  1.1071751921980E+00  8.7251268389204E-01 -2.5584668675802E-01
    71  7.0000000000000E-01  1.0617308205311E+00  9.1420292146208E-01 -2.5899519324794E-01
    72  7.1000000000000E-01  1.0150223992351E+00  9.5469711888409E-01 -2.5828702465621E-01
    73  7.2000000000000E-01  9.6714954222731E-01  9.9399598974312E-01 -2.5394335303941E-01
    74  7.3000000000000E-01  9.1820905456578E-01  1.0321161014621E+00 -2.4623987840665E-01
    75  7.4000000000000E-01  8.6829543248843E-01  1.0690873127487E+00 -2.3550018460216E-01
    76  7.5000000000000E-01  8.1750149225384E-01  1.1049498809623E+00 -2.2208810401941E-01
    77  7.6000000000000E-01  7.6591910794312E-01  1.1397512992386E+00 -2.0639923588593E-01
    78  7.7000000000000E-01  7.1364003570352E-01  1.1735429298039E+00 -1.8885178137001E-01
    79  7.8000000000000E-01  6.6075679967225E-01  1.2063765052924E+00 -1.6987687430962E-01
    80  7.9000000000000E-01  6.0736361306400E-01  1.2383005739239E+00 -1.4990859861113E-01
    81  8.0000000000000E-01  5.5355730668057E-01  1.2693569670115E+00 -1.2937389203358E-01
    82  8.1000000000000E-01  4.9943823643673E-01  1.2995773683624E+00 -1.0868254094501E-01
    83  8.2000000000000E-01  4.4511114141489E-01  1.3289800646698E+00 -8.8217471569231E-02
    84  8.3000000000000E-01  3.9068592447219E-01  1.3575669539548E+00 -6.8325540164341E-02
    85  8.4000000000000E-01  3.3627832852600E-01  1.3853208855070E+00 -4.9309017495826E-02
    86  8.5000000000000E-01  2.8201048332450E-01  1.4122033996431E+00 -3.1417951967842E-02
    87  8.6000000000000E-01  2.2801129974470E-01  1.4381529290217E+00 -1.4843581026763E-02
    88  8.7000000000000E-01  1.7441669141366E-01  1.4630835153246E+00  2.8705782756828E-04
    89  8.8000000000000E-01  1.2136960667516E-01  1.4868840859653E+00  1.3915186576451E-02
    90  8.9000000000000E-01  6.9019857567813E-02  1.5094183252731E+00  2.6052911249779E-02
    91  9.0000000000000E-01  1.7523736474617E-02  1.5305251635048E+00  3.6784332760809E-02
    92  9.1000000000000E-01 -3.2956584621248E-02  1.5500198952435E+00  4.6265093917856E-02
    93  9.2000000000000E-01 -8.2253872866392E-02  1.5676959264856E+00  5.4720342600789E-02
    94  9.3000000000000E-01 -1.3019686725522E-01  1.5833271372015E+00  6.2441122014729E-02
    95  9.4000000000000E-01 -1.7661151672157E-01  1.5966708336334E+00  6.9779230109653E-02
    96  9.5000000000000E-01 -2.2132241043374E-01  1.6074712522905E+00  7.7140621107886E-02
    97  9.6000000000000E-01 -2.6415438271976E-01  1.6154635657695E+00  8.4977451990555E-02
    98  9.7000000000000E-01 -3.0493427088568E-01  1.6203783293849E+00  9.3778905192055E-02
    99  9.8000000000000E-01 -3.4349280035205E-01  1.6219462973824E+00  1.0406094506226E-01
   100  9.9000000000000E-01 -3.7966656810040E-01  1.6199035284207E+00  1.1635518934941E-01
   101  1.0000000000000E+00 -4.1330009246704E-01  1.6139966922484E+00  1.3119709755204E-01
   102  1.0100000000000E+00 -4.4424789491245E-01  1.6039884832391E+00  1.4911369503419E-01
   103  1.0200000000000E+00 -4.7237657758590E-01  1.5896630418231E+00  1.7061106492858E-01
   104  1.0300000000000E+00 -4.9756685934174E-01  1.5708312819876E+00  1.9616184877290E-01
   105  1.0400000000000E+00 -5.1971553238328E-01  1.5473360219932E+00  2.2619300128217E-01
   106  1.0500000000000E+00 -5.3873730192978E-01  1.5190568163228E+00  2.6107404453578E-01
   107  1.0600000000000E+00 -5.5456647223425E-01  1.4859143896641E+00  3.0110606207241E-01
   108  1.0700000000000E+00 -5.6715844391885E-01  1.4478745784034E+00  3.4651166396225E-01
   109  1.0800000000000E+00 -5.7649098991817E-01  1.4049516916218E+00  3.9742614002021E-01
   110  1.0900000000000E+00 -5.8256528031156E-01  1.3572112118670E+00  4.5389000003819E-01
   111  1.1000000000000E+00 -5.8540662991397E-01  1.3047717658558E+00  5.1584307769790E-01
   112  1.1100000000000E+00 -5.8506494666065E-01  1.2478063066628E+00  5.8312034882267E-01
   113  1.1200000000000E+00 -5.8161486345560E-01  1.1865424615930E+00  6.5544958552372E-01
   114  1.1300000000000E+00 -5.7515554122049E-01  1.1212620137072E+00  7.3245093585145E-01
   115  1.1400000000000E+00 -5.6581013625593E-01  1.0522994995433E+00  8.1363848455769E-01
   116  1.1500000000000E+00 -5.5372493065142E-01  9.8003992078622E-01  8.9842381492025E-01
   117  1.1600000000000E+00 -5.3906813022009E-01  9.0491558312988E-01  9.8612155511707E-01
   118  1.1700000000000E+00 -5.2202834022617E-01  8.2740209117274E-01  1.0759568557996E+00
   119  1.1800000000000E+00 -5.0281273486100E-01  7.4801354347499E-01  1.1670747092982E+00
   120  1.1900000000000E+00 -4.8164494197051E-01  6.6729698678559E-01  1.2585509855383E+00