Se    ONCVPSP-4.0.1  r_core=   1.80690   1.50106   1.90685
     34.0000     16.0000      231019    zatom,zion,pspd
     8       2   2     4   600     0    pspcod,pspxc,lmax,lloc,mmax,r2well
  5.99000000  5.00000000  0.00000000    rchrg fchrg qchrg
     2     2     2     0     0    nproj
     1     1           extension_switch
   0                         8.3690347817617E+00  9.1486701967027E-01
     1  0.0000000000000E+00  4.9616769026706E-10 -1.2936591520241E-09
     2  1.0000000000000E-02  2.9066846251582E-02 -4.1448204325379E-03
     3  2.0000000000000E-02  5.8176846126216E-02 -8.4030340449286E-03
     4  3.0000000000000E-02  8.7372357663771E-02 -1.2886168206825E-02
     5  4.0000000000000E-02  1.1669415784280E-01 -1.7702043989023E-02
     6  5.0000000000000E-02  1.4618067718449E-01 -2.2952985983797E-02
     7  6.0000000000000E-02  1.7586726416117E-01 -2.8734106757776E-02
     8  7.0000000000000E-02  2.0578548875437E-01 -3.5131689275806E-02
     9  8.0000000000000E-02  2.3596249401095E-01 -4.2221689340566E-02
    10  9.0000000000000E-02  2.6642040383773E-01 -5.0068378507222E-02
    11  1.0000000000000E-01  2.9717579456178E-01 -5.8723146075495E-02
    12  1.1000000000000E-01  3.2823923697521E-01 -6.8223476657288E-02
    13  1.2000000000000E-01  3.5961491468907E-01 -7.8592117493440E-02
    14  1.3000000000000E-01  3.9130032365298E-01 -8.9836447178694E-02
    15  1.4000000000000E-01  4.2328605666705E-01 -1.0194805478172E-01
    16  1.5000000000000E-01  4.5555567563348E-01 -1.1490253555205E-01
    17  1.6000000000000E-01  4.8808567318140E-01 -1.2865950652414E-01
    18  1.7000000000000E-01  5.2084552416244E-01 -1.4316284239824E-01
    19  1.8000000000000E-01  5.5379782637314E-01 -1.5834112913601E-01
    20  1.9000000000000E-01  5.8689852872495E-01 -1.7410832979511E-01
    21  2.0000000000000E-01  6.2009724397113E-01 -1.9036465427891E-01
    22  2.1000000000000E-01  6.5333764202298E-01 -2.0699762193229E-01
    23  2.2000000000000E-01  6.8655791886264E-01 -2.2388330330949E-01
    24  2.3000000000000E-01  7.1969133509641E-01 -2.4088772500825E-01
    25  2.4000000000000E-01  7.5266681730556E-01 -2.5786841923941E-01
    26  2.5000000000000E-01  7.8540961455141E-01 -2.7467609781244E-01
    27  2.6000000000000E-01  8.1784200168845E-01 -2.9115642849120E-01
    28  2.7000000000000E-01  8.4988402054303E-01 -3.0715189023536E-01
    29  2.8000000000000E-01  8.8145424953312E-01 -3.2250368270981E-01
    30  2.9000000000000E-01  9.1247059194319E-01 -3.3705366463472E-01
    31  3.0000000000000E-01  9.4285107283280E-01 -3.5064629507300E-01
    32  3.1000000000000E-01  9.7251463445042E-01 -3.6313055161881E-01
    33  3.2000000000000E-01  1.0013819200480E+00 -3.7436179966259E-01
    34  3.3000000000000E-01  1.0293760361463E+00 -3.8420358746463E-01
    35  3.4000000000000E-01  1.0564232835832E+00 -3.9252934266354E-01
    36  3.5000000000000E-01  1.0824538480893E+00 -3.9922394706953E-01
    37  3.6000000000000E-01  1.1074024416593E+00 -4.0418516812912E-01
    38  3.7000000000000E-01  1.1312088866382E+00 -4.0732492728028E-01
    39  3.8000000000000E-01  1.1538186351869E+00 -4.0857038752229E-01
    40  3.9000000000000E-01  1.1751832176396E+00 -4.0786484487598E-01
    41  4.0000000000000E-01  1.1952606142026E+00 -4.0516841097881E-01
    42  4.1000000000000E-01  1.2140155454464E+00 -4.0045847681190E-01
    43  4.2000000000000E-01  1.2314196781188E+00 -3.9372995045847E-01
    44  4.3000000000000E-01  1.2474517439208E+00 -3.8499526480695E-01
    45  4.4000000000000E-01  1.2620975700396E+00 -3.7428415419845E-01
    46  4.5000000000000E-01  1.2753500214074E+00 -3.6164320213759E-01
    47  4.6000000000000E-01  1.2872088558233E+00 -3.4713516529646E-01
    48  4.7000000000000E-01  1.2976804942456E+00 -3.3083808210199E-01
    49  4.8000000000000E-01  1.3067777096939E+00 -3.1284417716826E-01
    50  4.9000000000000E-01  1.3145192392991E+00 -2.9325857567537E-01
    51  5.0000000000000E-01  1.3209293250758E+00 -2.7219784446803E-01
    52  5.1000000000000E-01  1.3260371899648E+00 -2.4978837911385E-01
    53  5.2000000000000E-01  1.3298764565767E+00 -2.2616465838777E-01
    54  5.3000000000000E-01  1.3324845168634E+00 -2.0146738960565E-01
    55  5.4000000000000E-01  1.3339018616267E+00 -1.7584156988729E-01
    56  5.5000000000000E-01  1.3341713793478E+00 -1.4943448976369E-01
    57  5.6000000000000E-01  1.3333376342669E+00 -1.2239370653475E-01
    58  5.7000000000000E-01  1.3314461339621E+00 -9.4865015415023E-02
    59  5.8000000000000E-01  1.3285425968567E+00 -6.6990446766776E-02
    60  5.9000000000000E-01  1.3246722301322E+00 -3.8906317603340E-02
    61  6.0000000000000E-01  1.3198790284272E+00 -1.0741365050633E-02
    62  6.1000000000000E-01  1.3142051034677E+00  1.7385011416308E-02
    63  6.2000000000000E-01  1.3076900544075E+00  4.5364373383682E-02
    64  6.3000000000000E-01  1.3003703881462E+00  7.3100708571537E-02
    65  6.4000000000000E-01  1.2922789982667E+00  1.0051171551448E-01
    66  6.5000000000000E-01  1.2834447104797E+00  1.2752988804123E-01
    67  6.6000000000000E-01  1.2738919015978E+00  1.5410338227677E-01
    68  6.7000000000000E-01  1.2636401981032E+00  1.8019665168090E-01
    69  6.8000000000000E-01  1.2527042593150E+00  2.0579083865016E-01
    70  6.9000000000000E-01  1.2410936490402E+00  2.3088391440797E-01
    71  7.0000000000000E-01  1.2288127983989E+00  2.5549056225146E-01
    72  7.1000000000000E-01  1.2158610612818E+00  2.7964180266849E-01
    73  7.2000000000000E-01  1.2022328626322E+00  3.0338436234192E-01
    74  7.3000000000000E-01  1.1879179384644E+00  3.2677979257312E-01
    75  7.4000000000000E-01  1.1729016652560E+00  3.4990334613883E-01
    76  7.5000000000000E-01  1.1571654750919E+00  3.7284262499607E-01
    77  7.6000000000000E-01  1.1406873517190E+00  3.9569601452565E-01
    78  7.7000000000000E-01  1.1234424015019E+00  4.1857092310960E-01
    79  7.8000000000000E-01  1.1054034921685E+00  4.4158184873011E-01
    80  7.9000000000000E-01  1.0865419512199E+00  4.6484829691648E-01
    81  8.0000000000000E-01  1.0668283149581E+00  4.8849257671425E-01
    82  8.1000000000000E-01  1.0462331182751E+00  5.1263750337474E-01
    83  8.2000000000000E-01  1.0247277146628E+00  5.3740403813116E-01
    84  8.3000000000000E-01  1.0022851153442E+00  5.6290889671595E-01
    85  8.4000000000000E-01  9.7888083601330E-01  5.8926215915977E-01
    86  8.5000000000000E-01  9.5449373940413E-01  6.1656491388145E-01
    87  8.6000000000000E-01  9.2910686179097E-01  6.4490696911779E-01
    88  8.7000000000000E-01  9.0270821156363E-01  6.7436466434839E-01
    89  8.8000000000000E-01  8.7529152821468E-01  7.0499881354283E-01
    90  8.9000000000000E-01  8.4685699042654E-01  7.3685281080224E-01
    91  9.0000000000000E-01  8.1741186244695E-01  7.6995092729616E-01
    92  9.1000000000000E-01  7.8697106858999E-01  8.0429682632472E-01
    93  9.2000000000000E-01  7.5555768648721E-01  8.3987232088892E-01
    94  9.3000000000000E-01  7.2320335063199E-01  8.7663639535622E-01
    95  9.4000000000000E-01  6.8994855879849E-01  9.1452450969460E-01
    96  9.5000000000000E-01  6.5584287506308E-01  9.5344820135645E-01
    97  9.6000000000000E-01  6.2094502439592E-01  9.9329499626099E-01
    98  9.7000000000000E-01  5.8532287510950E-01  1.0339286364975E+00
    99  9.8000000000000E-01  5.4905330683261E-01  1.0751896283970E+00
   100  9.9000000000000E-01  5.1222196310496E-01  1.1168961105485E+00
   101  1.0000000000000E+00  4.7492288914169E-01  1.1588450372165E+00
   102  1.0100000000000E+00  4.3725805678075E-01  1.2008136685061E+00
   103  1.0200000000000E+00  3.9933678007973E-01  1.2425613545646E+00
   104  1.0300000000000E+00  3.6127502645302E-01  1.2838315971720E+00
   105  1.0400000000000E+00  3.2319462961930E-01  1.3243543682917E+00
   106  1.0500000000000E+00  2.8522241194260E-01  1.3638486615875E+00
   107  1.0600000000000E+00  2.4748922498002E-01  1.4020252496140E+00
   108  1.0700000000000E+00  2.1012891818313E-01  1.4385896163873E+00
   109  1.0800000000000E+00  1.7327724671712E-01  1.4732450323968E+00
   110  1.0900000000000E+00  1.3707073025287E-01  1.5056957368559E+00
   111  1.1000000000000E+00  1.0164547533762E-01  1.5356501901424E+00
   112  1.1100000000000E+00  6.7135974548855E-02  1.5628243579832E+00
   113  1.1200000000000E+00  3.3673896076819E-02  1.5869449880024E+00
   114  1.1300000000000E+00  1.3868776539019E-03  1.6077528388059E+00
   115  1.1400000000000E+00 -2.9602661147819E-02  1.6250058218235E+00
   116  1.1500000000000E+00 -5.9178674300414E-02  1.6384820166703E+00
   117  1.1600000000000E+00 -8.7232598680805E-02  1.6479825218349E+00
   118  1.1700000000000E+00 -1.1366440411849E-01  1.6533341040235E+00
   119  1.1800000000000E+00 -1.3838357142819E-01  1.6543916114972E+00
   120  1.1900000000000E+00 -1.6130998646778E-01  1.6510401191800E+00
   121  1.2000000000000E+00 -1.8237473916454E-01  1.6431967762011E+00
   122  1.2100000000000E+00 -2.0152081749251E-01  1.6308123297921E+00
   123  1.2200000000000E+00 -2.1870368755546E-01  1.6138723030805E+00
   124  1.2300000000000E+00 -2.3389175222247E-01  1.5923978082577E+00
   125  1.2400000000000E+00 -2.4706668214528E-01  1.5664459807753E+00
   126  1.2500000000000E+00 -2.5822361446671E-01  1.5361100246456E+00
   127  1.2600000000000E+00 -2.6737121606453E-01  1.5015188634810E+00
   128  1.2700000000000E+00 -2.7453160975745E-01  1.4628363965581E+00
   129  1.2800000000000E+00 -2.7974016351796E-01  1.4202603639297E+00
   130  1.2900000000000E+00 -2.8304514435105E-01  1.3740208292859E+00
   131  1.3000000000000E+00 -2.8450724010081E-01  1.3243782938871E+00
   132  1.3100000000000E+00 -2.8419895402298E-01  1.2716214594022E+00
   133  1.3200000000000E+00 -2.8220387847612E-01  1.2160646617764E+00
   134  1.3300000000000E+00 -2.7861585552456E-01  1.1580450023097E+00
   135  1.3400000000000E+00 -2.7353803360534E-01  1.0979192059101E+00
   136  1.3500000000000E+00 -2.6708183065088E-01  1.0360602398922E+00
   137  1.3600000000000E+00 -2.5936581518100E-01  9.7285372973643E-01
   138  1.3700000000000E+00 -2.5051451785487E-01  9.0869421081678E-01
   139  1.3800000000000E+00 -2.4065718680778E-01  8.4398125726516E-01
   140  1.3900000000000E+00 -2.2992650075992E-01  7.7911553077807E-01
   141  1.4000000000000E+00 -2.1845725438220E-01  7.1449479331517E-01
   142  1.4100000000000E+00 -2.0638503072195E-01  6.5050992824594E-01
   143  1.4200000000000E+00 -1.9384487562886E-01  5.8754101456913E-01
   144  1.4300000000000E+00 -1.8096998907437E-01  5.2595349835437E-01
   145  1.4400000000000E+00 -1.6789044802851E-01  4.6609450454348E-01
   146  1.4500000000000E+00 -1.5473197514800E-01  4.0828933070811E-01
   147  1.4600000000000E+00 -1.4161476694480E-01  3.5283816231223E-01
   148  1.4700000000000E+00 -1.2865239435334E-01  3.0001304649824E-01
   149  1.4800000000000E+00 -1.1595078766126E-01  2.5005515814761E-01
   150  1.4900000000000E+00 -1.0360731683605E-01  2.0317238944970E-01
   151  1.5000000000000E+00 -9.1709978018508E-02  1.5953729629141E-01
   152  1.5100000000000E+00 -8.0336706476821E-02  1.1928550565212E-01
   153  1.5200000000000E+00 -6.9555084679756E-02  8.2516331783665E-02
   154  1.5300000000000E+00 -5.9422284332083E-02  4.9294325201490E-02
   155  1.5400000000000E+00 -4.9984877319208E-02  1.9649338785706E-02
   156  1.5500000000000E+00 -4.1278731241257E-02 -6.4233099542462E-03
   157  1.5600000000000E+00 -3.3329033787267E-02 -2.8962273935295E-02
   158  1.5700000000000E+00 -2.6150443567460E-02 -4.8039222526288E-02
   159  1.5800000000000E+00 -1.9747364550253E-02 -6.3757509346774E-02
   160  1.5900000000000E+00 -1.4114339566597E-02 -7.6250478291914E-02
   161  1.6000000000000E+00 -9.2365568835702E-03 -8.5679428539164E-02
   162  1.6100000000000E+00 -5.0904624496651E-03 -9.2231263456791E-02
   163  1.6200000000000E+00 -1.6444691089780E-03 -9.6115852200490E-02
   164  1.6300000000000E+00  1.1402471125603E-03 -9.7563136302458E-02
   165  1.6400000000000E+00  3.3088746142147E-03 -9.6820016685790E-02
   166  1.6500000000000E+00  4.9120296145240E-03 -9.4147059233949E-02
   167  1.6600000000000E+00  6.0047680041233E-03 -8.9815059280085E-02
   168  1.6700000000000E+00  6.6455589453938E-03 -8.4101507122677E-02
   169  1.6800000000000E+00  6.8952339549750E-03 -7.7286997902761E-02
   170  1.6900000000000E+00  6.8159308780502E-03 -6.9651644578279E-02
   171  1.7000000000000E+00  6.4699882233852E-03 -6.1471378519456E-02
   172  1.7100000000000E+00  5.9190872146164E-03 -5.3014953256081E-02
   173  1.7200000000000E+00  5.2211554373898E-03 -4.4534885872535E-02
   174  1.7300000000000E+00  4.4199890370151E-03 -3.6238624989625E-02
   175  1.7400000000000E+00  3.5686087203175E-03 -2.8351596537393E-02
   176  1.7500000000000E+00  2.7227828891712E-03 -2.1099052940688E-02
   177  1.7600000000000E+00  1.9313864697242E-03 -1.4679380016597E-02
   178  1.7700000000000E+00  1.2368114929619E-03 -9.2648366566646E-03
   179  1.7800000000000E+00  6.7441262362038E-04 -5.0009058363196E-03
   180  1.7900000000000E+00  2.6925338099009E-04 -1.9845635587159E-03
   181  1.8000000000000E+00  4.9520641234513E-05 -3.6454515065826E-04
   182  1.8100000000000E+00 -5.3237329045313E-06  3.8598118287753E-05
   183  1.8200000000000E+00  1.1902777159319E-06 -8.6805972523377E-06
   184  1.83 -0.  0.
   185  1.84  0. -0.
   186  1.85  0. -0.
   187  1.86  0.  0.
   188  1.87  0.  0.
   189  1.88  0.  0.
   190  1.89  0.  0.
   191  1.90  0.  0.
   192  1.91  0.  0.
   193  1.92  0.  0.
   194  1.93  0.  0.
   195  1.94  0.  0.
   196  1.95  0.  0.
   197  1.96  0.  0.
   198  1.97  0.  0.
   199  1.98  0.  0.
   200  1.99  0.  0.
   201  2.00  0.  0.
   202  2.01  0.  0.
   203  2.02  0.  0.
   204  2.03  0.  0.
   205  2.04  0.  0.
   206  2.05  0.  0.
   207  2.06  0.  0.
   208  2.07  0.  0.
   209  2.08  0.  0.
   210  2.09  0.  0.
   211  2.10  0.  0.
   212  2.11  0.  0.
   213  2.12  0.  0.
   214  2.13  0.  0.
   215  2.14  0.  0.
   216  2.15  0.  0.
   217  2.16  0.  0.
   218  2.17  0.  0.
   219  2.18  0.  0.
   220  2.19  0.  0.
   221  2.20  0.  0.
   222  2.21  0.  0.
   223  2.22  0.  0.
   224  2.23  0.  0.
   225  2.24  0.  0.
   226  2.25  0.  0.
   227  2.26  0.  0.
   228  2.27  0.  0.
   229  2.28  0.  0.
   230  2.29  0.  0.
   231  2.30  0.  0.
   232  2.31  0.  0.
   233  2.32  0.  0.
   234  2.33  0.  0.
   235  2.34  0.  0.
   236  2.35  0.  0.
   237  2.36  0.  0.
   238  2.37  0.  0.
   239  2.38  0.  0.
   240  2.39  0.  0.
   241  2.40  0.  0.
   242  2.41  0.  0.
   243  2.42  0.  0.
   244  2.43  0.  0.
   245  2.44  0.  0.
   246  2.45  0.  0.
   247  2.46  0.  0.
   248  2.47  0.  0.
   249  2.48  0.  0.
   250  2.49  0.  0.
   251  2.50  0.  0.
   252  2.51  0.  0.
   253  2.52  0.  0.
   254  2.53  0.  0.
   255  2.54  0.  0.
   256  2.55  0.  0.
   257  2.56  0.  0.
   258  2.57  0.  0.
   259  2.58  0.  0.
   260  2.59  0.  0.
   261  2.60  0.  0.
   262  2.61  0.  0.
   263  2.62  0.  0.
   264  2.63  0.  0.
   265  2.64  0.  0.
   266  2.65  0.  0.
   267  2.66  0.  0.
   268  2.67  0.  0.
   269  2.68  0.  0.
   270  2.69  0.  0.
   271  2.70  0.  0.
   272  2.71  0.  0.
   273  2.72  0.  0.
   274  2.73  0.  0.
   275  2.74  0.  0.
   276  2.75  0.  0.
   277  2.76  0.  0.
   278  2.77  0.  0.
   279  2.78  0.  0.
   280  2.79  0.  0.
   281  2.80  0.  0.
   282  2.81  0.  0.
   283  2.82  0.  0.
   284  2.83  0.  0.
   285  2.84  0.  0.
   286  2.85  0.  0.
   287  2.86  0.  0.
   288  2.87  0.  0.
   289  2.88  0.  0.
   290  2.89  0.  0.
   291  2.90  0.  0.
   292  2.91  0.  0.
   293  2.92  0.  0.
   294  2.93  0.  0.
   295  2.94  0.  0.
   296  2.95  0.  0.
   297  2.96  0.  0.
   298  2.97  0.  0.
   299  2.98  0.  0.
   300  2.99  0.  0.
   301  3.00  0.  0.
   302  3.01  0.  0.
   303  3.02  0.  0.
   304  3.03  0.  0.
   305  3.04  0.  0.
   306  3.05  0.  0.
   307  3.06  0.  0.
   308  3.07  0.  0.
   309  3.08  0.  0.
   310  3.09  0.  0.
   311  3.10  0.  0.
   312  3.11  0.  0.
   313  3.12  0.  0.
   314  3.13  0.  0.
   315  3.14  0.  0.
   316  3.15  0.  0.
   317  3.16  0.  0.
   318  3.17  0.  0.
   319  3.18  0.  0.
   320  3.19  0.  0.
   321  3.20  0.  0.
   322  3.21  0.  0.
   323  3.22  0.  0.
   324  3.23  0.  0.
   325  3.24  0.  0.
   326  3.25  0.  0.
   327  3.26  0.  0.
   328  3.27  0.  0.
   329  3.28  0.  0.
   330  3.29  0.  0.
   331  3.30  0.  0.
   332  3.31  0.  0.
   333  3.32  0.  0.
   334  3.33  0.  0.
   335  3.34  0.  0.
   336  3.35  0.  0.
   337  3.36  0.  0.
   338  3.37  0.  0.
   339  3.38  0.  0.
   340  3.39  0.  0.
   341  3.40  0.  0.
   342  3.41  0.  0.
   343  3.42  0.  0.
   344  3.43  0.  0.
   345  3.44  0.  0.
   346  3.45  0.  0.
   347  3.46  0.  0.
   348  3.47  0.  0.
   349  3.48  0.  0.
   350  3.49  0.  0.
   351  3.50  0.  0.
   352  3.51  0.  0.
   353  3.52  0.  0.
   354  3.53  0.  0.
   355  3.54  0.  0.
   356  3.55  0.  0.
   357  3.56  0.  0.
   358  3.57  0.  0.
   359  3.58  0.  0.
   360  3.59  0.  0.
   361  3.60  0.  0.
   362  3.61  0.  0.
   363  3.62  0.  0.
   364  3.63  0.  0.
   365  3.64  0.  0.
   366  3.65  0.  0.
   367  3.66  0.  0.
   368  3.67  0.  0.
   369  3.68  0.  0.
   370  3.69  0.  0.
   371  3.70  0.  0.
   372  3.71  0.  0.
   373  3.72  0.  0.
   374  3.73  0.  0.
   375  3.74  0.  0.
   376  3.75  0.  0.
   377  3.76  0.  0.
   378  3.77  0.  0.
   379  3.78  0.  0.
   380  3.79  0.  0.
   381  3.80  0.  0.
   382  3.81  0.  0.
   383  3.82  0.  0.
   384  3.83  0.  0.
   385  3.84  0.  0.
   386  3.85  0.  0.
   387  3.86  0.  0.
   388  3.87  0.  0.
   389  3.88  0.  0.
   390  3.89  0.  0.
   391  3.90  0.  0.
   392  3.91  0.  0.
   393  3.92  0.  0.
   394  3.93  0.  0.
   395  3.94  0.  0.
   396  3.95  0.  0.
   397  3.96  0.  0.
   398  3.97  0.  0.
   399  3.98  0.  0.
   400  3.99  0.  0.
   401  4.00  0.  0.
   402  4.01  0.  0.
   403  4.02  0.  0.
   404  4.03  0.  0.
   405  4.04  0.  0.
   406  4.05  0.  0.
   407  4.06  0.  0.
   408  4.07  0.  0.
   409  4.08  0.  0.
   410  4.09  0.  0.
   411  4.10  0.  0.
   412  4.11  0.  0.
   413  4.12  0.  0.
   414  4.13  0.  0.
   415  4.14  0.  0.
   416  4.15  0.  0.
   417  4.16  0.  0.
   418  4.17  0.  0.
   419  4.18  0.  0.
   420  4.19  0.  0.
   421  4.20  0.  0.
   422  4.21  0.  0.
   423  4.22  0.  0.
   424  4.23  0.  0.
   425  4.24  0.  0.
   426  4.25  0.  0.
   427  4.26  0.  0.
   428  4.27  0.  0.
   429  4.28  0.  0.
   430  4.29  0.  0.
   431  4.30  0.  0.
   432  4.31  0.  0.
   433  4.32  0.  0.
   434  4.33  0.  0.
   435  4.34  0.  0.
   436  4.35  0.  0.
   437  4.36  0.  0.
   438  4.37  0.  0.
   439  4.38  0.  0.
   440  4.39  0.  0.
   441  4.40  0.  0.
   442  4.41  0.  0.
   443  4.42  0.  0.
   444  4.43  0.  0.
   445  4.44  0.  0.
   446  4.45  0.  0.
   447  4.46  0.  0.
   448  4.47  0.  0.
   449  4.48  0.  0.
   450  4.49  0.  0.
   451  4.50  0.  0.
   452  4.51  0.  0.
   453  4.52  0.  0.
   454  4.53  0.  0.
   455  4.54  0.  0.
   456  4.55  0.  0.
   457  4.56  0.  0.
   458  4.57  0.  0.
   459  4.58  0.  0.
   460  4.59  0.  0.
   461  4.60  0.  0.
   462  4.61  0.  0.
   463  4.62  0.  0.
   464  4.63  0.  0.
   465  4.64  0.  0.
   466  4.65  0.  0.
   467  4.66  0.  0.
   468  4.67  0.  0.
   469  4.68  0.  0.
   470  4.69  0.  0.
   471  4.70  0.  0.
   472  4.71  0.  0.
   473  4.72  0.  0.
   474  4.73  0.  0.
   475  4.74  0.  0.
   476  4.75  0.  0.
   477  4.76  0.  0.
   478  4.77  0.  0.
   479  4.78  0.  0.
   480  4.79  0.  0.
   481  4.80  0.  0.
   482  4.81  0.  0.
   483  4.82  0.  0.
   484  4.83  0.  0.
   485  4.84  0.  0.
   486  4.85  0.  0.
   487  4.86  0.  0.
   488  4.87  0.  0.
   489  4.88  0.  0.
   490  4.89  0.  0.
   491  4.90  0.  0.
   492  4.91  0.  0.
   493  4.92  0.  0.
   494  4.93  0.  0.
   495  4.94  0.  0.
   496  4.95  0.  0.
   497  4.96  0.  0.
   498  4.97  0.  0.
   499  4.98  0.  0.
   500  4.99  0.  0.
   501  5.00  0.  0.
   502  5.01  0.  0.
   503  5.02  0.  0.
   504  5.03  0.  0.
   505  5.04  0.  0.
   506  5.05  0.  0.
   507  5.06  0.  0.
   508  5.07  0.  0.
   509  5.08  0.  0.
   510  5.09  0.  0.
   511  5.10  0.  0.
   512  5.11  0.  0.
   513  5.12  0.  0.
   514  5.13  0.  0.
   515  5.14  0.  0.
   516  5.15  0.  0.
   517  5.16  0.  0.
   518  5.17  0.  0.
   519  5.18  0.  0.
   520  5.19  0.  0.
   521  5.20  0.  0.
   522  5.21  0.  0.
   523  5.22  0.  0.
   524  5.23  0.  0.
   525  5.24  0.  0.
   526  5.25  0.  0.
   527  5.26  0.  0.
   528  5.27  0.  0.
   529  5.28  0.  0.
   530  5.29  0.  0.
   531  5.30  0.  0.
   532  5.31  0.  0.
   533  5.32  0.  0.
   534  5.33  0.  0.
   535  5.34  0.  0.
   536  5.35  0.  0.
   537  5.36  0.  0.
   538  5.37  0.  0.
   539  5.38  0.  0.
   540  5.39  0.  0.
   541  5.40  0.  0.
   542  5.41  0.  0.
   543  5.42  0.  0.
   544  5.43  0.  0.
   545  5.44  0.  0.
   546  5.45  0.  0.
   547  5.46  0.  0.
   548  5.47  0.  0.
   549  5.48  0.  0.
   550  5.49  0.  0.
   551  5.50  0.  0.
   552  5.51  0.  0.
   553  5.52  0.  0.
   554  5.53  0.  0.
   555  5.54  0.  0.
   556  5.55  0.  0.
   557  5.56  0.  0.
   558  5.57  0.  0.
   559  5.58  0.  0.
   560  5.59  0.  0.
   561  5.60  0.  0.
   562  5.61  0.  0.
   563  5.62  0.  0.
   564  5.63  0.  0.
   565  5.64  0.  0.
   566  5.65  0.  0.
   567  5.66  0.  0.
   568  5.67  0.  0.
   569  5.68  0.  0.
   570  5.69  0.  0.
   571  5.70  0.  0.
   572  5.71  0.  0.
   573  5.72  0.  0.
   574  5.73  0.  0.
   575  5.74  0.  0.
   576  5.75  0.  0.
   577  5.76  0.  0.
   578  5.77  0.  0.
   579  5.78  0.  0.
   580  5.79  0.  0.
   581  5.80  0.  0.
   582  5.81  0.  0.
   583  5.82  0.  0.
   584  5.83  0.  0.
   585  5.84  0.  0.
   586  5.85  0.  0.
   587  5.86  0.  0.
   588  5.87  0.  0.
   589  5.88  0.  0.
   590  5.89  0.  0.
   591  5.90  0.  0.
   592  5.91  0.  0.
   593  5.92  0.  0.
   594  5.93  0.  0.
   595  5.94  0.  0.
   596  5.95  0.  0.
   597  5.96  0.  0.
   598  5.97  0.  0.
   599  5.98  0.  0.
   600  5.99  0.  0.
   1                         6.3370258087353E+00  1.1957117815371E+00
     1  0.0000000000000E+00  3.5214662880145E-08 -4.7603195996171E-08
     2  1.0000000000000E-02  1.5486022586358E-03 -1.4659211979034E-03
     3  2.0000000000000E-02  6.1580555793945E-03 -5.8155888358203E-03
     4  3.0000000000000E-02  1.3720209080520E-02 -1.2905937267963E-02
     5  4.0000000000000E-02  2.4057821528281E-02 -2.2502568886677E-02
     6  5.0000000000000E-02  3.6929002357615E-02 -3.4285721207159E-02
     7  6.0000000000000E-02  5.2033282167946E-02 -4.7858421911132E-02
     8  7.0000000000000E-02  6.9019169766215E-02 -6.2756638431542E-02
     9  8.0000000000000E-02  8.7493017614561E-02 -7.8461181057137E-02
    10  9.0000000000000E-02  1.0702898636991E-01 -9.4411076441544E-02
    11  1.0000000000000E-01  1.2717987278934E-01 -1.1001809278462E-01
    12  1.1000000000000E-01  1.4748854422521E-01 -1.2468206963906E-01
    13  1.2000000000000E-01  1.6749970773529E-01 -1.3780668494377E-01
    14  1.3000000000000E-01  1.8677173284352E-01 -1.4881527998034E-01
    15  1.4000000000000E-01  2.0488824442551E-01 -1.5716635978560E-01
    16  1.5000000000000E-01  2.2146920613621E-01 -1.6236839222830E-01
    17  1.6000000000000E-01  2.3618122517604E-01 -1.6399354337327E-01
    18  1.7000000000000E-01  2.4874682579291E-01 -1.6169000961286E-01
    19  1.8000000000000E-01  2.5895246138837E-01 -1.5519263785755E-01
    20  1.9000000000000E-01  2.6665506295134E-01 -1.4433156317420E-01
    21  2.0000000000000E-01  2.7178695417562E-01 -1.2903863781041E-01
    22  2.1000000000000E-01  2.7435900031121E-01 -1.0935147556080E-01
    23  2.2000000000000E-01  2.7446189774601E-01 -8.5414989809416E-02
    24  2.3000000000000E-01  2.7226555362747E-01 -5.7480361107130E-02
    25  2.4000000000000E-01  2.6801654857223E-01 -2.5901429527783E-02
    26  2.5000000000000E-01  2.6203371969824E-01  8.8714330459952E-03
    27  2.6000000000000E-01  2.5470194485507E-01  4.6299856480081E-02
    28  2.7000000000000E-01  2.4646425104065E-01  8.5768240660367E-02
    29  2.8000000000000E-01  2.3781240961991E-01  1.2659653392380E-01
    30  2.9000000000000E-01  2.2927621719727E-01  1.6805474837536E-01
    31  3.0000000000000E-01  2.2141169300685E-01  2.0937889593858E-01
    32  3.1000000000000E-01  2.1478845072431E-01  2.4978799295736E-01
    33  3.2000000000000E-01  2.0997652403486E-01  2.8850175284871E-01
    34  3.3000000000000E-01  2.0753294059299E-01  3.2475856639563E-01
    35  3.4000000000000E-01  2.0798834779608E-01  3.5783335827852E-01
    36  3.5000000000000E-01  2.1183399582203E-01  3.8705490669124E-01
    37  3.6000000000000E-01  2.1950937855517E-01  4.1182222048612E-01
    38  3.7000000000000E-01  2.3139082140062E-01  4.3161958514846E-01
    39  3.8000000000000E-01  2.4778128677160E-01  4.4602991471464E-01
    40  3.9000000000000E-01  2.6890164358047E-01  4.5474608101607E-01
    41  4.0000000000000E-01  2.9488361686751E-01  4.5757993366194E-01
    42  4.1000000000000E-01  3.2576459838515E-01  4.5446877309405E-01
    43  4.2000000000000E-01  3.6148445926280E-01  4.4547909382718E-01
    44  4.3000000000000E-01  4.0188446265203E-01  4.3080747445762E-01
    45  4.4000000000000E-01  4.4670832842295E-01  4.1077855389981E-01
    46  4.5000000000000E-01  4.9560545454210E-01  3.8584009822486E-01
    47  4.6000000000000E-01  5.4813625174764E-01  3.5655522800196E-01
    48  4.7000000000000E-01  6.0377950060465E-01  3.2359194073071E-01
    49  4.8000000000000E-01  6.6194159402776E-01  2.8771012535485E-01
    50  4.9000000000000E-01  7.2196748492939E-01  2.4974632455691E-01
    51  5.0000000000000E-01  7.8315311877108E-01  2.1059655421003E-01
    52  5.1000000000000E-01  8.4475909537553E-01  1.7119753676683E-01
    53  5.2000000000000E-01  9.0602527421844E-01  1.3250674538203E-01
    54  5.3000000000000E-01  9.6618601327722E-01  9.5481687233653E-02
    55  5.4000000000000E-01  1.0244857139538E+00  6.1058877039452E-02
    56  5.5000000000000E-01  1.0801943340622E+00  3.0132964567292E-02
    57  5.6000000000000E-01  1.1326225276754E+00  3.5364826233644E-03
    58  5.7000000000000E-01  1.1811360749056E+00 -1.7979325597655E-02
    59  5.8000000000000E-01  1.2251692764188E+00 -3.3762158745632E-02
    60  5.9000000000000E-01  1.2642370064897E+00 -4.3274375855590E-02
    61  6.0000000000000E-01  1.2979451443274E+00 -4.6106405149288E-02
    62  6.1000000000000E-01  1.3259991357582E+00 -4.1987513018322E-02
    63  6.2000000000000E-01  1.3482104754980E+00 -3.0793656905050E-02
    64  6.3000000000000E-01  1.3645009434053E+00 -1.2552206332696E-02
    65  6.4000000000000E-01  1.3749044753852E+00  1.2556617637460E-02
    66  6.5000000000000E-01  1.3795666000363E+00  4.4201664105766E-02
    67  6.6000000000000E-01  1.3787414246229E+00  8.1906142008943E-02
    68  6.7000000000000E-01  1.3727862073926E+00  1.2505621074868E-01
    69  6.8000000000000E-01  1.3621536065038E+00  1.7291273144128E-01
    70  6.9000000000000E-01  1.3473817477079E+00  2.2462596726383E-01
    71  7.0000000000000E-01  1.3290823023130E+00  2.7925295388341E-01
    72  7.1000000000000E-01  1.3079268127471E+00  3.3577719866715E-01
    73  7.2000000000000E-01  1.2846315441985E+00  3.9313031170499E-01
    74  7.3000000000000E-01  1.2599411764098E+00  4.5021512390774E-01
    75  7.4000000000000E-01  1.2346116789037E+00  5.0592980870653E-01
    76  7.5000000000000E-01  1.2093927350283E+00  5.5919249511355E-01
    77  7.6000000000000E-01  1.1850100946711E+00  6.0896584185098E-01
    78  7.7000000000000E-01  1.1621482419087E+00  6.5428103543186E-01
    79  7.8000000000000E-01  1.1414337620145E+00  6.9426067976172E-01
    80  7.9000000000000E-01  1.1234197820792E+00  7.2814006106293E-01
    81  8.0000000000000E-01  1.1085718411490E+00  7.5528629949034E-01
    82  8.1000000000000E-01  1.0972555195453E+00  7.7521493725259E-01
    83  8.2000000000000E-01  1.0897261233905E+00  7.8760356168214E-01
    84  8.3000000000000E-01  1.0861206799518E+00  7.9230211958955E-01
    85  8.4000000000000E-01  1.0864524530317E+00  7.8933964526468E-01
    86  8.5000000000000E-01  1.0906081362024E+00  7.7892719733484E-01
    87  8.6000000000000E-01  1.0983478262451E+00  7.6145687788429E-01
    88  8.7000000000000E-01  1.1093078208579E+00  7.3749688917560E-01
    89  8.8000000000000E-01  1.1230062247437E+00  7.0778266729183E-01
    90  8.9000000000000E-01  1.1388512878488E+00  6.7320421627504E-01
    91  9.0000000000000E-01  1.1561523400667E+00  6.3478984908633E-01
    92  9.1000000000000E-01  1.1741331294275E+00  5.9368662117850E-01
    93  9.2000000000000E-01  1.1919473169025E+00  5.5113781693418E-01
    94  9.3000000000000E-01  1.2086958316386E+00  5.0845791704228E-01
    95  9.4000000000000E-01  1.2234457468033E+00  4.6700553455364E-01
    96  9.5000000000000E-01  1.2352502992413E+00  4.2815485751698E-01
    97  9.6000000000000E-01  1.2431696466824E+00  3.9326617557776E-01
    98  9.7000000000000E-01  1.2462919349837E+00  3.6365609578182E-01
    99  9.8000000000000E-01  1.2437542353909E+00  3.4056806832527E-01
   100  9.9000000000000E-01  1.2347629084091E+00  3.2514384567581E-01
   101  1.0000000000000E+00  1.2186129567393E+00  3.1839648817160E-01
   102  1.0100000000000E+00  1.1947059448588E+00  3.2118550591820E-01
   103  1.0200000000000E+00  1.1625660869716E+00  3.3419469091452E-01
   104  1.0300000000000E+00  1.1218541377839E+00  3.5791314548766E-01
   105  1.0400000000000E+00  1.0723787613232E+00  3.9261995410444E-01
   106  1.0500000000000E+00  1.0141051010412E+00  4.3837287658013E-01
   107  1.0600000000000E+00  9.4716032867074E-01  4.9500136309458E-01
   108  1.0700000000000E+00  8.7183600892367E-01  5.6210410645644E-01
   109  1.0800000000000E+00  7.8858718064454E-01  6.3905125679078E-01
   110  1.0900000000000E+00  6.9802812135855E-01  7.2499132985824E-01
   111  1.1000000000000E+00  6.0092482999047E-01  8.1886274434962E-01
   112  1.1100000000000E+00  4.9818433012574E-01  9.1940982821203E-01
   113  1.1200000000000E+00  3.9084096276217E-01  1.0252030404427E+00