Se    ONCVPSP-4.0.1  r_core=   1.80690   1.50106   1.90685
     34.0000     16.0000      250925    zatom,zion,pspd
     8   -1012   2     4   600     0    pspcod,pspxc,lmax,lloc,mmax,r2well
  5.99000000  5.00000000  0.00000000    rchrg fchrg qchrg
     2     3     2     0    nproj
     3     1           extension_switch
     3     3     0    nprojso
   0                         8.3704772174522E+00  9.1487480231577E-01
     1  0.0000000000000E+00  4.9556014847241E-10 -1.2922813583116E-09
     2  1.0000000000000E-02  2.9052818298424E-02 -4.1496442788389E-03
     3  2.0000000000000E-02  5.8148781110089E-02 -8.4126014490602E-03
     4  3.0000000000000E-02  8.7330238067383E-02 -1.2900320223538E-02
     5  4.0000000000000E-02  1.1663795913485E-01 -1.7720546254653E-02
     6  5.0000000000000E-02  1.4611036988209E-01 -2.2975533511585E-02
     7  6.0000000000000E-02  1.7578281652829E-01 -2.8760330216480E-02
     8  7.0000000000000E-02  2.0568687009307E-01 -3.5161162654974E-02
     9  8.0000000000000E-02  2.3584967849268E-01 -4.2253938884259E-02
    10  9.0000000000000E-02  2.6629337481273E-01 -5.0102892778057E-02
    11  1.0000000000000E-01  2.9703454927691E-01 -5.8759386992895E-02
    12  1.1000000000000E-01  3.2808379162307E-01 -6.8260891338035E-02
    13  1.2000000000000E-01  3.5944530970559E-01 -7.8630150709305E-02
    14  1.3000000000000E-01  3.9111662917549E-01 -8.9874554235137E-02
    15  1.4000000000000E-01  4.2308837806133E-01 -1.0198571461374E-01
    16  1.5000000000000E-01  4.5534415899602E-01 -1.1493926382815E-01
    17  1.6000000000000E-01  4.8786051072177E-01 -1.2869486854742E-01
    18  1.7000000000000E-01  5.2060695937133E-01 -1.4319646559435E-01
    19  1.8000000000000E-01  5.5354615888293E-01 -1.5837271492184E-01
    20  1.9000000000000E-01  5.8663411877296E-01 -1.7413766462901E-01
    21  2.0000000000000E-01  6.1982051637955E-01 -1.9039161970290E-01
    22  2.1000000000000E-01  6.5304908961546E-01 -2.0702220342945E-01
    23  2.2000000000000E-01  6.8625810524377E-01 -2.2390559781498E-01
    24  2.3000000000000E-01  7.1938089672824E-01 -2.4090794692973E-01
    25  2.4000000000000E-01  7.5234646482420E-01 -2.5788690486286E-01
    26  2.5000000000000E-01  7.8508013327598E-01 -2.7469330799061E-01
    27  2.6000000000000E-01  8.1750425128545E-01 -2.9117294953572E-01
    28  2.7000000000000E-01  8.4953893381990E-01 -3.0716843295781E-01
    29  2.8000000000000E-01  8.8110283034626E-01 -3.2252107958302E-01
    30  2.9000000000000E-01  9.1211391221763E-01 -3.3707286507157E-01
    31  3.0000000000000E-01  9.4249026870237E-01 -3.5066835884686E-01
    32  3.1000000000000E-01  9.7215090153955E-01 -3.6315664047595E-01
    33  3.2000000000000E-01  1.0010165079278E+00 -3.7439316720324E-01
    34  3.3000000000000E-01  1.0290102420089E+00 -3.8424156739441E-01
    35  3.4000000000000E-01  1.0560584451904E+00 -3.9257533554118E-01
    36  3.5000000000000E-01  1.0820913360599E+00 -3.9927940569942E-01
    37  3.6000000000000E-01  1.1070436511712E+00 -4.0425158176794E-01
    38  3.7000000000000E-01  1.1308552286295E+00 -4.0740380484590E-01
    39  3.8000000000000E-01  1.1534715271462E+00 -4.0866324000923E-01
    40  3.9000000000000E-01  1.1748440740858E+00 -4.0797316719553E-01
    41  4.0000000000000E-01  1.1949308369562E+00 -4.0529366345292E-01
    42  4.1000000000000E-01  1.2136965138008E+00 -4.0060206655773E-01
    43  4.2000000000000E-01  1.2311127390222E+00 -3.9389321290541E-01
    44  4.3000000000000E-01  1.2471582022793E+00 -3.8517944558944E-01
    45  4.4000000000000E-01  1.2618186792550E+00 -3.7449039166638E-01
    46  4.5000000000000E-01  1.2750869742577E+00 -3.6187251072112E-01
    47  4.6000000000000E-01  1.2869627757943E+00 -3.4738841995390E-01
    48  4.7000000000000E-01  1.2974524274160E+00 -3.3111600406822E-01
    49  4.8000000000000E-01  1.3065686172704E+00 -3.1314732120695E-01
    50  4.9000000000000E-01  1.3143299908911E+00 -2.9358731902091E-01
    51  5.0000000000000E-01  1.3207606927921E+00 -2.7255237762372E-01
    52  5.1000000000000E-01  1.3258898434038E+00 -2.5016869865022E-01
    53  5.2000000000000E-01  1.3297509587723E+00 -2.2657056186128E-01
    54  5.3000000000000E-01  1.3323813212368E+00 -2.0189847269119E-01
    55  5.4000000000000E-01  1.3338213099828E+00 -1.7629722579095E-01
    56  5.5000000000000E-01  1.3341137009426E+00 -1.4991391095315E-01
    57  5.6000000000000E-01  1.3333029459592E+00 -1.2289588879525E-01
    58  5.7000000000000E-01  1.3314344414488E+00 -9.5388764209012E-02
    59  5.8000000000000E-01  1.3285537969788E+00 -6.7534385845503E-02
    60  5.9000000000000E-01  1.3247061142250E+00 -3.9468899788999E-02
    61  6.0000000000000E-01  1.3199352866751E+00 -1.1320885079154E-02
    62  6.1000000000000E-01  1.3142833302120E+00  1.6790402129347E-02
    63  6.2000000000000E-01  1.3077897543427E+00  4.4756650217452E-02
    64  6.3000000000000E-01  1.3004909833301E+00  7.2481955602296E-02
    65  6.4000000000000E-01  1.2924198358594E+00  9.9884106055165E-02
    66  6.5000000000000E-01  1.2836050711157E+00  1.2689566404716E-01
    67  6.6000000000000E-01  1.2740710082901E+00  1.5346483286264E-01
    68  6.7000000000000E-01  1.2638372255684E+00  1.7955609100790E-01
    69  6.8000000000000E-01  1.2529183436060E+00  2.0515058345202E-01
    70  6.9000000000000E-01  1.2413238973661E+00  2.3024626143205E-01
    71  7.0000000000000E-01  1.2290582990118E+00  2.5485776589371E-01
    72  7.1000000000000E-01  1.2161208933075E+00  2.7901605308147E-01
    73  7.2000000000000E-01  1.2025061057231E+00  3.0276776429059E-01
    74  7.3000000000000E-01  1.1882036821556E+00  3.2617434530614E-01
    75  7.4000000000000E-01  1.1731990179073E+00  3.4931092453186E-01
    76  7.5000000000000E-01  1.1574735723069E+00  3.7226496220907E-01
    77  7.6000000000000E-01  1.1410053641355E+00  3.9513468639883E-01
    78  7.7000000000000E-01  1.1237695418588E+00  4.1802733450179E-01
    79  7.8000000000000E-01  1.1057390215622E+00  4.4105722197979E-01
    80  7.9000000000000E-01  1.0868851844739E+00  4.6434366257978E-01
    81  8.0000000000000E-01  1.0671786250408E+00  4.8800876670614E-01
    82  8.1000000000000E-01  1.0465899397145E+00  5.1217514660932E-01
    83  8.2000000000000E-01  1.0250905459177E+00  5.3696355872574E-01
    84  8.3000000000000E-01  1.0026535201067E+00  5.6249051479068E-01
    85  8.4000000000000E-01  9.7925444343228E-01  5.8886589423170E-01
    86  8.5000000000000E-01  9.5487224323043E-01  6.1619059081799E-01
    87  8.6000000000000E-01  9.2949001846335E-01  6.4455422658164E-01
    88  8.7000000000000E-01  9.0309583726561E-01  6.7403296563293E-01
    89  8.8000000000000E-01  8.7568349494801E-01  7.0468745966556E-01
    90  8.9000000000000E-01  8.4725322115930E-01  7.3656095569386E-01
    91  9.0000000000000E-01  8.1781232540753E-01  7.6967759489399E-01
    92  9.1000000000000E-01  7.8737577078957E-01  8.0404092935384E-01
    93  9.2000000000000E-01  7.5596666656419E-01  8.3963268109049E-01
    94  9.3000000000000E-01  7.2361667112142E-01  8.7641176490195E-01
    95  9.4000000000000E-01  6.9036629793767E-01  9.1431359350933E-01
    96  9.5000000000000E-01  6.5626511825151E-01  9.5324968005650E-01
    97  9.6000000000000E-01  6.2137185543287E-01  9.9310754940629E-01
    98  9.7000000000000E-01  5.8575436733660E-01  1.0337509658484E+00
    99  9.8000000000000E-01  5.4948951431051E-01  1.0750204808654E+00
   100  9.9000000000000E-01  5.1266291195385E-01  1.1167343005325E+00
   101  1.0000000000000E+00  4.7536856917421E-01  1.1586894680162E+00
   102  1.0100000000000E+00  4.3770841355261E-01  1.2006633525248E+00
   103  1.0200000000000E+00  3.9979170747897E-01  1.2424154320148E+00
   104  1.0300000000000E+00  3.6173435994248E-01  1.2836893530228E+00
   105  1.0400000000000E+00  3.2365814023920E-01  1.3242152472136E+00
   106  1.0500000000000E+00  2.8568980117076E-01  1.3637122806754E+00
   107  1.0600000000000E+00  2.4796012053673E-01  1.4018914086969E+00
   108  1.0700000000000E+00  2.1060287085598E-01  1.4384583057614E+00
   109  1.0800000000000E+00  1.7375372826808E-01  1.4731164378515E+00
   110  1.0900000000000E+00  1.3754913245627E-01  1.5055702418970E+00
   111  1.1000000000000E+00  1.0212511018310E-01  1.5355283753502E+00
   112  1.1100000000000E+00  6.7616075628286E-02  1.5627069974822E+00
   113  1.1200000000000E+00  3.4153621158794E-02  1.5868330430544E+00
   114  1.1300000000000E+00  1.8653124338047E-03  1.6076474485773E+00
   115  1.1400000000000E+00 -2.9126498149881E-02  1.6249082914143E+00
   116  1.1500000000000E+00 -5.8705825736648E-02  1.6383938025268E+00
   117  1.1600000000000E+00 -8.6764161325719E-02  1.6479052147066E+00
   118  1.1700000000000E+00 -1.1320152084395E-01  1.6532694096539E+00
   119  1.1800000000000E+00 -1.3792742228928E-01  1.6543413292728E+00
   120  1.1900000000000E+00 -1.6086177899756E-01  1.6510061189880E+00
   121  1.2000000000000E+00 -1.8193569798735E-01  1.6431809737729E+00
   122  1.2100000000000E+00 -2.0109217337529E-01  1.6308166608325E+00
   123  1.2200000000000E+00 -2.1828666602525E-01  1.6138986964991E+00
   124  1.2300000000000E+00 -2.3348756188535E-01  1.5924481588365E+00
   125  1.2400000000000E+00 -2.4667650284724E-01  1.5665221216144E+00
   126  1.2500000000000E+00 -2.5784858544059E-01  1.5362136997389E+00
   127  1.2600000000000E+00 -2.6701242420909E-01  1.5016517007705E+00
   128  1.2700000000000E+00 -2.7419007819444E-01  1.4629998818195E+00
   129  1.2800000000000E+00 -2.7941684057132E-01  1.4204558158292E+00
   130  1.2900000000000E+00 -2.8274089308853E-01  1.3742493759404E+00
   131  1.3000000000000E+00 -2.8422282857281E-01  1.3246408512440E+00
   132  1.3100000000000E+00 -2.8393504632623E-01  1.2719187117334E+00
   133  1.3200000000000E+00 -2.8196102676072E-01  1.2163970445597E+00
   134  1.3300000000000E+00 -2.7839449305250E-01  1.1584126877427E+00
   135  1.3400000000000E+00 -2.7333846895653E-01  1.0983220912703E+00
   136  1.3500000000000E+00 -2.6690424315974E-01  1.0364979389251E+00
   137  1.3600000000000E+00 -2.5921025167178E-01  9.7332556721495E-01
   138  1.3700000000000E+00 -2.5038089072914E-01  9.0919922038006E-01
   139  1.3800000000000E+00 -2.4054527352059E-01  8.4451818260120E-01
   140  1.3900000000000E+00 -2.2983594470516E-01  7.7968283017626E-01
   141  1.4000000000000E+00 -2.1838756719000E-01  7.1509064757151E-01
   142  1.4100000000000E+00 -2.0633559595391E-01  6.5113225186172E-01
   143  1.4200000000000E+00 -1.9381495383960E-01  5.8818747014220E-01
   144  1.4300000000000E+00 -1.8095872419091E-01  5.2662151402105E-01
   145  1.4400000000000E+00 -1.6789687498254E-01  4.6678129428973E-01
   146  1.4500000000000E+00 -1.5475502868007E-01  4.0899191733053E-01
   147  1.4600000000000E+00 -1.4165329148487E-01  3.5355340277442E-01
   148  1.4700000000000E+00 -1.2870515486792E-01  3.0073765939525E-01
   149  1.4800000000000E+00 -1.1601648134496E-01  2.5078575296171E-01
   150  1.4900000000000E+00 -1.0368458551416E-01  2.0390549725541E-01
   151  1.5000000000000E+00 -9.1797421118067E-02  1.6026940155130E-01
   152  1.5100000000000E+00 -8.0432894419825E-02  1.2001307879381E-01
   153  1.5200000000000E+00 -6.9658572649740E-02  8.3235863654001E-02
   154  1.5300000000000E+00 -5.9531626320099E-02  5.0002363457103E-02
   155  1.5400000000000E+00 -5.0098640205390E-02  2.0342524282893E-02
   156  1.5500000000000E+00 -4.1395508730987E-02 -5.7482074371523E-03
   157  1.5600000000000E+00 -3.3447460037127E-02 -2.8308321054640E-02
   158  1.5700000000000E+00 -2.6269206339120E-02 -4.7409289215503E-02
   159  1.5800000000000E+00 -1.9865217735643E-02 -6.3154237535534E-02
   160  1.5900000000000E+00 -1.4230114934736E-02 -7.5676252873815E-02
   161  1.6000000000000E+00 -9.3491749084031E-03 -8.5136350935438E-02
   162  1.6100000000000E+00 -5.1989420888372E-03 -9.1721128095673E-02
   163  1.6200000000000E+00 -1.7479364157241E-03 -9.5640126199609E-02
   164  1.6300000000000E+00  1.0425516486491E-03 -9.7122942606506E-02
   165  1.6400000000000E+00  3.2175900866493E-03 -9.6416120872549E-02
   166  1.6500000000000E+00  4.8276701528916E-03 -9.3779860161251E-02
   167  1.6600000000000E+00  5.9277197166938E-03 -8.9484583702390E-02
   168  1.6700000000000E+00  6.5760783899460E-03 -8.3807408361320E-02
   169  1.6800000000000E+00  6.8334481581652E-03 -7.7028558607569E-02
   170  1.6900000000000E+00  6.7618389034915E-03 -6.9427783569710E-02
   171  1.7000000000000E+00  6.4234642902560E-03 -6.1280661678553E-02
   172  1.7100000000000E+00  5.8798852496379E-03 -5.2855608254813E-02
   173  1.7200000000000E+00  5.1889158042077E-03 -4.4404821605261E-02
   174  1.7300000000000E+00  4.3942496356780E-03 -3.6135458012916E-02
   175  1.7400000000000E+00  3.5488091234836E-03 -2.8272670736019E-02
   176  1.7500000000000E+00  2.7082719272261E-03 -2.1041465470382E-02
   177  1.7600000000000E+00  1.9214339809803E-03 -1.4640013917605E-02
   178  1.7700000000000E+00  1.2306205760996E-03 -9.2403952878482E-03
   179  1.7800000000000E+00  6.7113165700563E-04 -4.9879449899076E-03
   180  1.7900000000000E+00  2.6799976124794E-04 -1.9795710569282E-03
   181  1.8000000000000E+00  4.9351456128359E-05 -3.6379622124817E-04
   182  1.8100000000000E+00 -5.2493995711729E-06  3.8366141301409E-05
   183  1.8200000000000E+00  1.1793529716095E-06 -8.6441068917893E-06
   184  1.83  0.  0.
   185  1.84  0.  0.
   186  1.85  0.  0.
   187  1.86  0.  0.
   188  1.87  0.  0.
   189  1.88  0.  0.
   190  1.89  0.  0.
   191  1.90  0.  0.
   192  1.91  0.  0.
   193  1.92  0.  0.
   194  1.93  0.  0.
   195  1.94  0.  0.
   196  1.95  0.  0.
   197  1.96  0.  0.
   198  1.97  0.  0.
   199  1.98  0.  0.
   200  1.99  0.  0.
   201  2.00  0.  0.
   202  2.01  0.  0.
   203  2.02  0.  0.
   204  2.03  0.  0.
   205  2.04  0.  0.
   206  2.05  0.  0.
   207  2.06  0.  0.
   208  2.07  0.  0.
   209  2.08  0.  0.
   210  2.09  0.  0.
   211  2.10  0.  0.
   212  2.11  0.  0.
   213  2.12  0.  0.
   214  2.13  0.  0.
   215  2.14  0.  0.
   216  2.15  0.  0.
   217  2.16  0.  0.
   218  2.17  0.  0.
   219  2.18  0.  0.
   220  2.19  0.  0.
   221  2.20  0.  0.
   222  2.21  0.  0.
   223  2.22  0.  0.
   224  2.23  0.  0.
   225  2.24  0.  0.
   226  2.25  0.  0.
   227  2.26  0.  0.
   228  2.27  0.  0.
   229  2.28  0.  0.
   230  2.29  0.  0.
   231  2.30  0.  0.
   232  2.31  0.  0.
   233  2.32  0.  0.
   234  2.33  0.  0.
   235  2.34  0.  0.
   236  2.35  0.  0.
   237  2.36  0.  0.
   238  2.37  0.  0.
   239  2.38  0.  0.
   240  2.39  0.  0.
   241  2.40  0.  0.
   242  2.41  0.  0.
   243  2.42  0.  0.
   244  2.43  0.  0.
   245  2.44  0.  0.
   246  2.45  0.  0.
   247  2.46  0.  0.
   248  2.47  0.  0.
   249  2.48  0.  0.
   250  2.49  0.  0.
   251  2.50  0.  0.
   252  2.51  0.  0.
   253  2.52  0.  0.
   254  2.53  0.  0.
   255  2.54  0.  0.
   256  2.55  0.  0.
   257  2.56  0.  0.
   258  2.57  0.  0.
   259  2.58  0.  0.
   260  2.59  0.  0.
   261  2.60  0.  0.
   262  2.61  0.  0.
   263  2.62  0.  0.
   264  2.63  0.  0.
   265  2.64  0.  0.
   266  2.65  0.  0.
   267  2.66  0.  0.
   268  2.67  0.  0.
   269  2.68  0.  0.
   270  2.69  0.  0.
   271  2.70  0.  0.
   272  2.71  0.  0.
   273  2.72  0.  0.
   274  2.73  0.  0.
   275  2.74  0.  0.
   276  2.75  0.  0.
   277  2.76  0.  0.
   278  2.77  0.  0.
   279  2.78  0.  0.
   280  2.79  0.  0.
   281  2.80  0.  0.
   282  2.81  0.  0.
   283  2.82  0.  0.
   284  2.83  0.  0.
   285  2.84  0.  0.
   286  2.85  0.  0.
   287  2.86  0.  0.
   288  2.87  0.  0.
   289  2.88  0.  0.
   290  2.89  0.  0.
   291  2.90  0.  0.
   292  2.91  0.  0.
   293  2.92  0.  0.
   294  2.93  0.  0.
   295  2.94  0.  0.
   296  2.95  0.  0.
   297  2.96  0.  0.
   298  2.97  0.  0.
   299  2.98  0.  0.
   300  2.99  0.  0.
   301  3.00  0.  0.
   302  3.01  0.  0.
   303  3.02  0.  0.
   304  3.03  0.  0.
   305  3.04  0.  0.
   306  3.05  0.  0.
   307  3.06  0.  0.
   308  3.07  0.  0.
   309  3.08  0.  0.
   310  3.09  0.  0.
   311  3.10  0.  0.
   312  3.11  0.  0.
   313  3.12  0.  0.
   314  3.13  0.  0.
   315  3.14  0.  0.
   316  3.15  0.  0.
   317  3.16  0.  0.
   318  3.17  0.  0.
   319  3.18  0.  0.
   320  3.19  0.  0.
   321  3.20  0.  0.
   322  3.21  0.  0.
   323  3.22  0.  0.
   324  3.23  0.  0.
   325  3.24  0.  0.
   326  3.25  0.  0.
   327  3.26  0.  0.
   328  3.27  0.  0.
   329  3.28  0.  0.
   330  3.29  0.  0.
   331  3.30  0.  0.
   332  3.31  0.  0.
   333  3.32  0.  0.
   334  3.33  0.  0.
   335  3.34  0.  0.
   336  3.35  0.  0.
   337  3.36  0.  0.
   338  3.37  0.  0.
   339  3.38  0.  0.
   340  3.39  0.  0.
   341  3.40  0.  0.
   342  3.41  0.  0.
   343  3.42  0.  0.
   344  3.43  0.  0.
   345  3.44  0.  0.
   346  3.45  0.  0.
   347  3.46  0.  0.
   348  3.47  0.  0.
   349  3.48  0.  0.
   350  3.49  0.  0.
   351  3.50  0.  0.
   352  3.51  0.  0.
   353  3.52  0.  0.
   354  3.53  0.  0.
   355  3.54  0.  0.
   356  3.55  0.  0.
   357  3.56  0.  0.
   358  3.57  0.  0.
   359  3.58  0.  0.
   360  3.59  0.  0.
   361  3.60  0.  0.
   362  3.61  0.  0.
   363  3.62  0.  0.
   364  3.63  0.  0.
   365  3.64  0.  0.
   366  3.65  0.  0.
   367  3.66  0.  0.
   368  3.67  0.  0.
   369  3.68  0.  0.
   370  3.69  0.  0.
   371  3.70  0.  0.
   372  3.71  0.  0.
   373  3.72  0.  0.
   374  3.73  0.  0.
   375  3.74  0.  0.
   376  3.75  0.  0.
   377  3.76  0.  0.
   378  3.77  0.  0.
   379  3.78  0.  0.
   380  3.79  0.  0.
   381  3.80  0.  0.
   382  3.81  0.  0.
   383  3.82  0.  0.
   384  3.83  0.  0.
   385  3.84  0.  0.
   386  3.85  0.  0.
   387  3.86  0.  0.
   388  3.87  0.  0.
   389  3.88  0.  0.
   390  3.89  0.  0.
   391  3.90  0.  0.
   392  3.91  0.  0.
   393  3.92  0.  0.
   394  3.93  0.  0.
   395  3.94  0.  0.
   396  3.95  0.  0.
   397  3.96  0.  0.
   398  3.97  0.  0.
   399  3.98  0.  0.
   400  3.99  0.  0.
   401  4.00  0.  0.
   402  4.01  0.  0.
   403  4.02  0.  0.
   404  4.03  0.  0.
   405  4.04  0.  0.
   406  4.05  0.  0.
   407  4.06  0.  0.
   408  4.07  0.  0.
   409  4.08  0.  0.
   410  4.09  0.  0.
   411  4.10  0.  0.
   412  4.11  0.  0.
   413  4.12  0.  0.
   414  4.13  0.  0.
   415  4.14  0.  0.
   416  4.15  0.  0.
   417  4.16  0.  0.
   418  4.17  0.  0.
   419  4.18  0.  0.
   420  4.19  0.  0.
   421  4.20  0.  0.
   422  4.21  0.  0.
   423  4.22  0.  0.
   424  4.23  0.  0.
   425  4.24  0.  0.
   426  4.25  0.  0.
   427  4.26  0.  0.
   428  4.27  0.  0.
   429  4.28  0.  0.
   430  4.29  0.  0.
   431  4.30  0.  0.
   432  4.31  0.  0.
   433  4.32  0.  0.
   434  4.33  0.  0.
   435  4.34  0.  0.
   436  4.35  0.  0.
   437  4.36  0.  0.
   438  4.37  0.  0.
   439  4.38  0.  0.
   440  4.39  0.  0.
   441  4.40  0.  0.
   442  4.41  0.  0.
   443  4.42  0.  0.
   444  4.43  0.  0.
   445  4.44  0.  0.
   446  4.45  0.  0.
   447  4.46  0.  0.
   448  4.47  0.  0.
   449  4.48  0.  0.
   450  4.49  0.  0.
   451  4.50  0.  0.
   452  4.51  0.  0.
   453  4.52  0.  0.
   454  4.53  0.  0.
   455  4.54  0.  0.
   456  4.55  0.  0.
   457  4.56  0.  0.
   458  4.57  0.  0.
   459  4.58  0.  0.
   460  4.59  0.  0.
   461  4.60  0.  0.
   462  4.61  0.  0.
   463  4.62  0.  0.
   464  4.63  0.  0.
   465  4.64  0.  0.
   466  4.65  0.  0.
   467  4.66  0.  0.
   468  4.67  0.  0.
   469  4.68  0.  0.
   470  4.69  0.  0.
   471  4.70  0.  0.
   472  4.71  0.  0.
   473  4.72  0.  0.
   474  4.73  0.  0.
   475  4.74  0.  0.
   476  4.75  0.  0.
   477  4.76  0.  0.
   478  4.77  0.  0.
   479  4.78  0.  0.
   480  4.79  0.  0.
   481  4.80  0.  0.
   482  4.81  0.  0.
   483  4.82  0.  0.
   484  4.83  0.  0.
   485  4.84  0.  0.
   486  4.85  0.  0.
   487  4.86  0.  0.
   488  4.87  0.  0.
   489  4.88  0.  0.
   490  4.89  0.  0.
   491  4.90  0.  0.
   492  4.91  0.  0.
   493  4.92  0.  0.
   494  4.93  0.  0.
   495  4.94  0.  0.
   496  4.95  0.  0.
   497  4.96  0.  0.
   498  4.97  0.  0.
   499  4.98  0.  0.
   500  4.99  0.  0.
   501  5.00  0.  0.
   502  5.01  0.  0.
   503  5.02  0.  0.
   504  5.03  0.  0.
   505  5.04  0.  0.
   506  5.05  0.  0.
   507  5.06  0.  0.
   508  5.07  0.  0.
   509  5.08  0.  0.
   510  5.09  0.  0.
   511  5.10  0.  0.
   512  5.11  0.  0.
   513  5.12  0.  0.
   514  5.13  0.  0.
   515  5.14  0.  0.
   516  5.15  0.  0.
   517  5.16  0.  0.
   518  5.17  0.  0.
   519  5.18  0.  0.
   520  5.19  0.  0.
   521  5.20  0.  0.
   522  5.21  0.  0.
   523  5.22  0.  0.
   524  5.23  0.  0.
   525  5.24  0.  0.
   526  5.25  0.  0.
   527  5.26  0.  0.
   528  5.27  0.  0.
   529  5.28  0.  0.
   530  5.29  0.  0.
   531  5.30  0.  0.
   532  5.31  0.  0.
   533  5.32  0.  0.
   534  5.33  0.  0.
   535  5.34  0.  0.
   536  5.35  0.  0.
   537  5.36  0.  0.
   538  5.37  0.  0.
   539  5.38  0.  0.
   540  5.39  0.  0.
   541  5.40  0.  0.
   542  5.41  0.  0.
   543  5.42  0.  0.
   544  5.43  0.  0.
   545  5.44  0.  0.
   546  5.45  0.  0.
   547  5.46  0.  0.
   548  5.47  0.  0.
   549  5.48  0.  0.
   550  5.49  0.  0.
   551  5.50  0.  0.
   552  5.51  0.  0.
   553  5.52  0.  0.
   554  5.53  0.  0.
   555  5.54  0.  0.
   556  5.55  0.  0.
   557  5.56  0.  0.
   558  5.57  0.  0.
   559  5.58  0.  0.
   560  5.59  0.  0.
   561  5.60  0.  0.
   562  5.61  0.  0.
   563  5.62  0.  0.
   564  5.63  0.  0.
   565  5.64  0.  0.
   566  5.65  0.  0.
   567  5.66  0.  0.
   568  5.67  0.  0.
   569  5.68  0.  0.
   570  5.69  0.  0.
   571  5.70  0.  0.
   572  5.71  0.  0.
   573  5.72  0.  0.
   574  5.73  0.  0.
   575  5.74  0.  0.
   576  5.75  0.  0.
   577  5.76  0.  0.
   578  5.77  0.  0.
   579  5.78  0.  0.
   580  5.79  0.  0.
   581  5.80  0.  0.
   582  5.81  0.  0.
   583  5.82  0.  0.
   584  5.83  0.  0.
   585  5.84  0.  0.
   586  5.85  0.  0.
   587  5.86  0.  0.
   588  5.87  0.  0.
   589  5.88  0.  0.
   590  5.89  0.  0.
   591  5.90  0.  0.
   592  5.91  0.  0.
   593  5.92  0.  0.
   594  5.93  0.  0.
   595  5.94  0.  0.
   596  5.95  0.  0.
   597  5.96  0.  0.
   598  5.97  0.  0.
   599  5.98  0.  0.
   600  5.99  0.  0.
   1                         6.3553039378334E+00  1.1990714569041E+00  1.0365674518826E-02
     1  0.0000000000000E+00  3.5322971575491E-08 -4.7604091238385E-08 -2.9341474069855E-08
     2  1.0000000000000E-02  1.5494586317327E-03 -1.4625189390178E-03  3.9107043399955E-04
     3  2.0000000000000E-02  6.1613794377542E-03 -5.8019899844319E-03  1.5894908749243E-03
     4  3.0000000000000E-02  1.3727309413908E-02 -1.2875378045874E-02  3.6701411379953E-03
     5  4.0000000000000E-02  2.4069512988943E-02 -2.2448336450628E-02  6.7553467051448E-03
     6  5.0000000000000E-02  3.6945426616143E-02 -3.4201174040070E-02  1.1011229291435E-02
     7  6.0000000000000E-02  5.2053747816426E-02 -4.7737010225652E-02  1.6642719964606E-02
     8  7.0000000000000E-02  6.9042015305068E-02 -6.2591924582248E-02  2.3887353824503E-02
     9  8.0000000000000E-02  8.7515501511281E-02 -7.8246859952645E-02  3.3007994590636E-02
    10  9.0000000000000E-02  1.0704720753363E-01 -9.4140995941478E-02  4.4284663433558E-02
    11  1.0000000000000E-01  1.2718872407952E-01 -1.0968627405931E-01  5.8005668428606E-02
    12  1.1000000000000E-01  1.4748170082218E-01 -1.2428272746176E-01  7.4458248602898E-02
    13  1.2000000000000E-01  1.6746965136283E-01 -1.3733424787650E-01  9.3918959282976E-02
    14  1.3000000000000E-01  1.8670981196834E-01 -1.4826441040523E-01  1.1664403303082E-01
    15  1.4000000000000E-01  2.0478476968486E-01 -1.5653197372378E-01  1.4285995269675E-01
    16  1.5000000000000E-01  2.2131357938345E-01 -1.6164567887840E-01  1.7275446995032E-01
    17  1.6000000000000E-01  2.3596209970394E-01 -1.6317798429163E-01  2.0646829412787E-01
    18  1.7000000000000E-01  2.4845229451545E-01 -1.6077739744763E-01  2.4408766253323E-01
    19  1.8000000000000E-01  2.5857026905188E-01 -1.5417909453901E-01  2.8563798472943E-01
    20  1.9000000000000E-01  2.6617283782122E-01 -1.4321355745518E-01  3.3107873026552E-01
    21  2.0000000000000E-01  2.7119245412074E-01 -1.2781300204189E-01  3.8029970219074E-01
    22  2.1000000000000E-01  2.7364036779704E-01 -1.0801542158118E-01  4.3311880820737E-01
    23  2.2000000000000E-01  2.7360791795919E-01 -8.3966123819684E-02  4.8928140807222E-01
    24  2.3000000000000E-01  2.7126590979678E-01 -5.5916697400145E-02  5.4846128060240E-01
    25  2.4000000000000E-01  2.6686206852825E-01 -2.4221402937170E-02  6.1026321715635E-01
    26  2.5000000000000E-01  2.6071660782726E-01  1.0668956112476E-02  6.7422721155051E-01
    27  2.6000000000000E-01  2.5321599385152E-01  4.8215568556276E-02  7.3983417986023E-01
    28  2.7000000000000E-01  2.4480502824086E-01  8.7802385416439E-02  8.0651310825805E-01
    29  2.8000000000000E-01  2.3597741320147E-01  1.2874890016361E-01  8.7364949375487E-01
    30  2.9000000000000E-01  2.2726499814229E-01  1.7032466595160E-01  9.4059491218751E-01
    31  3.0000000000000E-01  2.1922593944062E-01  2.1176523368969E-01  1.0066775207340E+00
    32  3.1000000000000E-01  2.1243203203878E-01  2.5228915875654E-01  1.0712132792610E+00
    33  3.2000000000000E-01  2.0745549307098E-01  2.9111569583973E-01  1.1335176564546E+00
    34  3.3000000000000E-01  2.0485549306909E-01  3.2748278147156E-01  1.1929175733941E+00
    35  3.4000000000000E-01  2.0516473911062E-01  3.6066489283953E-01  1.2487633293293E+00
    36  3.5000000000000E-01  2.0887641630772E-01  3.8999036969552E-01  1.3004402521276E+00
    37  3.6000000000000E-01  2.1643178919628E-01  4.1485779378439E-01  1.3473798192611E+00
    38  3.7000000000000E-01  2.2820875292518E-01  4.3475103706793E-01  1.3890700042712E+00
    39  3.8000000000000E-01  2.4451160587494E-01  4.4925261583281E-01  1.4250646182179E+00
    40  3.9000000000000E-01  2.6556229080675E-01  4.5805502203919E-01  1.4549914354205E+00
    41  4.0000000000000E-01  2.9149332135338E-01  4.6096974529736E-01  1.4785589174214E+00
    42  4.1000000000000E-01  3.2234257523899E-01  4.5793374778110E-01  1.4955613780519E+00
    43  4.2000000000000E-01  3.5805009579968E-01  4.4901320916744E-01  1.5058824651490E+00
    44  4.3000000000000E-01  3.9845700001852E-01  4.3440441816405E-01  1.5094968701675E+00
    45  4.4000000000000E-01  4.4330654531755E-01  4.1443175006435E-01  1.5064702149001E+00
    46  4.5000000000000E-01  4.9224735976254E-01  3.8954273468765E-01  1.4969571039341E+00
    47  4.6000000000000E-01  5.4483879217236E-01  3.6030028459168E-01  1.4811973714935E+00
    48  4.7000000000000E-01  6.0055829094445E-01  3.2737221813580E-01  1.4595105910556E+00
    49  4.8000000000000E-01  6.5881067426895E-01  2.9151827437937E-01  1.4322889547262E+00
    50  4.9000000000000E-01  7.1893911083982E-01  2.5357487551326E-01  1.3999886659420E+00
    51  5.0000000000000E-01  7.8023759016548E-01  2.1443794620335E-01  1.3631200228371E+00
    52  5.1000000000000E-01  8.4196462605047E-01  1.7504414663358E-01  1.3222363997845E+00
    53  5.2000000000000E-01  9.0335790658655E-01  1.3635091605682E-01  1.2779223605186E+00
    54  5.3000000000000E-01  9.6364957977236E-01  9.9315755334794E-02  1.2307811572638E+00
    55  5.4000000000000E-01  1.0220818462652E+00  6.4875199484278E-02  1.1814218859148E+00
    56  5.5000000000000E-01  1.0779225202069E+00  3.3923944052711E-02  1.1304465771725E+00
    57  5.6000000000000E-01  1.1304802158589E+00  7.2945918348981E-03  1.0784375073435E+00
    58  5.7000000000000E-01  1.1791188220695E+00 -1.4261521154160E-02  1.0259450101428E+00
    59  5.8000000000000E-01  1.2232709383630E+00 -3.0091979362358E-02  9.7347606227869E-01
    60  5.9000000000000E-01  1.2624499654967E+00 -3.9659007729112E-02  9.2148390098659E-01
    61  6.0000000000000E-01  1.2962605693382E+00 -4.2552881977332E-02  8.7035891126593E-01
    62  6.1000000000000E-01  1.3244072693728E+00 -3.8502699053674E-02  8.2042099476159E-01
    63  6.2000000000000E-01  1.3467009414081E+00 -2.7384231398629E-02  7.7191360152116E-01
    64  6.3000000000000E-01  1.3630630673403E+00 -9.2246492648021E-03  7.2499957087405E-01
    65  6.4000000000000E-01  1.3735276122693E+00  1.5796038669156E-02  6.7975888914252E-01
    66  6.5000000000000E-01  1.3782404598300E+00  4.7346905999792E-02  6.3618843060191E-01
    67  6.6000000000000E-01  1.3774563892581E+00  8.4951397456184E-02  5.9420370493481E-01
    68  6.7000000000000E-01  1.3715336313164E+00  1.2799591890974E-01  5.5364259028454E-01
    69  6.8000000000000E-01  1.3609260936154E+00  1.7574158821567E-01  5.1427098685793E-01
    70  6.9000000000000E-01  1.3461733979074E+00  2.2733893536729E-01  4.7579028280865E-01
    71  7.0000000000000E-01  1.3278889214689E+00  2.8184527294903E-01  4.3784648280142E-01
    72  7.1000000000000E-01  1.3067460806230E+00  3.3824439557770E-01  4.0004081111977E-01
    73  7.2000000000000E-01  1.2834631357410E+00  3.9546821134981E-01  3.6194156630811E-01
    74  7.3000000000000E-01  1.2587868327773E+00  4.5241986053494E-01  3.2309697391179E-01
    75  7.4000000000000E-01  1.2334752256850E+00  5.0799783801354E-01  2.8304875861392E-01
    76  7.5000000000000E-01  1.2082800462411E+00  5.6112060718361E-01  2.4134613755146E-01
    77  7.6000000000000E-01  1.1839290023181E+00  6.1075117500280E-01  1.9755992331626E-01
    78  7.7000000000000E-01  1.1611083920817E+00  6.5592109100397E-01  1.5129641845935E-01
    79  7.8000000000000E-01  1.1404464197433E+00  6.9575333780309E-01  1.0221078343064E-01
    80  7.9000000000000E-01  1.1224975883013E+00  7.2948359684862E-01  5.0019566879307E-02
    81  8.0000000000000E-01  1.1077285262971E+00  7.5647940072591E-01 -5.4878989699512E-03
    82  8.1000000000000E-01  1.0965055792955E+00  7.7625672177549E-01 -6.4439514777267E-02
    83  8.2000000000000E-01  1.0890844630489E+00  7.8849359541340E-01 -1.2687209271057E-01
    84  8.3000000000000E-01  1.0856022347731E+00  7.9304043443621E-01 -1.9272491525646E-01
    85  8.4000000000000E-01  1.0860717924321E+00  7.8992675662406E-01 -2.6183535484979E-01
    86  8.5000000000000E-01  1.0903790603351E+00  7.7936412080729E-01 -3.3393669321747E-01
    87  8.6000000000000E-01  1.0982829637433E+00  7.6174514476283E-01 -4.0865823408463E-01