Se    ONCVPSP-4.0.1  r_core=   1.80690   1.50106   1.90685
     34.0000     16.0000      250217    zatom,zion,pspd
     8       2   2     4   600     0    pspcod,pspxc,lmax,lloc,mmax,r2well
  5.99000000  5.00000000  0.00000000    rchrg fchrg qchrg
     2     3     2     0    nproj
     3     1           extension_switch
     3     3     0    nprojso
   0                         8.3691077653336E+00  9.1453709171940E-01
     1  0.0000000000000E+00  4.9555654024758E-10 -1.2923148176580E-09
     2  1.0000000000000E-02  2.9056841134120E-02 -4.1487064065513E-03
     3  2.0000000000000E-02  5.8156811313195E-02 -8.4107249562178E-03
     4  3.0000000000000E-02  8.7342244773953E-02 -1.2897503608426E-02
     5  4.0000000000000E-02  1.1665389623014E-01 -1.7716787252182E-02
     6  5.0000000000000E-02  1.4613017621682E-01 -2.2970829079507E-02
     7  6.0000000000000E-02  1.7580641620515E-01 -2.8754676519024E-02
     8  7.0000000000000E-02  2.0571417282185E-01 -3.5154555045546E-02
     9  8.0000000000000E-02  2.3588058001201E-01 -4.2246371889235E-02
    10  9.0000000000000E-02  2.6632775737614E-01 -5.0094360083905E-02
    11  1.0000000000000E-01  2.9707228220041E-01 -5.8749881439160E-02
    12  1.1000000000000E-01  3.2812473189128E-01 -6.8250404918816E-02
    13  1.2000000000000E-01  3.5948930263286E-01 -7.8618674585972E-02
    14  1.3000000000000E-01  3.9116350911838E-01 -8.9862078763048E-02
    15  1.4000000000000E-01  4.2313796917838E-01 -1.0197222938562E-01
    16  1.5000000000000E-01  4.5539627605048E-01 -1.1492475773673E-01
    17  1.6000000000000E-01  4.8791495992273E-01 -1.2867932986955E-01
    18  1.7000000000000E-01  5.2066353924844E-01 -1.4317988209873E-01
    19  1.8000000000000E-01  5.5360466118974E-01 -1.5835507400201E-01
    20  1.9000000000000E-01  5.8669432941359E-01 -1.7411895346279E-01
    21  2.0000000000000E-01  6.1988221635360E-01 -1.9037182543916E-01
    22  2.1000000000000E-01  6.5311205597556E-01 -2.0700131340239E-01
    23  2.2000000000000E-01  6.8632211206040E-01 -2.2388359978569E-01
    24  2.3000000000000E-01  7.1944571605638E-01 -2.4088482935408E-01
    25  2.4000000000000E-01  7.5241186766621E-01 -2.5786265718436E-01
    26  2.5000000000000E-01  7.8514589053552E-01 -2.7466792095615E-01
    27  2.6000000000000E-01  8.1757013470697E-01 -2.9114641553152E-01
    28  2.7000000000000E-01  8.4960471690865E-01 -3.0714074636249E-01
    29  2.8000000000000E-01  8.8116828926388E-01 -3.2249223713405E-01
    30  2.9000000000000E-01  9.1217882664857E-01 -3.3704286624092E-01
    31  3.0000000000000E-01  9.4255442268675E-01 -3.5063720622135E-01
    32  3.1000000000000E-01  9.7221408426831E-01 -3.6312434013734E-01
    33  3.2000000000000E-01  1.0010785144963E+00 -3.7435972910287E-01
    34  3.3000000000000E-01  1.0290708741259E+00 -3.8420700571703E-01
    35  3.4000000000000E-01  1.0561175118390E+00 -3.9253966905261E-01
    36  3.5000000000000E-01  1.0821486541080E+00 -3.9924265807244E-01
    37  3.6000000000000E-01  1.1070990459299E+00 -4.0421378188118E-01
    38  3.7000000000000E-01  1.1309085343573E+00 -4.0736498705039E-01
    39  3.8000000000000E-01  1.1535225874982E+00 -4.0862344435789E-01
    40  3.9000000000000E-01  1.1748927425070E+00 -4.0793243963096E-01
    41  4.0000000000000E-01  1.1949769770190E+00 -4.0525205594939E-01
    42  4.1000000000000E-01  1.2137399994876E+00 -4.0055963721388E-01
    43  4.2000000000000E-01  1.2311534549526E+00 -3.9385002598466E-01
    44  4.3000000000000E-01  1.2471960438847E+00 -3.8513557150582E-01
    45  4.4000000000000E-01  1.2618535529016E+00 -3.7444590691407E-01
    46  4.5000000000000E-01  1.2751187973196E+00 -3.6182749774700E-01
    47  4.6000000000000E-01  1.2869914766806E+00 -3.4734296697275E-01
    48  4.7000000000000E-01  1.2974779455532E+00 -3.3107020482143E-01
    49  4.8000000000000E-01  1.3065909030439E+00 -3.1310127466592E-01
    50  4.9000000000000E-01  1.3143490055495E+00 -2.9354112903737E-01
    51  5.0000000000000E-01  1.3207764083173E+00 -2.7250615252972E-01
    52  5.1000000000000E-01  1.3259022423498E+00 -2.5012255081133E-01
    53  5.2000000000000E-01  1.3297600340781E+00 -2.2652460718688E-01
    54  5.3000000000000E-01  1.3323870760154E+00 -2.0185283010662E-01
    55  5.4000000000000E-01  1.3338237572906E+00 -1.7625201667643E-01
    56  5.5000000000000E-01  1.3341128635329E+00 -1.4986925855484E-01
    57  5.6000000000000E-01  1.3332988560220E+00 -1.2285191761407E-01
    58  5.7000000000000E-01  1.3314271403410E+00 -9.5345599373072E-02
    59  5.8000000000000E-01  1.3285433349472E+00 -6.7492152471884E-02
    60  5.9000000000000E-01  1.3246925501241E+00 -3.9427722340798E-02
    61  6.0000000000000E-01  1.3199186876820E+00 -1.1280886723422E-02
    62  6.1000000000000E-01  1.3142637715404E+00  1.6829100157438E-02
    63  6.2000000000000E-01  1.3077673189559E+00  4.4793929238980E-02
    64  6.3000000000000E-01  1.3004657616558E+00  7.2517700102903E-02
    65  6.4000000000000E-01  1.2923919255044E+00  9.9918204273122E-02
    66  6.5000000000000E-01  1.2835745765819E+00  1.2692800853751E-01
    67  6.6000000000000E-01  1.2740380406899E+00  1.5349532103434E-01
    68  6.7000000000000E-01  1.2638019023400E+00  1.7958462563164E-01
    69  6.8000000000000E-01  1.2528807882254E+00  2.0517707313695E-01
    70  6.9000000000000E-01  1.2412842390554E+00  2.3027062107016E-01
    71  7.0000000000000E-01  1.2290166724406E+00  2.5487991707171E-01
    72  7.1000000000000E-01  1.2160774382858E+00  2.7903592446014E-01
    73  7.2000000000000E-01  1.2024609668826E+00  3.0278529195250E-01
    74  7.3000000000000E-01  1.1881570086165E+00  3.2618947307301E-01
    75  7.4000000000000E-01  1.1731509629287E+00  3.4932360425335E-01
    76  7.5000000000000E-01  1.1574242929161E+00  3.7227515402528E-01
    77  7.6000000000000E-01  1.1409550207358E+00  3.9514235897886E-01
    78  7.7000000000000E-01  1.1237182978109E+00  4.1803246526107E-01
    79  7.8000000000000E-01  1.1056870427388E+00  4.4105979727907E-01
    80  7.9000000000000E-01  1.0868326387838E+00  4.6434367790841E-01
    81  8.0000000000000E-01  1.0671256819221E+00  4.8800622685224E-01
    82  8.1000000000000E-01  1.0465367695950E+00  5.1217006581941E-01
    83  8.2000000000000E-01  1.0250373196419E+00  5.3695596085560E-01
    84  8.3000000000000E-01  1.0026004083298E+00  5.6248043344932E-01
    85  8.4000000000000E-01  9.7920161598081E-01  5.8885337291911E-01
    86  8.5000000000000E-01  9.5481986843218E-01  6.1617568305741E-01
    87  8.6000000000000E-01  9.2943826244708E-01  6.4453699604573E-01
    88  8.7000000000000E-01  9.0304486323430E-01  6.7401348626294E-01
    89  8.8000000000000E-01  8.7563346242861E-01  7.0466581578157E-01
    90  8.9000000000000E-01  8.4720428523342E-01  7.3653724209317E-01
    91  9.0000000000000E-01  8.1776463592787E-01  7.6965191693446E-01
    92  9.1000000000000E-01  7.8732947158779E-01  8.0401340301738E-01
    93  9.2000000000000E-01  7.5592189465649E-01  8.3960343302187E-01
    94  9.3000000000000E-01  7.2357355591864E-01  8.7638093241685E-01
    95  9.4000000000000E-01  6.9032496046741E-01  9.1428132456522E-01
    96  9.5000000000000E-01  6.5622567040004E-01  9.5321613317928E-01
    97  9.6000000000000E-01  6.2133439921506E-01  9.9307289356507E-01
    98  9.7000000000000E-01  5.8571899420224E-01  1.0337153802710E+00
    99  9.8000000000000E-01  5.4945630449570E-01  1.0749841547862E+00
   100  9.9000000000000E-01  5.1263193388600E-01  1.1166974328655E+00
   101  1.0000000000000E+00  4.7533987893909E-01  1.1586522669449E+00
   102  1.0100000000000E+00  4.3768205443182E-01  1.2006260350020E+00
   103  1.0200000000000E+00  3.9976770956556E-01  1.2423782231660E+00
   104  1.0300000000000E+00  3.6171273984232E-01  1.2836524854470E+00
   105  1.0400000000000E+00  3.2363890086467E-01  1.3241789601764E+00
   106  1.0500000000000E+00  2.8567293163291E-01  1.3636768191913E+00
   107  1.0600000000000E+00  2.4794559614109E-01  1.4018570224978E+00
   108  1.0700000000000E+00  2.1059065320612E-01  1.4384252481506E+00
   109  1.0800000000000E+00  1.7374376548017E-01  1.4730849644443E+00
   110  1.0900000000000E+00  1.3754135948649E-01  1.5055406092491E+00
   111  1.1000000000000E+00  1.0211944926872E-01  1.5355008394797E+00
   112  1.1100000000000E+00  6.7612436841832E-02  1.5626818122906E+00
   113  1.1200000000000E+00  3.4151903073406E-02  1.5868104586543E+00
   114  1.1300000000000E+00  1.8654028965244E-03  1.6076277095387E+00
   115  1.1400000000000E+00 -2.9124721141462E-02  1.6248916349389E+00
   116  1.1500000000000E+00 -5.8702493060392E-02  1.6383804565671E+00
   117  1.1600000000000E+00 -8.6759411670908E-02  1.6478953960440E+00
   118  1.1700000000000E+00 -1.1319549956574E-01  1.6532633219536E+00
   119  1.1800000000000E+00 -1.3792028019143E-01  1.6543391611353E+00
   120  1.1900000000000E+00 -1.6085367105441E-01  1.6510080420171E+00
   121  1.2000000000000E+00 -1.8192678201686E-01  1.6431871406823E+00
   122  1.2100000000000E+00 -2.0108260867594E-01  1.6308272036135E+00
   123  1.2200000000000E+00 -2.1827661199054E-01  1.6139137246730E+00
   124  1.2300000000000E+00 -2.3347717660983E-01  1.5924677578152E+00
   125  1.2400000000000E+00 -2.4666594173887E-01  1.5665463511939E+00
   126  1.2500000000000E+00 -2.5783799985426E-01  1.5362425927481E+00
   127  1.2600000000000E+00 -2.6700196011629E-01  1.5016852618996E+00
   128  1.2700000000000E+00 -2.7417987490404E-01  1.4630380866500E+00
   129  1.2800000000000E+00 -2.7940702951601E-01  1.4204986100865E+00
   130  1.2900000000000E+00 -2.8273159669127E-01  1.3742966749889E+00
   131  1.3000000000000E+00 -2.8421415920663E-01  1.3246925398423E+00
   132  1.3100000000000E+00 -2.8392710538035E-01  1.2719746440656E+00
   133  1.3200000000000E+00 -2.8195390382454E-01  1.2164570445558E+00
   134  1.3300000000000E+00 -2.7838826522823E-01  1.1584765496993E+00
   135  1.3400000000000E+00 -2.7333320030964E-01  1.0983895807786E+00
   136  1.3500000000000E+00 -2.6689998431529E-01  1.0365687941122E+00
   137  1.3600000000000E+00 -2.5920703956287E-01  9.7339950029861E-01
   138  1.3700000000000E+00 -2.5037874850220E-01  9.0927591953619E-01
   139  1.3800000000000E+00 -2.4054421060066E-01  8.4459731413837E-01
   140  1.3900000000000E+00 -2.2983595702230E-01  7.7976404100871E-01
   141  1.4000000000000E+00 -2.1838863756625E-01  7.1517356797847E-01
   142  1.4100000000000E+00 -2.0633769464859E-01  6.5121649851766E-01
   143  1.4200000000000E+00 -1.9381803924860E-01  5.8827264939924E-01
   144  1.4300000000000E+00 -1.8096274369422E-01  5.2670722542156E-01
   145  1.4400000000000E+00 -1.6790176593225E-01  4.6686713428420E-01
   146  1.4500000000000E+00 -1.5476071951964E-01  4.0907748317336E-01
   147  1.4600000000000E+00 -1.4165970298890E-01  3.5363829656729E-01
   148  1.4700000000000E+00 -1.2871220149014E-01  3.0082149224598E-01
   149  1.4800000000000E+00 -1.1602407266110E-01  2.5086814922468E-01
   150  1.4900000000000E+00 -1.0369262774502E-01  2.0398609881774E-01
   151  1.5000000000000E+00 -9.1805818716410E-02  1.6034787212383E-01
   152  1.5100000000000E+00 -8.0441551694517E-02  1.2008910811249E-01
   153  1.5200000000000E+00 -6.9667395192595E-02  8.3309170394726E-02
   154  1.5300000000000E+00 -5.9540522144035E-02  5.0072696554544E-02
   155  1.5400000000000E+00 -5.0107520794890E-02  2.0409663886601E-02
   156  1.5500000000000E+00 -4.1404290028806E-02 -5.6844491882555E-03
   157  1.5600000000000E+00 -3.3456063355724E-02 -2.8248099459708E-02
   158  1.5700000000000E+00 -2.6277559186706E-02 -4.7352726655475E-02
   159  1.5800000000000E+00 -1.9873254547203E-02 -6.3101423346663E-02
   160  1.5900000000000E+00 -1.4237777699297E-02 -7.5627243462488E-02
   161  1.6000000000000E+00 -9.3564136847616E-03 -8.5091170143611E-02
   162  1.6100000000000E+00 -5.2057154029892E-03 -9.1679767824085E-02
   163  1.6200000000000E+00 -1.7542115344561E-03 -9.5602547293353E-02
   164  1.6300000000000E+00  1.0367985723018E-03 -9.7089076005003E-02
   165  1.6400000000000E+00  3.2123739990854E-03 -9.6385869023390E-02
   166  1.6500000000000E+00  4.8229972182890E-03 -9.3753098694424E-02
   167  1.6600000000000E+00  5.9235875682115E-03 -8.9461163358868E-02
   168  1.6700000000000E+00  6.5724765124445E-03 -8.3787157167072E-02
   169  1.6800000000000E+00  6.8303583996782E-03 -7.7011284281385E-02
   170  1.6900000000000E+00  6.7592361119395E-03 -6.9413276153668E-02
   171  1.7000000000000E+00  6.4213170629723E-03 -6.1268696344375E-02
   172  1.7100000000000E+00  5.8781568159524E-03 -5.2845948391304E-02
   173  1.7200000000000E+00  5.1875647507449E-03 -4.4397220905346E-02
   174  1.7300000000000E+00  4.3932293052052E-03 -3.6129656851821E-02
   175  1.7400000000000E+00  3.5480703213036E-03 -2.8268406649493E-02
   176  1.7500000000000E+00  2.7077652246701E-03 -2.1038481148604E-02
   177  1.7600000000000E+00  1.9211109586400E-03 -1.4638060289083E-02
   178  1.7700000000000E+00  1.2304352010849E-03 -9.2392351195043E-03
   179  1.7800000000000E+00  6.7104161147118E-04 -4.9873561031452E-03
   180  1.7900000000000E+00  2.6796796476869E-04 -1.9793512762377E-03
   181  1.8000000000000E+00  4.9346341532209E-05 -3.6375828276844E-04
   182  1.8100000000000E+00 -5.2489725543716E-06  3.8362506643799E-05
   183  1.8200000000000E+00  1.1792436584026E-06 -8.6432462472830E-06
   184  1.83  0.  0.
   185  1.84  0.  0.
   186  1.85  0.  0.
   187  1.86  0.  0.
   188  1.87  0.  0.
   189  1.88  0.  0.
   190  1.89  0.  0.
   191  1.90  0.  0.
   192  1.91  0.  0.
   193  1.92  0.  0.
   194  1.93  0.  0.
   195  1.94  0.  0.
   196  1.95  0.  0.
   197  1.96  0.  0.
   198  1.97  0.  0.
   199  1.98  0.  0.
   200  1.99  0.  0.
   201  2.00  0.  0.
   202  2.01  0.  0.
   203  2.02  0.  0.
   204  2.03  0.  0.
   205  2.04  0.  0.
   206  2.05  0.  0.
   207  2.06  0.  0.
   208  2.07  0.  0.
   209  2.08  0.  0.
   210  2.09  0.  0.
   211  2.10  0.  0.
   212  2.11  0.  0.
   213  2.12  0.  0.
   214  2.13  0.  0.
   215  2.14  0.  0.
   216  2.15  0.  0.
   217  2.16  0.  0.
   218  2.17  0.  0.
   219  2.18  0.  0.
   220  2.19  0.  0.
   221  2.20  0.  0.
   222  2.21  0.  0.
   223  2.22  0.  0.
   224  2.23  0.  0.
   225  2.24  0.  0.
   226  2.25  0.  0.
   227  2.26  0.  0.
   228  2.27  0.  0.
   229  2.28  0.  0.
   230  2.29  0.  0.
   231  2.30  0.  0.
   232  2.31  0.  0.
   233  2.32  0.  0.
   234  2.33  0.  0.
   235  2.34  0.  0.
   236  2.35  0.  0.
   237  2.36  0.  0.
   238  2.37  0.  0.
   239  2.38  0.  0.
   240  2.39  0.  0.
   241  2.40  0.  0.
   242  2.41  0.  0.
   243  2.42  0.  0.
   244  2.43  0.  0.
   245  2.44  0.  0.
   246  2.45  0.  0.
   247  2.46  0.  0.
   248  2.47  0.  0.
   249  2.48  0.  0.
   250  2.49  0.  0.
   251  2.50  0.  0.
   252  2.51  0.  0.
   253  2.52  0.  0.
   254  2.53  0.  0.
   255  2.54  0.  0.
   256  2.55  0.  0.
   257  2.56  0.  0.
   258  2.57  0.  0.
   259  2.58  0.  0.
   260  2.59  0.  0.
   261  2.60  0.  0.
   262  2.61  0.  0.
   263  2.62  0.  0.
   264  2.63  0.  0.
   265  2.64  0.  0.
   266  2.65  0.  0.
   267  2.66  0.  0.
   268  2.67  0.  0.
   269  2.68  0.  0.
   270  2.69  0.  0.
   271  2.70  0.  0.
   272  2.71  0.  0.
   273  2.72  0.  0.
   274  2.73  0.  0.
   275  2.74  0.  0.
   276  2.75  0.  0.
   277  2.76  0.  0.
   278  2.77  0.  0.
   279  2.78  0.  0.
   280  2.79  0.  0.
   281  2.80  0.  0.
   282  2.81  0.  0.
   283  2.82  0.  0.
   284  2.83  0.  0.
   285  2.84  0.  0.
   286  2.85  0.  0.
   287  2.86  0.  0.
   288  2.87  0.  0.
   289  2.88  0.  0.
   290  2.89  0.  0.
   291  2.90  0.  0.
   292  2.91  0.  0.
   293  2.92  0.  0.
   294  2.93  0.  0.
   295  2.94  0.  0.
   296  2.95  0.  0.
   297  2.96  0.  0.
   298  2.97  0.  0.
   299  2.98  0.  0.
   300  2.99  0.  0.
   301  3.00  0.  0.
   302  3.01  0.  0.
   303  3.02  0.  0.
   304  3.03  0.  0.
   305  3.04  0.  0.
   306  3.05  0.  0.
   307  3.06  0.  0.
   308  3.07  0.  0.
   309  3.08  0.  0.
   310  3.09  0.  0.
   311  3.10  0.  0.
   312  3.11  0.  0.
   313  3.12  0.  0.
   314  3.13  0.  0.
   315  3.14  0.  0.
   316  3.15  0.  0.
   317  3.16  0.  0.
   318  3.17  0.  0.
   319  3.18  0.  0.
   320  3.19  0.  0.
   321  3.20  0.  0.
   322  3.21  0.  0.
   323  3.22  0.  0.
   324  3.23  0.  0.
   325  3.24  0.  0.
   326  3.25  0.  0.
   327  3.26  0.  0.
   328  3.27  0.  0.
   329  3.28  0.  0.
   330  3.29  0.  0.
   331  3.30  0.  0.
   332  3.31  0.  0.
   333  3.32  0.  0.
   334  3.33  0.  0.
   335  3.34  0.  0.
   336  3.35  0.  0.
   337  3.36  0.  0.
   338  3.37  0.  0.
   339  3.38  0.  0.
   340  3.39  0.  0.
   341  3.40  0.  0.
   342  3.41  0.  0.
   343  3.42  0.  0.
   344  3.43  0.  0.
   345  3.44  0.  0.
   346  3.45  0.  0.
   347  3.46  0.  0.
   348  3.47  0.  0.
   349  3.48  0.  0.
   350  3.49  0.  0.
   351  3.50  0.  0.
   352  3.51  0.  0.
   353  3.52  0.  0.
   354  3.53  0.  0.
   355  3.54  0.  0.
   356  3.55  0.  0.
   357  3.56  0.  0.
   358  3.57  0.  0.
   359  3.58  0.  0.
   360  3.59  0.  0.
   361  3.60  0.  0.
   362  3.61  0.  0.
   363  3.62  0.  0.
   364  3.63  0.  0.
   365  3.64  0.  0.
   366  3.65  0.  0.
   367  3.66  0.  0.
   368  3.67  0.  0.
   369  3.68  0.  0.
   370  3.69  0.  0.
   371  3.70  0.  0.
   372  3.71  0.  0.
   373  3.72  0.  0.
   374  3.73  0.  0.
   375  3.74  0.  0.
   376  3.75  0.  0.
   377  3.76  0.  0.
   378  3.77  0.  0.
   379  3.78  0.  0.
   380  3.79  0.  0.
   381  3.80  0.  0.
   382  3.81  0.  0.
   383  3.82  0.  0.
   384  3.83  0.  0.
   385  3.84  0.  0.
   386  3.85  0.  0.
   387  3.86  0.  0.
   388  3.87  0.  0.
   389  3.88  0.  0.
   390  3.89  0.  0.
   391  3.90  0.  0.
   392  3.91  0.  0.
   393  3.92  0.  0.
   394  3.93  0.  0.
   395  3.94  0.  0.
   396  3.95  0.  0.
   397  3.96  0.  0.
   398  3.97  0.  0.
   399  3.98  0.  0.
   400  3.99  0.  0.
   401  4.00  0.  0.
   402  4.01  0.  0.
   403  4.02  0.  0.
   404  4.03  0.  0.
   405  4.04  0.  0.
   406  4.05  0.  0.
   407  4.06  0.  0.
   408  4.07  0.  0.
   409  4.08  0.  0.
   410  4.09  0.  0.
   411  4.10  0.  0.
   412  4.11  0.  0.
   413  4.12  0.  0.
   414  4.13  0.  0.
   415  4.14  0.  0.
   416  4.15  0.  0.
   417  4.16  0.  0.
   418  4.17  0.  0.
   419  4.18  0.  0.
   420  4.19  0.  0.
   421  4.20  0.  0.
   422  4.21  0.  0.
   423  4.22  0.  0.
   424  4.23  0.  0.
   425  4.24  0.  0.
   426  4.25  0.  0.
   427  4.26  0.  0.
   428  4.27  0.  0.
   429  4.28  0.  0.
   430  4.29  0.  0.
   431  4.30  0.  0.
   432  4.31  0.  0.
   433  4.32  0.  0.
   434  4.33  0.  0.
   435  4.34  0.  0.
   436  4.35  0.  0.
   437  4.36  0.  0.
   438  4.37  0.  0.
   439  4.38  0.  0.
   440  4.39  0.  0.
   441  4.40  0.  0.
   442  4.41  0.  0.
   443  4.42  0.  0.
   444  4.43  0.  0.
   445  4.44  0.  0.
   446  4.45  0.  0.
   447  4.46  0.  0.
   448  4.47  0.  0.
   449  4.48  0.  0.
   450  4.49  0.  0.
   451  4.50  0.  0.
   452  4.51  0.  0.
   453  4.52  0.  0.
   454  4.53  0.  0.
   455  4.54  0.  0.
   456  4.55  0.  0.
   457  4.56  0.  0.
   458  4.57  0.  0.
   459  4.58  0.  0.
   460  4.59  0.  0.
   461  4.60  0.  0.
   462  4.61  0.  0.
   463  4.62  0.  0.
   464  4.63  0.  0.
   465  4.64  0.  0.
   466  4.65  0.  0.
   467  4.66  0.  0.
   468  4.67  0.  0.
   469  4.68  0.  0.
   470  4.69  0.  0.
   471  4.70  0.  0.
   472  4.71  0.  0.
   473  4.72  0.  0.
   474  4.73  0.  0.
   475  4.74  0.  0.
   476  4.75  0.  0.
   477  4.76  0.  0.
   478  4.77  0.  0.
   479  4.78  0.  0.
   480  4.79  0.  0.
   481  4.80  0.  0.
   482  4.81  0.  0.
   483  4.82  0.  0.
   484  4.83  0.  0.
   485  4.84  0.  0.
   486  4.85  0.  0.
   487  4.86  0.  0.
   488  4.87  0.  0.
   489  4.88  0.  0.
   490  4.89  0.  0.
   491  4.90  0.  0.
   492  4.91  0.  0.
   493  4.92  0.  0.
   494  4.93  0.  0.
   495  4.94  0.  0.
   496  4.95  0.  0.
   497  4.96  0.  0.
   498  4.97  0.  0.
   499  4.98  0.  0.
   500  4.99  0.  0.
   501  5.00  0.  0.
   502  5.01  0.  0.
   503  5.02  0.  0.
   504  5.03  0.  0.
   505  5.04  0.  0.
   506  5.05  0.  0.
   507  5.06  0.  0.
   508  5.07  0.  0.
   509  5.08  0.  0.
   510  5.09  0.  0.
   511  5.10  0.  0.
   512  5.11  0.  0.
   513  5.12  0.  0.
   514  5.13  0.  0.
   515  5.14  0.  0.
   516  5.15  0.  0.
   517  5.16  0.  0.
   518  5.17  0.  0.
   519  5.18  0.  0.
   520  5.19  0.  0.
   521  5.20  0.  0.
   522  5.21  0.  0.
   523  5.22  0.  0.
   524  5.23  0.  0.
   525  5.24  0.  0.
   526  5.25  0.  0.
   527  5.26  0.  0.
   528  5.27  0.  0.
   529  5.28  0.  0.
   530  5.29  0.  0.
   531  5.30  0.  0.
   532  5.31  0.  0.
   533  5.32  0.  0.
   534  5.33  0.  0.
   535  5.34  0.  0.
   536  5.35  0.  0.
   537  5.36  0.  0.
   538  5.37  0.  0.
   539  5.38  0.  0.
   540  5.39  0.  0.
   541  5.40  0.  0.
   542  5.41  0.  0.
   543  5.42  0.  0.
   544  5.43  0.  0.
   545  5.44  0.  0.
   546  5.45  0.  0.
   547  5.46  0.  0.
   548  5.47  0.  0.
   549  5.48  0.  0.
   550  5.49  0.  0.
   551  5.50  0.  0.
   552  5.51  0.  0.
   553  5.52  0.  0.
   554  5.53  0.  0.
   555  5.54  0.  0.
   556  5.55  0.  0.
   557  5.56  0.  0.
   558  5.57  0.  0.
   559  5.58  0.  0.
   560  5.59  0.  0.
   561  5.60  0.  0.
   562  5.61  0.  0.
   563  5.62  0.  0.
   564  5.63  0.  0.
   565  5.64  0.  0.
   566  5.65  0.  0.
   567  5.66  0.  0.
   568  5.67  0.  0.
   569  5.68  0.  0.
   570  5.69  0.  0.
   571  5.70  0.  0.
   572  5.71  0.  0.
   573  5.72  0.  0.
   574  5.73  0.  0.
   575  5.74  0.  0.
   576  5.75  0.  0.
   577  5.76  0.  0.
   578  5.77  0.  0.
   579  5.78  0.  0.
   580  5.79  0.  0.
   581  5.80  0.  0.
   582  5.81  0.  0.
   583  5.82  0.  0.
   584  5.83  0.  0.
   585  5.84  0.  0.
   586  5.85  0.  0.
   587  5.86  0.  0.
   588  5.87  0.  0.
   589  5.88  0.  0.
   590  5.89  0.  0.
   591  5.90  0.  0.
   592  5.91  0.  0.
   593  5.92  0.  0.
   594  5.93  0.  0.
   595  5.94  0.  0.
   596  5.95  0.  0.
   597  5.96  0.  0.
   598  5.97  0.  0.
   599  5.98  0.  0.
   600  5.99  0.  0.
   1                         6.3544751664347E+00  1.1988776607800E+00  1.0369018704299E-02
     1  0.0000000000000E+00  3.5334419196120E-08 -4.7600629521360E-08 -2.9329748685303E-08
     2  1.0000000000000E-02  1.5494943238299E-03 -1.4622199935537E-03  3.9170206582213E-04
     3  2.0000000000000E-02  6.1615120817723E-03 -5.8007989803188E-03  1.5920043741228E-03
     4  3.0000000000000E-02  1.3727570184494E-02 -1.2872716102815E-02  3.6757479556007E-03
     5  4.0000000000000E-02  2.4069883871657E-02 -2.2443648077483E-02  6.7651946440363E-03
     6  5.0000000000000E-02  3.6945822708697E-02 -3.4193935800134E-02  1.1026379108039E-02
     7  6.0000000000000E-02  5.2054001549390E-02 -4.7726738729243E-02  1.6664123974885E-02
     8  7.0000000000000E-02  6.9041863049975E-02 -6.2578183639419E-02  2.3915837007535E-02
     9  8.0000000000000E-02  8.7514572986201E-02 -7.8229266736729E-02  3.3044238625646E-02
    10  9.0000000000000E-02  1.0704501834844E-01 -9.4119226035440E-02  4.4329194039623E-02
    11  1.0000000000000E-01  1.2718467168666E-01 -1.0966006528083E-01  5.8058846300053E-02
    12  1.1000000000000E-01  1.4747506405558E-01 -1.2425188238935E-01  7.4520264150929E-02
    13  1.2000000000000E-01  1.6745959365978E-01 -1.3729863502677E-01  9.3989831306783E-02
    14  1.3000000000000E-01  1.8669538827824E-01 -1.4822396404084E-01  1.1672361135073E-01
    15  1.4000000000000E-01  2.0476493697760E-01 -1.5648669230098E-01  1.4294792469046E-01
    16  1.5000000000000E-01  2.2128721058000E-01 -1.6159562217301E-01  1.7285037084245E-01
    17  1.6000000000000E-01  2.3592800076559E-01 -1.6312326927074E-01  2.0657152079657E-01
    18  1.7000000000000E-01  2.4840922434732E-01 -1.6071819298220E-01  2.4419749051465E-01
    19  1.8000000000000E-01  2.5851696180282E-01 -1.5411561507797E-01  2.8575358802595E-01
    20  1.9000000000000E-01  2.6610802709861E-01 -1.4314605580456E-01  3.3119920349737E-01
    21  2.0000000000000E-01  2.7111489858498E-01 -1.2774176141291E-01  3.8042408457413E-01
    22  2.1000000000000E-01  2.7354887755963E-01 -1.0794074708757E-01  4.3324610879805E-01
    23  2.2000000000000E-01  2.7350138117999E-01 -8.3888333617487E-02  4.8941063168087E-01
    24  2.3000000000000E-01  2.7114331886182E-01 -5.5836113671873E-02  5.4859145377086E-01
    25  2.4000000000000E-01  2.6672254518941E-01 -2.4138342926408E-02  6.1039341357788E-01
    26  2.5000000000000E-01  2.6055942669933E-01  1.0754188809907E-02  6.7435657632768E-01
    27  2.6000000000000E-01  2.5304060369056E-01  4.8302692243285E-02  7.3996195201772E-01
    28  2.7000000000000E-01  2.4461107046971E-01  8.7891147895544E-02  8.0663864096392E-01
    29  2.8000000000000E-01  2.3576473720289E-01  1.2883908550890E-01  8.7377227175479E-01
    30  2.9000000000000E-01  2.2703367290634E-01  1.7041610029048E-01  9.4071456601735E-01
    31  3.0000000000000E-01  2.1897626122919E-01  2.1185778985417E-01  1.0067938373487E+00
    32  3.1000000000000E-01  2.1216452781481E-01  2.5238275968853E-01  1.0713262087983E+00
    33  3.2000000000000E-01  2.0717091953146E-01  2.9121031666170E-01  1.1336273149407E+00
    34  3.3000000000000E-01  2.0455483121664E-01  3.2757845016381E-01  1.1930242412913E+00
    35  3.4000000000000E-01  2.0484918439692E-01  3.6076168949620E-01  1.2488674459219E+00
    36  3.5000000000000E-01  2.0854736448079E-01  3.9008842436354E-01  1.3005424058403E+00
    37  3.6000000000000E-01  2.1609081807999E-01  4.1495728292199E-01  1.3474807340999E+00
    38  3.7000000000000E-01  2.2785760045220E-01  4.3485217869131E-01  1.3891705226687E+00
    39  3.8000000000000E-01  2.4415214478034E-01  4.4935566345007E-01  1.4251656806544E+00
    40  3.9000000000000E-01  2.6519650046764E-01  4.5816025749990E-01  1.4550940572683E+00
    41  4.0000000000000E-01  2.9112325732770E-01  4.6107747071240E-01  1.4786641635336E+00
    42  4.1000000000000E-01  3.2197033711298E-01  4.5804427669084E-01  1.4956703356730E+00
    43  4.2000000000000E-01  3.5767779399687E-01  4.4912685715604E-01  1.5059962157733E+00
    44  4.3000000000000E-01  3.9808672225211E-01  4.3452149313324E-01  1.5096164610018E+00
    45  4.4000000000000E-01  4.4294032338260E-01  4.1455254239099E-01  1.5065966306072E+00
    46  4.5000000000000E-01  4.9188713736328E-01  3.8966750749571E-01  1.4970912393348E+00
    47  4.6000000000000E-01  5.4448639446386E-01  3.6042926437025E-01  1.4813400058936E+00
    48  4.7000000000000E-01  6.0021539643638E-01  3.2750558593063E-01  1.4596623648350E+00
    49  4.8000000000000E-01  6.5847878969321E-01  2.9165615777643E-01  1.4324503487846E+00
    50  4.9000000000000E-01  7.1861954952411E-01  2.5371734161825E-01  1.4001599845394E+00
    51  5.0000000000000E-01  7.7993145438305E-01  2.1458499580234E-01  1.3633013802962E+00
    52  5.1000000000000E-01  8.4167279373306E-01  1.7519570969621E-01  1.3224277114401E+00
    53  5.2000000000000E-01  9.0308102269547E-01  1.3650684871598E-01  1.2781233382092E+00
    54  5.3000000000000E-01  9.6338805252296E-01  9.9475838445779E-02  1.2309913095580E+00
    55  5.4000000000000E-01  1.0218358482958E+00  6.5039138832560E-02  1.1816405231624E+00
    56  5.5000000000000E-01  1.0776919946754E+00  3.4091372243382E-02  1.1306728213575E+00
    57  5.6000000000000E-01  1.1302648873426E+00  7.4650718595741E-03  1.0786703066103E+00
    58  5.7000000000000E-01  1.1789182120373E+00 -1.4088490715127E-02  1.0261831577521E+00
    59  5.8000000000000E-01  1.2230843848877E+00 -2.9916957582217E-02  9.7371821964900E-01
    60  5.9000000000000E-01  1.2622766467790E+00 -3.9482603137960E-02  9.2172862437334E-01
    61  6.0000000000000E-01  1.2960995305281E+00 -4.2375743077296E-02  8.7060468154262E-01
    62  6.1000000000000E-01  1.3242574520959E+00 -3.8325503728878E-02  8.2066624968435E-01
    63  6.2000000000000E-01  1.3465612153439E+00 -2.7207675431245E-02  7.7215676979022E-01
    64  6.3000000000000E-01  1.3629322631441E+00 -9.0494341925304E-03  7.2523910725274E-01
    65  6.4000000000000E-01  1.3734045551005E+00  1.5969218099321E-02  6.7999330985457E-01
    66  6.5000000000000E-01  1.3781240027249E+00  4.7517374512752E-02  6.3641634820666E-01
    67  6.6000000000000E-01  1.3773454455856E+00  8.5118511787758E-02  5.9442386187551E-01
    68  6.7000000000000E-01  1.3714272055682E+00  1.2815907992416E-01  5.5385389031819E-01
    69  6.8000000000000E-01  1.3608233098133E+00  1.7590025232613E-01  5.1447252360635E-01
    70  6.9000000000000E-01  1.3460735249549E+00  2.2749262499426E-01  4.7598136471884E-01
    71  7.0000000000000E-01  1.3277913948389E+00  2.8199358576726E-01  4.3802665386865E-01
    72  7.1000000000000E-01  1.3066505198454E+00  3.3838701232510E-01  4.0020986680695E-01
    73  7.2000000000000E-01  1.2833693572448E+00  3.9560490199867E-01  3.6209956418971E-01
    74  7.3000000000000E-01  1.2586948577394E+00  4.5255048865885E-01  3.2324423867695E-01
    75  7.4000000000000E-01  1.2333852826441E+00  5.0812236321984E-01  2.8318588117984E-01
    76  7.5000000000000E-01  1.2081925683495E+00  5.6123908552190E-01  2.4147396816174E-01
    77  7.6000000000000E-01  1.1838446192215E+00  6.1086375730310E-01  1.9767955862880E-01
    78  7.7000000000000E-01  1.1610279165363E+00  6.5602801914302E-01  1.5140918275859E-01
    79  7.8000000000000E-01  1.1403708291960E+00  6.9585493894333E-01  1.0231820423016E-01
    80  7.9000000000000E-01  1.1224280017751E+00  7.2958027573984E-01  5.0123345308137E-02
    81  8.0000000000000E-01  1.1076661770302E+00  7.5657163020435E-01 -5.3859224827308E-03
    82  8.1000000000000E-01  1.0964517836829E+00  7.7634503163725E-01 -6.4337398892674E-02
    83  8.2000000000000E-01  1.0890405865245E+00  7.8857855987847E-01 -1.2676783691777E-01
    84  8.3000000000000E-01  1.0855696553471E+00  7.9312265845434E-01 -1.9261650414250E-01
    85  8.4000000000000E-01  1.0860518626580E+00  7.9000686130382E-01 -2.6172080401645E-01
    86  8.5000000000000E-01  1.0903730685308E+00  7.7944272827432E-01 -3.3381409590520E-01
    87  8.6000000000000E-01  1.0982920953153E+00  7.6182286277108E-01 -4.0852580752905E-01