F     ONCVPSP-4.0.1  r_core=   1.30176   1.45845   1.60495
      9.0000      7.0000      250217    zatom,zion,pspd
     8       2   2     4   600     0    pspcod,pspxc,lmax,lloc,mmax,r2well
  5.99000000  2.50000000  0.00000000    rchrg fchrg qchrg
     2     2     1     0    nproj
     3     1           extension_switch
     3     2     0    nprojso
   0                         6.4403744975753E+00  1.0261926387273E+00
     1  0.0000000000000E+00  5.3211187678315E-09 -1.2270682331339E-08
     2  1.0000000000000E-02  9.2764146252316E-02 -2.5949334437727E-02
     3  2.0000000000000E-02  1.8530591157190E-01 -5.1782531113457E-02
     4  3.0000000000000E-02  2.7740203355166E-01 -7.7380586476614E-02
     5  4.0000000000000E-02  3.6882753644988E-01 -1.0261887945074E-01
     6  5.0000000000000E-02  4.5935499713605E-01 -1.2736464451597E-01
     7  6.0000000000000E-02  5.4875395422823E-01 -1.5147477390179E-01
     8  7.0000000000000E-02  6.3679050168937E-01 -1.7479404367939E-01
     9  8.0000000000000E-02  7.2322710282889E-01 -1.9715384627261E-01
    10  9.0000000000000E-02  8.0782265427132E-01 -2.1837149719335E-01
    11  1.0000000000000E-01  8.9033282217356E-01 -2.3825016704634E-01
    12  1.1000000000000E-01  9.7051066498866E-01 -2.5657947148677E-01
    13  1.2000000000000E-01  1.0481075485974E+00 -2.7313673234814E-01
    14  1.3000000000000E-01  1.1228743508845E+00 -2.8768890310979E-01
    15  1.4000000000000E-01  1.1945629440569E+00 -2.9999513178939E-01
    16  1.5000000000000E-01  1.2629279344211E+00 -3.0980991477085E-01
    17  1.6000000000000E-01  1.3277286311876E+00 -3.1688677655100E-01
    18  1.7000000000000E-01  1.3887312083714E+00 -3.2098239342118E-01
    19  1.8000000000000E-01  1.4457110172192E+00 -3.2186106416843E-01
    20  1.9000000000000E-01  1.4984550009903E+00 -3.1929941841000E-01
    21  2.0000000000000E-01  1.5467641595243E+00 -3.1309124352717E-01
    22  2.1000000000000E-01  1.5904560079519E+00 -3.0305230463248E-01
    23  2.2000000000000E-01  1.6293669722652E+00 -2.8902502879970E-01
    24  2.3000000000000E-01  1.6633546642931E+00 -2.7088292503344E-01
    25  2.4000000000000E-01  1.6922999799717E+00 -2.4853461519285E-01
    26  2.5000000000000E-01  1.7161089676224E+00 -2.2192735825437E-01
    27  2.6000000000000E-01  1.7347144172016E+00 -1.9104996075499E-01
    28  2.7000000000000E-01  1.7480771270784E+00 -1.5593497976630E-01
    29  2.8000000000000E-01  1.7561868116833E+00 -1.1666014099136E-01
    30  2.9000000000000E-01  1.7590626212088E+00 -7.3348913157828E-02
    31  3.0000000000000E-01  1.7567532532273E+00 -2.6170200342284E-02
    32  3.1000000000000E-01  1.7493366454146E+00  2.4662864312279E-02
    33  3.2000000000000E-01  1.7369192482896E+00  7.8895017390588E-02
    34  3.3000000000000E-01  1.7196348867669E+00  1.3623182755838E-01
    35  3.4000000000000E-01  1.6976432290983E+00  1.9634347004357E-01
    36  3.5000000000000E-01  1.6711278912168E+00  2.5886924030902E-01
    37  3.6000000000000E-01  1.6402942133320E+00  3.2342271403049E-01
    38  3.7000000000000E-01  1.6053667536273E+00  3.8959744264461E-01
    39  3.8000000000000E-01  1.5665865508674E+00  4.5697305848587E-01
    40  3.9000000000000E-01  1.5242082134370E+00  5.2512165132713E-01
    41  4.0000000000000E-01  1.4784968966474E+00  5.9361426934285E-01
    42  4.1000000000000E-01  1.4297252329282E+00  6.6202739240948E-01
    43  4.2000000000000E-01  1.3781702806925E+00  7.2994922443608E-01
    44  4.3000000000000E-01  1.3241105571566E+00  7.9698565417210E-01
    45  4.4000000000000E-01  1.2678232182251E+00  8.6276574065926E-01
    46  4.5000000000000E-01  1.2095814447381E+00  9.2694659006769E-01
    47  4.6000000000000E-01  1.1496520890088E+00  9.8921750486855E-01
    48  4.7000000000000E-01  1.0882936287782E+00  1.0493033038331E+00
    49  4.8000000000000E-01  1.0257544676292E+00  1.1069667318062E+00
    50  4.9000000000000E-01  9.6227161174776E-01  1.1620099010979E+00
    51  5.0000000000000E-01  8.9806974289587E-01  1.2142747311011E+00
    52  5.1000000000000E-01  8.3336069684673E-01  1.2636423787783E+00
    53  5.2000000000000E-01  7.6834334557495E-01  1.3100316792853E+00
    54  5.3000000000000E-01  7.0320387048985E-01  1.3533966425433E+00
    55  5.4000000000000E-01  6.3811640323078E-01  1.3937230773364E+00
    56  5.5000000000000E-01  5.7324400029684E-01  1.4310244387989E+00
    57  5.6000000000000E-01  5.0873990833672E-01  1.4653370173236E+00
    58  5.7000000000000E-01  4.4474906853732E-01  1.4967146063299E+00
    59  5.8000000000000E-01  3.8140980145968E-01  1.5252228024398E+00
    60  5.9000000000000E-01  3.1885560808453E-01  1.5509331039228E+00
    61  6.0000000000000E-01  2.5721701891776E-01  1.5739169814001E+00
    62  6.1000000000000E-01  1.9662342090059E-01  1.5942400984552E+00
    63  6.2000000000000E-01  1.3720479165448E-01  1.6119568587856E+00
    64  6.3000000000000E-01  7.9093272306750E-02  1.6271054507986E+00
    65  6.4000000000000E-01  2.2424513778253E-02  1.6397035501391E+00
    66  6.5000000000000E-01 -3.2661263091012E-02  1.6497448257290E+00
    67  6.6000000000000E-01 -8.6018545957942E-02  1.6571963757722E+00
    68  6.7000000000000E-01 -1.3749619147488E-01  1.6619971972577E+00
    69  6.8000000000000E-01 -1.8693750117907E-01  1.6640577662713E+00
    70  6.9000000000000E-01 -2.3418073469299E-01  1.6632607775160E+00
    71  7.0000000000000E-01 -2.7906006988539E-01  1.6594630605247E+00
    72  7.1000000000000E-01 -3.2140700678863E-01  1.6524986578652E+00
    73  7.2000000000000E-01 -3.6105219895243E-01  1.6421830179897E+00
    74  7.3000000000000E-01 -3.9782768286636E-01  1.6283182230785E+00
    75  7.4000000000000E-01 -4.3156946344233E-01  1.6106991411010E+00
    76  7.5000000000000E-01 -4.6212040164405E-01  1.5891203621730E+00
    77  7.6000000000000E-01 -4.8933333950137E-01  1.5633837529059E+00
    78  7.7000000000000E-01 -5.1307438825216E-01  1.5333064395365E+00
    79  7.8000000000000E-01 -5.3322629748009E-01  1.4987290118455E+00
    80  7.9000000000000E-01 -5.4969181709553E-01  1.4595237257661E+00
    81  8.0000000000000E-01 -5.6239696002821E-01  1.4156024736045E+00
    82  8.1000000000000E-01 -5.7129407170487E-01  1.3669242872595E+00
    83  8.2000000000000E-01 -5.7636461286134E-01  1.3135021419427E+00
    84  8.3000000000000E-01 -5.7762156502083E-01  1.2554088357188E+00
    85  8.4000000000000E-01 -5.7511137303225E-01  1.1927817336241E+00
    86  8.5000000000000E-01 -5.6891534632641E-01  1.1258261839663E+00
    87  8.6000000000000E-01 -5.5915044987436E-01  1.0548174382907E+00
    88  8.7000000000000E-01 -5.4596942703158E-01  9.8010093493868E-01
    89  8.8000000000000E-01 -5.2956020928596E-01  9.0209083850777E-01
    90  8.9000000000000E-01 -5.1014458211037E-01  8.2126676313772E-01
    91  9.0000000000000E-01 -4.8797609133459E-01  7.3816864559003E-01
    92  9.1000000000000E-01 -4.6333719034291E-01  6.5338977368133E-01
    93  9.2000000000000E-01 -4.3653564460295E-01  5.6756801585130E-01
    94  9.3000000000000E-01 -4.0790022615159E-01  4.8137533753674E-01
    95  9.4000000000000E-01 -3.7777574623646E-01  3.9550572828151E-01
    96  9.5000000000000E-01 -3.4651749172785E-01  3.1066171091331E-01
    97  9.6000000000000E-01 -3.1448517890857E-01  2.2753978193379E-01
    98  9.7000000000000E-01 -2.8203867605219E-01  1.4682392021640E-01
    99  9.8000000000000E-01 -2.4953684023714E-01  6.9191371187438E-02
   100  9.9000000000000E-01 -2.1733330726531E-01 -4.6954960782447E-03
   101  1.0000000000000E+00 -1.8577114388869E-01 -7.4202209136289E-02
   102  1.0100000000000E+00 -1.5517756604717E-01 -1.3873502668240E-01
   103  1.0200000000000E+00 -1.2585884079753E-01 -1.9775328377639E-01
   104  1.0300000000000E+00 -9.8095483125358E-02 -2.5078096974036E-01
   105  1.0400000000000E+00 -7.2137854142725E-02 -2.9741727347856E-01
   106  1.0500000000000E+00 -4.8202260243454E-02 -3.3734584889689E-01
   107  1.0600000000000E+00 -2.6467643456160E-02 -3.7034257705730E-01
   108  1.0700000000000E+00 -7.0729417137156E-03 -3.9628163106926E-01
   109  1.0800000000000E+00  9.8848156549980E-03 -4.1513968373948E-01
   110  1.0900000000000E+00  2.4351627005742E-02 -4.2699813616225E-01
   111  1.1000000000000E+00  3.6316818196169E-02 -4.3204328668130E-01
   112  1.1100000000000E+00  4.5812506646189E-02 -4.3056440325168E-01
   113  1.1200000000000E+00  5.2912231056627E-02 -4.2294970715958E-01
   114  1.1300000000000E+00  5.7728766239168E-02 -4.0968032123071E-01
   115  1.1400000000000E+00  6.0411160352669E-02 -3.9132228026474E-01
   116  1.1500000000000E+00  6.1141129026733E-02 -3.6851700204845E-01
   117  1.1600000000000E+00  6.0127531919467E-02 -3.4196606489518E-01
   118  1.1700000000000E+00  5.7600494776666E-02 -3.1241525214416E-01
   119  1.1800000000000E+00  5.3757031821493E-02 -2.8048357166721E-01
   120  1.1900000000000E+00  4.8939548010682E-02 -2.4724213757603E-01
   121  1.2000000000000E+00  4.3394111849643E-02 -2.1343600994549E-01
   122  1.2100000000000E+00  3.7392881253757E-02 -1.7988531710865E-01
   123  1.2200000000000E+00  3.1199841305806E-02 -1.4737838529044E-01
   124  1.2300000000000E+00  2.5067103052758E-02 -1.1666377608384E-01
   125  1.2400000000000E+00  1.9228528686562E-02 -8.8434797988975E-02
   126  1.2500000000000E+00  1.3888799874204E-02 -6.3307023490498E-02
   127  1.2600000000000E+00  9.2337362625644E-03 -4.1828977788958E-02
   128  1.2700000000000E+00  5.4187352661839E-03 -2.4460169936646E-02
   129  1.2800000000000E+00  2.5642190253814E-03 -1.1563526404186E-02
   130  1.2900000000000E+00  7.4548528175035E-04 -3.3669257655320E-03
   131  1.3000000000000E+00  3.0273743448325E-05 -1.3732349635303E-04
   132  1.3100000000000E+00  1.0868516695889E-06 -4.9224038921801E-06
   133  1.3200000000000E+00 -7.7375655507488E-07  3.4994231594780E-06
   134  1.33  0.  0.
   135  1.34  0.  0.
   136  1.35  0.  0.
   137  1.36  0.  0.
   138  1.37  0.  0.
   139  1.38  0.  0.
   140  1.39  0.  0.
   141  1.40  0.  0.
   142  1.41  0.  0.
   143  1.42  0.  0.
   144  1.43  0.  0.
   145  1.44  0.  0.
   146  1.45  0.  0.
   147  1.46  0.  0.
   148  1.47  0.  0.
   149  1.48  0.  0.
   150  1.49  0.  0.
   151  1.50  0.  0.
   152  1.51  0.  0.
   153  1.52  0.  0.
   154  1.53  0.  0.
   155  1.54  0.  0.
   156  1.55  0.  0.
   157  1.56  0.  0.
   158  1.57  0.  0.
   159  1.58  0.  0.
   160  1.59  0.  0.
   161  1.60  0.  0.
   162  1.61  0.  0.
   163  1.62  0.  0.
   164  1.63  0.  0.
   165  1.64  0.  0.
   166  1.65  0.  0.
   167  1.66  0.  0.
   168  1.67  0.  0.
   169  1.68  0.  0.
   170  1.69  0.  0.
   171  1.70  0.  0.
   172  1.71  0.  0.
   173  1.72  0.  0.
   174  1.73  0.  0.
   175  1.74  0.  0.
   176  1.75  0.  0.
   177  1.76  0.  0.
   178  1.77  0.  0.
   179  1.78  0.  0.
   180  1.79  0.  0.
   181  1.80  0.  0.
   182  1.81  0.  0.
   183  1.82  0.  0.
   184  1.83  0.  0.
   185  1.84  0.  0.
   186  1.85  0.  0.
   187  1.86  0.  0.
   188  1.87  0.  0.
   189  1.88  0.  0.
   190  1.89  0.  0.
   191  1.90  0.  0.
   192  1.91  0.  0.
   193  1.92  0.  0.
   194  1.93  0.  0.
   195  1.94  0.  0.
   196  1.95  0.  0.
   197  1.96  0.  0.
   198  1.97  0.  0.
   199  1.98  0.  0.
   200  1.99  0.  0.
   201  2.00  0.  0.
   202  2.01  0.  0.
   203  2.02  0.  0.
   204  2.03  0.  0.
   205  2.04  0.  0.
   206  2.05  0.  0.
   207  2.06  0.  0.
   208  2.07  0.  0.
   209  2.08  0.  0.
   210  2.09  0.  0.
   211  2.10  0.  0.
   212  2.11  0.  0.
   213  2.12  0.  0.
   214  2.13  0.  0.
   215  2.14  0.  0.
   216  2.15  0.  0.
   217  2.16  0.  0.
   218  2.17  0.  0.
   219  2.18  0.  0.
   220  2.19  0.  0.
   221  2.20  0.  0.
   222  2.21  0.  0.
   223  2.22  0.  0.
   224  2.23  0.  0.
   225  2.24  0.  0.
   226  2.25  0.  0.
   227  2.26  0.  0.
   228  2.27  0.  0.
   229  2.28  0.  0.
   230  2.29  0.  0.
   231  2.30  0.  0.
   232  2.31  0.  0.
   233  2.32  0.  0.
   234  2.33  0.  0.
   235  2.34  0.  0.
   236  2.35  0.  0.
   237  2.36  0.  0.
   238  2.37  0.  0.
   239  2.38  0.  0.
   240  2.39  0.  0.
   241  2.40  0.  0.
   242  2.41  0.  0.
   243  2.42  0.  0.
   244  2.43  0.  0.
   245  2.44  0.  0.
   246  2.45  0.  0.
   247  2.46  0.  0.
   248  2.47  0.  0.
   249  2.48  0.  0.
   250  2.49  0.  0.
   251  2.50  0.  0.
   252  2.51  0.  0.
   253  2.52  0.  0.
   254  2.53  0.  0.
   255  2.54  0.  0.
   256  2.55  0.  0.
   257  2.56  0.  0.
   258  2.57  0.  0.
   259  2.58  0.  0.
   260  2.59  0.  0.
   261  2.60  0.  0.
   262  2.61  0.  0.
   263  2.62  0.  0.
   264  2.63  0.  0.
   265  2.64  0.  0.
   266  2.65  0.  0.
   267  2.66  0.  0.
   268  2.67  0.  0.
   269  2.68  0.  0.
   270  2.69  0.  0.
   271  2.70  0.  0.
   272  2.71  0.  0.
   273  2.72  0.  0.
   274  2.73  0.  0.
   275  2.74  0.  0.
   276  2.75  0.  0.
   277  2.76  0.  0.
   278  2.77  0.  0.
   279  2.78  0.  0.
   280  2.79  0.  0.
   281  2.80  0.  0.
   282  2.81  0.  0.
   283  2.82  0.  0.
   284  2.83  0.  0.
   285  2.84  0.  0.
   286  2.85  0.  0.
   287  2.86  0.  0.
   288  2.87  0.  0.
   289  2.88  0.  0.
   290  2.89  0.  0.
   291  2.90  0.  0.
   292  2.91  0.  0.
   293  2.92  0.  0.
   294  2.93  0.  0.
   295  2.94  0.  0.
   296  2.95  0.  0.
   297  2.96  0.  0.
   298  2.97  0.  0.
   299  2.98  0.  0.
   300  2.99  0.  0.
   301  3.00  0.  0.
   302  3.01  0.  0.
   303  3.02  0.  0.
   304  3.03  0.  0.
   305  3.04  0.  0.
   306  3.05  0.  0.
   307  3.06  0.  0.
   308  3.07  0.  0.
   309  3.08  0.  0.
   310  3.09  0.  0.
   311  3.10  0.  0.
   312  3.11  0.  0.
   313  3.12  0.  0.
   314  3.13  0.  0.
   315  3.14  0.  0.
   316  3.15  0.  0.
   317  3.16  0.  0.
   318  3.17  0.  0.
   319  3.18  0.  0.
   320  3.19  0.  0.
   321  3.20  0.  0.
   322  3.21  0.  0.
   323  3.22  0.  0.
   324  3.23  0.  0.
   325  3.24  0.  0.
   326  3.25  0.  0.
   327  3.26  0.  0.
   328  3.27  0.  0.
   329  3.28  0.  0.
   330  3.29  0.  0.
   331  3.30  0.  0.
   332  3.31  0.  0.
   333  3.32  0.  0.
   334  3.33  0.  0.
   335  3.34  0.  0.
   336  3.35  0.  0.
   337  3.36  0.  0.
   338  3.37  0.  0.
   339  3.38  0.  0.
   340  3.39  0.  0.
   341  3.40  0.  0.
   342  3.41  0.  0.
   343  3.42  0.  0.
   344  3.43  0.  0.
   345  3.44  0.  0.
   346  3.45  0.  0.
   347  3.46  0.  0.
   348  3.47  0.  0.
   349  3.48  0.  0.
   350  3.49  0.  0.
   351  3.50  0.  0.
   352  3.51  0.  0.
   353  3.52  0.  0.
   354  3.53  0.  0.
   355  3.54  0.  0.
   356  3.55  0.  0.
   357  3.56  0.  0.
   358  3.57  0.  0.
   359  3.58  0.  0.
   360  3.59  0.  0.
   361  3.60  0.  0.
   362  3.61  0.  0.
   363  3.62  0.  0.
   364  3.63  0.  0.
   365  3.64  0.  0.
   366  3.65  0.  0.
   367  3.66  0.  0.
   368  3.67  0.  0.
   369  3.68  0.  0.
   370  3.69  0.  0.
   371  3.70  0.  0.
   372  3.71  0.  0.
   373  3.72  0.  0.
   374  3.73  0.  0.
   375  3.74  0.  0.
   376  3.75  0.  0.
   377  3.76  0.  0.
   378  3.77  0.  0.
   379  3.78  0.  0.
   380  3.79  0.  0.
   381  3.80  0.  0.
   382  3.81  0.  0.
   383  3.82  0.  0.
   384  3.83  0.  0.
   385  3.84  0.  0.
   386  3.85  0.  0.
   387  3.86  0.  0.
   388  3.87  0.  0.
   389  3.88  0.  0.
   390  3.89  0.  0.
   391  3.90  0.  0.
   392  3.91  0.  0.
   393  3.92  0.  0.
   394  3.93  0.  0.
   395  3.94  0.  0.
   396  3.95  0.  0.
   397  3.96  0.  0.
   398  3.97  0.  0.
   399  3.98  0.  0.
   400  3.99  0.  0.
   401  4.00  0.  0.
   402  4.01  0.  0.
   403  4.02  0.  0.
   404  4.03  0.  0.
   405  4.04  0.  0.
   406  4.05  0.  0.
   407  4.06  0.  0.
   408  4.07  0.  0.
   409  4.08  0.  0.
   410  4.09  0.  0.
   411  4.10  0.  0.
   412  4.11  0.  0.
   413  4.12  0.  0.
   414  4.13  0.  0.
   415  4.14  0.  0.
   416  4.15  0.  0.
   417  4.16  0.  0.
   418  4.17  0.  0.
   419  4.18  0.  0.
   420  4.19  0.  0.
   421  4.20  0.  0.
   422  4.21  0.  0.
   423  4.22  0.  0.
   424  4.23  0.  0.
   425  4.24  0.  0.
   426  4.25  0.  0.
   427  4.26  0.  0.
   428  4.27  0.  0.
   429  4.28  0.  0.
   430  4.29  0.  0.
   431  4.30  0.  0.
   432  4.31  0.  0.
   433  4.32  0.  0.
   434  4.33  0.  0.
   435  4.34  0.  0.
   436  4.35  0.  0.
   437  4.36  0.  0.
   438  4.37  0.  0.
   439  4.38  0.  0.
   440  4.39  0.  0.
   441  4.40  0.  0.
   442  4.41  0.  0.
   443  4.42  0.  0.
   444  4.43  0.  0.
   445  4.44  0.  0.
   446  4.45  0.  0.
   447  4.46  0.  0.
   448  4.47  0.  0.
   449  4.48  0.  0.
   450  4.49  0.  0.
   451  4.50  0.  0.
   452  4.51  0.  0.
   453  4.52  0.  0.
   454  4.53  0.  0.
   455  4.54  0.  0.
   456  4.55  0.  0.
   457  4.56  0.  0.
   458  4.57  0.  0.
   459  4.58  0.  0.
   460  4.59  0.  0.
   461  4.60  0.  0.
   462  4.61  0.  0.
   463  4.62  0.  0.
   464  4.63  0.  0.
   465  4.64  0.  0.
   466  4.65  0.  0.
   467  4.66  0.  0.
   468  4.67  0.  0.
   469  4.68  0.  0.
   470  4.69  0.  0.
   471  4.70  0.  0.
   472  4.71  0.  0.
   473  4.72  0.  0.
   474  4.73  0.  0.
   475  4.74  0.  0.
   476  4.75  0.  0.
   477  4.76  0.  0.
   478  4.77  0.  0.
   479  4.78  0.  0.
   480  4.79  0.  0.
   481  4.80  0.  0.
   482  4.81  0.  0.
   483  4.82  0.  0.
   484  4.83  0.  0.
   485  4.84  0.  0.
   486  4.85  0.  0.
   487  4.86  0.  0.
   488  4.87  0.  0.
   489  4.88  0.  0.
   490  4.89  0.  0.
   491  4.90  0.  0.
   492  4.91  0.  0.
   493  4.92  0.  0.
   494  4.93  0.  0.
   495  4.94  0.  0.
   496  4.95  0.  0.
   497  4.96  0.  0.
   498  4.97  0.  0.
   499  4.98  0.  0.
   500  4.99  0.  0.
   501  5.00  0.  0.
   502  5.01  0.  0.
   503  5.02  0.  0.
   504  5.03  0.  0.
   505  5.04  0.  0.
   506  5.05  0.  0.
   507  5.06  0.  0.
   508  5.07  0.  0.
   509  5.08  0.  0.
   510  5.09  0.  0.
   511  5.10  0.  0.
   512  5.11  0.  0.
   513  5.12  0.  0.
   514  5.13  0.  0.
   515  5.14  0.  0.
   516  5.15  0.  0.
   517  5.16  0.  0.
   518  5.17  0.  0.
   519  5.18  0.  0.
   520  5.19  0.  0.
   521  5.20  0.  0.
   522  5.21  0.  0.
   523  5.22  0.  0.
   524  5.23  0.  0.
   525  5.24  0.  0.
   526  5.25  0.  0.
   527  5.26  0.  0.
   528  5.27  0.  0.
   529  5.28  0.  0.
   530  5.29  0.  0.
   531  5.30  0.  0.
   532  5.31  0.  0.
   533  5.32  0.  0.
   534  5.33  0.  0.
   535  5.34  0.  0.
   536  5.35  0.  0.
   537  5.36  0.  0.
   538  5.37  0.  0.
   539  5.38  0.  0.
   540  5.39  0.  0.
   541  5.40  0.  0.
   542  5.41  0.  0.
   543  5.42  0.  0.
   544  5.43  0.  0.
   545  5.44  0.  0.
   546  5.45  0.  0.
   547  5.46  0.  0.
   548  5.47  0.  0.
   549  5.48  0.  0.
   550  5.49  0.  0.
   551  5.50  0.  0.
   552  5.51  0.  0.
   553  5.52  0.  0.
   554  5.53  0.  0.
   555  5.54  0.  0.
   556  5.55  0.  0.
   557  5.56  0.  0.
   558  5.57  0.  0.
   559  5.58  0.  0.
   560  5.59  0.  0.
   561  5.60  0.  0.
   562  5.61  0.  0.
   563  5.62  0.  0.
   564  5.63  0.  0.
   565  5.64  0.  0.
   566  5.65  0.  0.
   567  5.66  0.  0.
   568  5.67  0.  0.
   569  5.68  0.  0.
   570  5.69  0.  0.
   571  5.70  0.  0.
   572  5.71  0.  0.
   573  5.72  0.  0.
   574  5.73  0.  0.
   575  5.74  0.  0.
   576  5.75  0.  0.
   577  5.76  0.  0.
   578  5.77  0.  0.
   579  5.78  0.  0.
   580  5.79  0.  0.
   581  5.80  0.  0.
   582  5.81  0.  0.
   583  5.82  0.  0.
   584  5.83  0.  0.
   585  5.84  0.  0.
   586  5.85  0.  0.
   587  5.86  0.  0.
   588  5.87  0.  0.
   589  5.88  0.  0.
   590  5.89  0.  0.
   591  5.90  0.  0.
   592  5.91  0.  0.
   593  5.92  0.  0.
   594  5.93  0.  0.
   595  5.94  0.  0.
   596  5.95  0.  0.
   597  5.96  0.  0.
   598  5.97  0.  0.
   599  5.98  0.  0.
   600  5.99  0.  0.
   1                        -3.8988757107227E+00 -1.2363397595035E+00
     1  0.0000000000000E+00 -8.7582395502661E-09  1.2934899523004E-08
     2  1.0000000000000E-02  1.3626185088149E-03 -2.8368222505136E-04
     3  2.0000000000000E-02  5.4528386520353E-03 -1.1403298925789E-03
     4  3.0000000000000E-02  1.2277551470121E-02 -2.5864617436378E-03
     5  4.0000000000000E-02  2.1847571373328E-02 -4.6486695855063E-03
     6  5.0000000000000E-02  3.4176648843211E-02 -7.3622370402514E-03
     7  6.0000000000000E-02  4.9280125130287E-02 -1.0769260855148E-02
     8  7.0000000000000E-02  6.7173264803982E-02 -1.4916328180517E-02
     9  8.0000000000000E-02  8.7869310769260E-02 -1.9851816155436E-02
    10  9.0000000000000E-02  1.1137731405533E-01 -2.5622891410899E-02
    11  1.0000000000000E-01  1.3769979712018E-01 -3.2272296415173E-02
    12  1.1000000000000E-01  1.6683031444273E-01 -3.9835016705545E-02
    13  1.2000000000000E-01  1.9875097766913E-01 -4.8334927786939E-02
    14  1.3000000000000E-01  2.3343001445180E-01 -5.7781522698043E-02
    15  1.4000000000000E-01  2.7081943031935E-01 -6.8166820879466E-02
    16  1.5000000000000E-01  3.1085284143042E-01 -7.9462556016499E-02
    17  1.6000000000000E-01  3.5344354292286E-01 -9.1617735026237E-02
    18  1.7000000000000E-01  3.9848287283870E-01 -1.0455665243038E-01
    19  1.8000000000000E-01  4.4583892538873E-01 -1.1817743417731E-01
    20  1.9000000000000E-01  4.9535565975893E-01 -1.3235117278100E-01
    21  2.0000000000000E-01  5.4685244192558E-01 -1.4692170171256E-01
    22  2.1000000000000E-01  6.0012404723760E-01 -1.6170604163853E-01
    23  2.2000000000000E-01  6.5494114106723E-01 -1.7649553471155E-01
    24  2.3000000000000E-01  7.1105124386748E-01 -1.9105766607658E-01
    25  2.4000000000000E-01  7.6818017576184E-01 -2.0513855446892E-01
    26  2.5000000000000E-01  8.2603396459359E-01 -2.1846607667117E-01
    27  2.6000000000000E-01  8.8430119044246E-01 -2.3075357408522E-01
    28  2.7000000000000E-01  9.4265572923631E-01 -2.4170407417354E-01
    29  2.8000000000000E-01  1.0007598484932E+00 -2.5101494542206E-01
    30  2.9000000000000E-01  1.0582675996572E+00 -2.5838289213595E-01
    31  3.0000000000000E-01  1.1148284441497E+00 -2.6350918512348E-01
    32  3.1000000000000E-01  1.1700910443264E+00 -2.6610501642748E-01
    33  3.2000000000000E-01  1.2237071461655E+00 -2.6589686095202E-01
    34  3.3000000000000E-01  1.2753354778167E+00 -2.6263172526797E-01
    35  3.4000000000000E-01  1.3246455872060E+00 -2.5608216416360E-01
    36  3.5000000000000E-01  1.3713215427355E+00 -2.4605094866839E-01
    37  3.6000000000000E-01  1.4150654237464E+00 -2.3237527528278E-01
    38  3.7000000000000E-01  1.4556005317693E+00 -2.1493041488969E-01
    39  3.8000000000000E-01  1.4926742595832E+00 -1.9363271113068E-01
    40  3.9000000000000E-01  1.5260605626068E+00 -1.6844185166760E-01
    41  4.0000000000000E-01  1.5555619859922E+00 -1.3936235142148E-01
    42  4.1000000000000E-01  1.5810112107728E+00 -1.0644420423766E-01
    43  4.2000000000000E-01  1.6022720933125E+00 -6.9782678076474E-02
    44  4.3000000000000E-01  1.6192401838490E+00 -2.9517248341639E-02
    45  4.4000000000000E-01  1.6318427218577E+00  1.4170316122029E-02
    46  4.5000000000000E-01  1.6400381179921E+00  6.1058679976818E-02
    47  4.6000000000000E-01  1.6438149442001E+00  1.1089042759272E-01
    48  4.7000000000000E-01  1.6431904649793E+00  1.6337623651440E-01
    49  4.8000000000000E-01  1.6382087533483E+00  2.1819964938640E-01
    50  4.9000000000000E-01  1.6289384446989E+00  2.7502234060284E-01
    51  5.0000000000000E-01  1.6154701900315E+00  3.3348976130525E-01
    52  5.1000000000000E-01  1.5979138769323E+00  3.9323703633013E-01
    53  5.2000000000000E-01  1.5763956918572E+00  4.5389497958656E-01
    54  5.3000000000000E-01  1.5510551006954E+00  5.1509609033760E-01
    55  5.4000000000000E-01  1.5220418260989E+00  5.7648039211188E-01
    56  5.5000000000000E-01  1.4895128996218E+00  6.3770097854842E-01
    57  5.6000000000000E-01  1.4536298643092E+00  6.9842913636980E-01
    58  5.7000000000000E-01  1.4145561990509E+00  7.5835892479208E-01
    59  5.8000000000000E-01  1.3724550298470E+00  8.1721110284723E-01
    60  5.9000000000000E-01  1.3274871852643E+00  8.7473631106638E-01
    61  6.0000000000000E-01  1.2798096439552E+00  9.3071743143650E-01
    62  6.1000000000000E-01  1.2295744113934E+00  9.8497106911322E-01
    63  6.2000000000000E-01  1.1769278511871E+00  1.0373481206143E+00
    64  6.3000000000000E-01  1.1220104837539E+00  1.0877334156429E+00
    65  6.4000000000000E-01  1.0649572520729E+00  1.1360444427770E+00
    66  6.5000000000000E-01  1.0058982409917E+00  1.1822291924677E+00
    67  6.6000000000000E-01  9.4495982348699E-01  1.2262631735500E+00
    68  6.7000000000000E-01  8.8226619467816E-01  1.2681456812412E+00
    69  6.8000000000000E-01  8.1794124260403E-01  1.3078954148293E+00
    70  6.9000000000000E-01  7.5211069409119E-01  1.3455455614363E+00
    71  7.0000000000000E-01  6.8490446475513E-01  1.3811384778983E+00
    72  7.1000000000000E-01  6.1645913453680E-01  1.4147201155236E+00
    73  7.2000000000000E-01  5.4692046440334E-01  1.4463343419071E+00
    74  7.3000000000000E-01  4.7644586610892E-01  1.4760173198221E+00
    75  7.4000000000000E-01  4.0520673534858E-01  1.5037921052695E+00
    76  7.5000000000000E-01  3.3339055932242E-01  1.5296636249274E+00
    77  7.6000000000000E-01  2.6120271268408E-01  1.5536141874884E+00
    78  7.7000000000000E-01  1.8886786104675E-01  1.5755996737694E+00
    79  7.8000000000000E-01  1.1663089857635E-01  1.5955465371860E+00
    80  7.9000000000000E-01  4.4757355576254E-02  1.6133497294625E+00
    81  8.0000000000000E-01 -2.6466776826968E-02  1.6288716466317E+00
    82  8.1000000000000E-01 -9.6735844991422E-02  1.6419421678874E+00
    83  8.2000000000000E-01 -1.6572598004649E-01  1.6523598351773E+00
    84  8.3000000000000E-01 -2.3309720503692E-01  1.6598941951110E+00
    85  8.4000000000000E-01 -2.9849619704463E-01  1.6642892974032E+00
    86  8.5000000000000E-01 -3.6155968336444E-01  1.6652683163113E+00
    87  8.6000000000000E-01 -4.2191843485900E-01  1.6625392340037E+00
    88  8.7000000000000E-01 -4.7920180414540E-01  1.6558014981724E+00
    89  8.8000000000000E-01 -5.3304274164850E-01  1.6447535411156E+00
    90  8.9000000000000E-01 -5.8308320915929E-01  1.6291010245958E+00
    91  9.0000000000000E-01 -6.2897989870236E-01  1.6085656545877E+00
    92  9.1000000000000E-01 -6.7041015455467E-01  1.5828943931000E+00
    93  9.2000000000000E-01 -7.0707798843991E-01  1.5518688810378E+00
    94  9.3000000000000E-01 -7.3872007247363E-01  1.5153148769365E+00
    95  9.4000000000000E-01 -7.6511159157608E-01  1.4731115118309E+00
    96  9.5000000000000E-01 -7.8607183529222E-01  1.4252001540318E+00
    97  9.6000000000000E-01 -8.0146939126613E-01  1.3715925998312E+00
    98  9.7000000000000E-01 -8.1122555115761E-01  1.3123733647222E+00
    99  9.8000000000000E-01 -8.1531502344516E-01  1.2476938651044E+00
   100  9.9000000000000E-01 -8.1376754647245E-01  1.1777734190449E+00
   101  1.0000000000000E+00 -8.0666935333663E-01  1.1029017547733E+00
   102  1.0100000000000E+00 -7.9416379757552E-01  1.0234401671452E+00
   103  1.0200000000000E+00 -7.7645108869015E-01  9.3982122691832E-01
   104  1.0300000000000E+00 -7.5378710641982E-01  8.5254698908370E-01
   105  1.0400000000000E+00 -7.2648128116639E-01  7.6218567876923E-01
   106  1.0500000000000E+00 -6.9489354698702E-01  6.6936686601274E-01
   107  1.0600000000000E+00 -6.5943039293248E-01  5.7477517404002E-01
   108  1.0700000000000E+00 -6.2054005776316E-01  4.7914259875200E-01
   109  1.0800000000000E+00 -5.7870693174027E-01  3.8323954909257E-01
   110  1.0900000000000E+00 -5.3444524695255E-01  2.8786474829757E-01
   111  1.1000000000000E+00 -4.8829215398608E-01  1.9383416383862E-01
   112  1.1100000000000E+00 -4.4080029738710E-01  1.0196915868211E-01
   113  1.1200000000000E+00 -3.9253001491796E-01  1.3084077625212E-02
   114  1.1300000000000E+00 -3.4404129576751E-01 -7.2026500553370E-02
   115  1.1400000000000E+00 -2.9588564041676E-01 -1.5260060197120E-01
   116  1.1500000000000E+00 -2.4859801883352E-01 -2.2792140466227E-01
   117  1.1600000000000E+00 -2.0268824823503E-01 -2.9733146426847E-01
   118  1.1700000000000E+00 -1.5863284771925E-01 -3.6024594011974E-01
   119  1.1800000000000E+00 -1.1683782558385E-01 -4.1624361750770E-01
   120  1.1900000000000E+00 -7.7745651469418E-02 -4.6477194369923E-01
   121  1.2000000000000E+00 -4.1684444324962E-02 -5.0554725369853E-01
   122  1.2100000000000E+00 -8.9422787917945E-03 -5.3834702083067E-01
   123  1.2200000000000E+00  2.0254013104470E-02 -5.6306178236263E-01
   124  1.2300000000000E+00  4.5740275645642E-02 -5.7969457894299E-01
   125  1.2400000000000E+00  6.7416749417530E-02 -5.8836223175237E-01
   126  1.2500000000000E+00  8.5248646759291E-02 -5.8929463194840E-01
   127  1.2600000000000E+00  9.9265570103403E-02 -5.8283203397237E-01
   128  1.2700000000000E+00  1.0955977837337E-01 -5.6942037038399E-01
   129  1.2800000000000E+00  1.1628332927126E-01 -5.4960464502695E-01
   130  1.2900000000000E+00  1.1964414754412E-01 -5.2402049969205E-01
   131  1.3000000000000E+00  1.1990109068611E-01 -4.9338408620056E-01
   132  1.3100000000000E+00  1.1735810373641E-01 -4.5848041051603E-01
   133  1.3200000000000E+00  1.1235757328995E-01 -4.2015034710251E-01
   134  1.3300000000000E+00  1.0527300719146E-01 -3.7927654967364E-01
   135  1.3400000000000E+00  9.6501180304401E-02 -3.3676850815482E-01
   136  1.3500000000000E+00  8.6453897978125E-02 -2.9354702067332E-01
   137  1.3600000000000E+00  7.5549534369537E-02 -2.5052835923682E-01
   138  1.3700000000000E+00  6.4204539817604E-02 -2.0860846225887E-01
   139  1.3800000000000E+00  5.2824942914775E-02 -1.6864724433913E-01
   140  1.3900000000000E+00  4.1799696268827E-02 -1.3145574734667E-01
   141  1.4000000000000E+00  3.1497910636802E-02 -9.7789243910326E-02
   142  1.4100000000000E+00  2.2245287001185E-02 -6.8310349733772E-02
   143  1.4200000000000E+00  1.4326152314729E-02 -4.3589406158948E-02
   144  1.4300000000000E+00  7.9803021141313E-03 -2.4097875179221E-02
   145  1.4400000000000E+00  3.3992355366398E-03 -1.0202475217816E-02
   146  1.4500000000000E+00  7.2077860062697E-04 -2.1532868757092E-03
   147  1.4600000000000E+00 -2.7913746093001E-05  8.3190225010076E-05
   148  1.4700000000000E+00  1.0434771710499E-05 -3.1101861658320E-05
   149  1.48  0.  0.