F     ONCVPSP-4.0.1  r_core=   1.30478   1.45312   1.60867
      9.0000      7.0000      231019    zatom,zion,pspd
     8       2   2     4   600     0    pspcod,pspxc,lmax,lloc,mmax,r2well
  5.99000000  2.50000000  0.00000000    rchrg fchrg qchrg
     2     2     1     0     0    nproj
     1     1           extension_switch
   0                         6.4562105613784E+00  1.0283782773767E+00
     1  0.0000000000000E+00  5.0994112266167E-09 -1.1839451169449E-08
     2  1.0000000000000E-02  9.2772826289686E-02 -2.6212541743220E-02
     3  2.0000000000000E-02  1.8532240083837E-01 -5.2307275132764E-02
     4  3.0000000000000E-02  2.7742463923725E-01 -7.8163599915545E-02
     5  4.0000000000000E-02  3.6885383952320E-01 -1.0365544283677E-01
     6  5.0000000000000E-02  4.5938199149269E-01 -1.2864879496611E-01
     7  6.0000000000000E-02  5.4877822394646E-01 -1.5299956883563E-01
     8  7.0000000000000E-02  6.3680842964980E-01 -1.7655186760823E-01
     9  8.0000000000000E-02  7.2323510269402E-01 -1.9913674665535E-01
    10  9.0000000000000E-02  8.0781741682417E-01 -2.2057153372319E-01
    11  1.0000000000000E-01  8.9031156631702E-01 -2.4065975768213E-01
    12  1.1000000000000E-01  9.7047138333389E-01 -2.5919171811709E-01
    13  1.2000000000000E-01  1.0480492375362E+00 -2.7594570919906E-01
    14  1.3000000000000E-01  1.1227972153524E+00 -2.9068989188510E-01
    15  1.4000000000000E-01  1.1944685678447E+00 -3.0318478904594E-01
    16  1.5000000000000E-01  1.2628194078671E+00 -3.1318635914467E-01
    17  1.6000000000000E-01  1.3276106293544E+00 -3.2044958610198E-01
    18  1.7000000000000E-01  1.3886100143432E+00 -3.2473250647774E-01
    19  1.8000000000000E-01  1.4455944869047E+00 -3.2580058053464E-01
    20  1.9000000000000E-01  1.4983524677305E+00 -3.2343130153638E-01
    21  2.0000000000000E-01  1.5466862788235E+00 -3.1741892812453E-01
    22  2.1000000000000E-01  1.5904145447201E+00 -3.0757921809779E-01
    23  2.2000000000000E-01  1.6293745350028E+00 -2.9375403859385E-01
    24  2.3000000000000E-01  1.6634243926158E+00 -2.7581572767352E-01
    25  2.4000000000000E-01  1.6924451936877E+00 -2.5367108566951E-01
    26  2.5000000000000E-01  1.7163427871811E+00 -2.2726488134085E-01
    27  2.6000000000000E-01  1.7350493666821E+00 -1.9658276773471E-01
    28  2.7000000000000E-01  1.7485247319156E+00 -1.6165351547916E-01
    29  2.8000000000000E-01  1.7567572040161E+00 -1.2255048671530E-01
    30  2.9000000000000E-01  1.7597641660334E+00 -7.9392290652866E-02
    31  3.0000000000000E-01  1.7575922084394E+00 -3.2342581362387E-02
    32  3.1000000000000E-01  1.7503168683139E+00  1.8391020590129E-02
    33  3.2000000000000E-01  1.7380419602037E+00  7.2558879235227E-02
    34  3.3000000000000E-01  1.7208985061457E+00  1.2987214149160E-01
    35  3.4000000000000E-01  1.6990432817612E+00  1.9000633533669E-01
    36  3.5000000000000E-01  1.6726570044432E+00  2.5260569962020E-01
    37  3.6000000000000E-01  1.6419421982179E+00  3.1728815780429E-01
    38  3.7000000000000E-01  1.6071207776515E+00  3.8365083040155E-01
    39  3.8000000000000E-01  1.5684313999774E+00  4.5127596582016E-01
    40  3.9000000000000E-01  1.5261266402595E+00  5.1973715714536E-01
    41  4.0000000000000E-01  1.4804700487174E+00  5.8860570344764E-01
    42  4.1000000000000E-01  1.4317331522064E+00  6.5745696879167E-01
    43  4.2000000000000E-01  1.3801924631612E+00  7.2587659042155E-01
    44  4.3000000000000E-01  1.3261265590500E+00  7.9346638971819E-01
    45  4.4000000000000E-01  1.2698132935093E+00  8.5984984546437E-01
    46  4.5000000000000E-01  1.2115271968896E+00  9.2467699862246E-01
    47  4.6000000000000E-01  1.1515371189976E+00  9.8762867102801E-01
    48  4.7000000000000E-01  1.0901041604854E+00  1.0484198968492E+00
    49  4.8000000000000E-01  1.0274799317637E+00  1.1068024849740E+00
    50  4.9000000000000E-01  9.6390516967655E-01  1.1625666522115E+00
    51  5.0000000000000E-01  8.9960873269152E-01  1.2155416908058E+00
    52  5.1000000000000E-01  8.3480698526269E-01  1.2655956586675E+00
    53  5.2000000000000E-01  7.6970357156717E-01  1.3126341063162E+00
    54  5.3000000000000E-01  7.0448956827554E-01  1.3565978801279E+00
    55  5.4000000000000E-01  6.3934399565868E-01  1.3974600664372E+00
    56  5.5000000000000E-01  5.7443465643631E-01  1.4352221646885E+00
    57  5.6000000000000E-01  5.0991926260072E-01  1.4699095995294E+00
    58  5.7000000000000E-01  4.4594680225239E-01  1.5015667008842E+00
    59  5.8000000000000E-01  3.8265909149399E-01  1.5302512971018E+00
    60  5.9000000000000E-01  3.2019245084586E-01  1.5560290787581E+00
    61  6.0000000000000E-01  2.5867944163877E-01  1.5789678992170E+00
    62  6.1000000000000E-01  1.9825059553968E-01  1.5991321823213E+00
    63  6.2000000000000E-01  1.3903606986142E-01  1.6165776074023E+00
    64  6.3000000000000E-01  8.1167162641984E-02  1.6313462370787E+00
    65  6.4000000000000E-01  2.4777624651036E-02  1.6434622440939E+00
    66  6.5000000000000E-01 -2.9995289560164E-02  1.6529283798675E+00
    67  6.6000000000000E-01 -8.3010082800508E-02  1.6597233097676E+00
    68  6.7000000000000E-01 -1.3412063161018E-01  1.6637999187143E+00
    69  6.8000000000000E-01 -1.8317619133681E-01  1.6650846660847E+00
    70  6.9000000000000E-01 -2.3002181268822E-01  1.6634780415505E+00
    71  7.0000000000000E-01 -2.7449918093977E-01  1.6588561440997E+00
    72  7.1000000000000E-01 -3.1644787677698E-01  1.6510733757720E+00
    73  7.2000000000000E-01 -3.5570704525065E-01  1.6399662103197E+00
    74  7.3000000000000E-01 -3.9211744683166E-01  1.6253579658871E+00
    75  7.4000000000000E-01 -4.2552385239268E-01  1.6070644806572E+00
    76  7.5000000000000E-01 -4.5577773243404E-01  1.5849005620349E+00
    77  7.6000000000000E-01 -4.8274018031565E-01  1.5586870540663E+00
    78  7.7000000000000E-01 -5.0628499994516E-01  1.5282583451338E+00
    79  7.8000000000000E-01 -5.2630188056388E-01  1.4934701191508E+00
    80  7.9000000000000E-01 -5.4269957519564E-01  1.4542071390556E+00
    81  8.0000000000000E-01 -5.5540899516630E-01  1.4103908418139E+00
    82  8.1000000000000E-01 -5.6438613100757E-01  1.3619865197302E+00
    83  8.2000000000000E-01 -5.6961471011969E-01  1.3090098638312E+00
    84  8.3000000000000E-01 -5.7110850382805E-01  1.2515326515313E+00
    85  8.4000000000000E-01 -5.6891320091319E-01  1.1896873726359E+00
    86  8.5000000000000E-01 -5.6310777125685E-01  1.1236706048278E+00
    87  8.6000000000000E-01 -5.5380525180808E-01  1.0537449717720E+00
    88  8.7000000000000E-01 -5.4115289745918E-01  9.8023954343991E-01
    89  8.8000000000000E-01 -5.2533165141495E-01  9.0354856862308E-01
    90  8.9000000000000E-01 -5.0655490297414E-01  8.2412846321790E-01
    91  9.0000000000000E-01 -4.8506651502332E-01  7.4249301396693E-01
    92  9.1000000000000E-01 -4.6113811863934E-01  6.5920679510759E-01
    93  9.2000000000000E-01 -4.3506568765576E-01  5.7487683393014E-01
    94  9.3000000000000E-01 -4.0716542150753E-01  4.9014259967740E-01
    95  9.4000000000000E-01 -3.7776897946941E-01  4.0566442641468E-01
    96  9.5000000000000E-01 -3.4721812642239E-01  3.2211052706915E-01
    97  9.6000000000000E-01 -3.1585916301287E-01  2.4014405740830E-01
    98  9.7000000000000E-01 -2.8404052254705E-01  1.6042398748297E-01
    99  9.8000000000000E-01 -2.5211119950055E-01  8.3608293213704E-02
   100  9.9000000000000E-01 -2.2041601258826E-01  1.0343047162659E-02
   101  1.0000000000000E+00 -1.8929045827693E-01 -5.8750154959045E-02
   102  1.0100000000000E+00 -1.5905560773345E-01 -1.2308663894826E-01
   103  1.0200000000000E+00 -1.3001315792032E-01 -1.8213068449105E-01
   104  1.0300000000000E+00 -1.0244074338973E-01 -2.3540687874869E-01
   105  1.0400000000000E+00 -7.6587612000707E-02 -2.8251053282070E-01
   106  1.0500000000000E+00 -5.2670761653364E-02 -3.2311691875324E-01
   107  1.0600000000000E+00 -3.0871626706694E-02 -3.5698910647506E-01
   108  1.0700000000000E+00 -1.1333392224067E-02 -3.8398420695208E-01
   109  1.0800000000000E+00  5.8409982596018E-03 -4.0405785953515E-01
   110  1.0900000000000E+00  2.0590089819327E-02 -4.1726683713665E-01
   111  1.1000000000000E+00  3.2894381834445E-02 -4.2376968179478E-01
   112  1.1100000000000E+00  4.2775992478954E-02 -4.2382532460372E-01
   113  1.1200000000000E+00  5.0297519173600E-02 -4.1778968674702E-01
   114  1.1300000000000E+00  5.5560109494390E-02 -4.0611030192637E-01
   115  1.1400000000000E+00  5.8700774098950E-02 -3.8931904330696E-01
   116  1.1500000000000E+00  5.9888989909822E-02 -3.6802307988957E-01
   117  1.1600000000000E+00  5.9321710454725E-02 -3.4289116435152E-01
   118  1.1700000000000E+00  5.7227816036641E-02 -3.1467087918558E-01
   119  1.1800000000000E+00  5.3763377689075E-02 -2.8385357036644E-01
   120  1.1900000000000E+00  4.9292266564637E-02 -2.5158670000805E-01
   121  1.2000000000000E+00  4.4039102606675E-02 -2.1855057310243E-01
   122  1.2100000000000E+00  3.8271545605437E-02 -1.8555521843922E-01
   123  1.2200000000000E+00  3.2247709026390E-02 -1.5337354157422E-01
   124  1.2300000000000E+00  2.6216347987256E-02 -1.2274591958315E-01
   125  1.2400000000000E+00  2.0410540667214E-02 -9.4363650164294E-02
   126  1.2500000000000E+00  1.5037286222136E-02 -6.8847642858163E-02
   127  1.2600000000000E+00  1.0281344067541E-02 -4.6748550768981E-02
   128  1.2700000000000E+00  6.3036871856586E-03 -2.8541010804992E-02
   129  1.2800000000000E+00  3.2310532246626E-03 -1.4604687197751E-02
   130  1.2900000000000E+00  1.1519945718203E-03 -5.2115894039939E-03
   131  1.3000000000000E+00  1.3242272615795E-04 -6.0115691599216E-04
   132  1.3100000000000E+00 -1.0940276665587E-05  4.9784181101662E-05
   133  1.3200000000000E+00  7.8585026019833E-07 -3.5689281911254E-06
   134  1.33  0. -0.
   135  1.34  0.  0.
   136  1.35  0.  0.
   137  1.36  0.  0.
   138  1.37  0.  0.
   139  1.38  0.  0.
   140  1.39  0.  0.
   141  1.40  0.  0.
   142  1.41  0.  0.
   143  1.42  0.  0.
   144  1.43  0.  0.
   145  1.44  0.  0.
   146  1.45  0.  0.
   147  1.46  0.  0.
   148  1.47  0.  0.
   149  1.48  0.  0.
   150  1.49  0.  0.
   151  1.50  0.  0.
   152  1.51  0.  0.
   153  1.52  0.  0.
   154  1.53  0.  0.
   155  1.54  0.  0.
   156  1.55  0.  0.
   157  1.56  0.  0.
   158  1.57  0.  0.
   159  1.58  0.  0.
   160  1.59  0.  0.
   161  1.60  0.  0.
   162  1.61  0.  0.
   163  1.62  0.  0.
   164  1.63  0.  0.
   165  1.64  0.  0.
   166  1.65  0.  0.
   167  1.66  0.  0.
   168  1.67  0.  0.
   169  1.68  0.  0.
   170  1.69  0.  0.
   171  1.70  0.  0.
   172  1.71  0.  0.
   173  1.72  0.  0.
   174  1.73  0.  0.
   175  1.74  0.  0.
   176  1.75  0.  0.
   177  1.76  0.  0.
   178  1.77  0.  0.
   179  1.78  0.  0.
   180  1.79  0.  0.
   181  1.80  0.  0.
   182  1.81  0.  0.
   183  1.82  0.  0.
   184  1.83  0.  0.
   185  1.84  0.  0.
   186  1.85  0.  0.
   187  1.86  0.  0.
   188  1.87  0.  0.
   189  1.88  0.  0.
   190  1.89  0.  0.
   191  1.90  0.  0.
   192  1.91  0.  0.
   193  1.92  0.  0.
   194  1.93  0.  0.
   195  1.94  0.  0.
   196  1.95  0.  0.
   197  1.96  0.  0.
   198  1.97  0.  0.
   199  1.98  0.  0.
   200  1.99  0.  0.
   201  2.00  0.  0.
   202  2.01  0.  0.
   203  2.02  0.  0.
   204  2.03  0.  0.
   205  2.04  0.  0.
   206  2.05  0.  0.
   207  2.06  0.  0.
   208  2.07  0.  0.
   209  2.08  0.  0.
   210  2.09  0.  0.
   211  2.10  0.  0.
   212  2.11  0.  0.
   213  2.12  0.  0.
   214  2.13  0.  0.
   215  2.14  0.  0.
   216  2.15  0.  0.
   217  2.16  0.  0.
   218  2.17  0.  0.
   219  2.18  0.  0.
   220  2.19  0.  0.
   221  2.20  0.  0.
   222  2.21  0.  0.
   223  2.22  0.  0.
   224  2.23  0.  0.
   225  2.24  0.  0.
   226  2.25  0.  0.
   227  2.26  0.  0.
   228  2.27  0.  0.
   229  2.28  0.  0.
   230  2.29  0.  0.
   231  2.30  0.  0.
   232  2.31  0.  0.
   233  2.32  0.  0.
   234  2.33  0.  0.
   235  2.34  0.  0.
   236  2.35  0.  0.
   237  2.36  0.  0.
   238  2.37  0.  0.
   239  2.38  0.  0.
   240  2.39  0.  0.
   241  2.40  0.  0.
   242  2.41  0.  0.
   243  2.42  0.  0.
   244  2.43  0.  0.
   245  2.44  0.  0.
   246  2.45  0.  0.
   247  2.46  0.  0.
   248  2.47  0.  0.
   249  2.48  0.  0.
   250  2.49  0.  0.
   251  2.50  0.  0.
   252  2.51  0.  0.
   253  2.52  0.  0.
   254  2.53  0.  0.
   255  2.54  0.  0.
   256  2.55  0.  0.
   257  2.56  0.  0.
   258  2.57  0.  0.
   259  2.58  0.  0.
   260  2.59  0.  0.
   261  2.60  0.  0.
   262  2.61  0.  0.
   263  2.62  0.  0.
   264  2.63  0.  0.
   265  2.64  0.  0.
   266  2.65  0.  0.
   267  2.66  0.  0.
   268  2.67  0.  0.
   269  2.68  0.  0.
   270  2.69  0.  0.
   271  2.70  0.  0.
   272  2.71  0.  0.
   273  2.72  0.  0.
   274  2.73  0.  0.
   275  2.74  0.  0.
   276  2.75  0.  0.
   277  2.76  0.  0.
   278  2.77  0.  0.
   279  2.78  0.  0.
   280  2.79  0.  0.
   281  2.80  0.  0.
   282  2.81  0.  0.
   283  2.82  0.  0.
   284  2.83  0.  0.
   285  2.84  0.  0.
   286  2.85  0.  0.
   287  2.86  0.  0.
   288  2.87  0.  0.
   289  2.88  0.  0.
   290  2.89  0.  0.
   291  2.90  0.  0.
   292  2.91  0.  0.
   293  2.92  0.  0.
   294  2.93  0.  0.
   295  2.94  0.  0.
   296  2.95  0.  0.
   297  2.96  0.  0.
   298  2.97  0.  0.
   299  2.98  0.  0.
   300  2.99  0.  0.
   301  3.00  0.  0.
   302  3.01  0.  0.
   303  3.02  0.  0.
   304  3.03  0.  0.
   305  3.04  0.  0.
   306  3.05  0.  0.
   307  3.06  0.  0.
   308  3.07  0.  0.
   309  3.08  0.  0.
   310  3.09  0.  0.
   311  3.10  0.  0.
   312  3.11  0.  0.
   313  3.12  0.  0.
   314  3.13  0.  0.
   315  3.14  0.  0.
   316  3.15  0.  0.
   317  3.16  0.  0.
   318  3.17  0.  0.
   319  3.18  0.  0.
   320  3.19  0.  0.
   321  3.20  0.  0.
   322  3.21  0.  0.
   323  3.22  0.  0.
   324  3.23  0.  0.
   325  3.24  0.  0.
   326  3.25  0.  0.
   327  3.26  0.  0.
   328  3.27  0.  0.
   329  3.28  0.  0.
   330  3.29  0.  0.
   331  3.30  0.  0.
   332  3.31  0.  0.
   333  3.32  0.  0.
   334  3.33  0.  0.
   335  3.34  0.  0.
   336  3.35  0.  0.
   337  3.36  0.  0.
   338  3.37  0.  0.
   339  3.38  0.  0.
   340  3.39  0.  0.
   341  3.40  0.  0.
   342  3.41  0.  0.
   343  3.42  0.  0.
   344  3.43  0.  0.
   345  3.44  0.  0.
   346  3.45  0.  0.
   347  3.46  0.  0.
   348  3.47  0.  0.
   349  3.48  0.  0.
   350  3.49  0.  0.
   351  3.50  0.  0.
   352  3.51  0.  0.
   353  3.52  0.  0.
   354  3.53  0.  0.
   355  3.54  0.  0.
   356  3.55  0.  0.
   357  3.56  0.  0.
   358  3.57  0.  0.
   359  3.58  0.  0.
   360  3.59  0.  0.
   361  3.60  0.  0.
   362  3.61  0.  0.
   363  3.62  0.  0.
   364  3.63  0.  0.
   365  3.64  0.  0.
   366  3.65  0.  0.
   367  3.66  0.  0.
   368  3.67  0.  0.
   369  3.68  0.  0.
   370  3.69  0.  0.
   371  3.70  0.  0.
   372  3.71  0.  0.
   373  3.72  0.  0.
   374  3.73  0.  0.
   375  3.74  0.  0.
   376  3.75  0.  0.
   377  3.76  0.  0.
   378  3.77  0.  0.
   379  3.78  0.  0.
   380  3.79  0.  0.
   381  3.80  0.  0.
   382  3.81  0.  0.
   383  3.82  0.  0.
   384  3.83  0.  0.
   385  3.84  0.  0.
   386  3.85  0.  0.
   387  3.86  0.  0.
   388  3.87  0.  0.
   389  3.88  0.  0.
   390  3.89  0.  0.
   391  3.90  0.  0.
   392  3.91  0.  0.
   393  3.92  0.  0.
   394  3.93  0.  0.
   395  3.94  0.  0.
   396  3.95  0.  0.
   397  3.96  0.  0.
   398  3.97  0.  0.
   399  3.98  0.  0.
   400  3.99  0.  0.
   401  4.00  0.  0.
   402  4.01  0.  0.
   403  4.02  0.  0.
   404  4.03  0.  0.
   405  4.04  0.  0.
   406  4.05  0.  0.
   407  4.06  0.  0.
   408  4.07  0.  0.
   409  4.08  0.  0.
   410  4.09  0.  0.
   411  4.10  0.  0.
   412  4.11  0.  0.
   413  4.12  0.  0.
   414  4.13  0.  0.
   415  4.14  0.  0.
   416  4.15  0.  0.
   417  4.16  0.  0.
   418  4.17  0.  0.
   419  4.18  0.  0.
   420  4.19  0.  0.
   421  4.20  0.  0.
   422  4.21  0.  0.
   423  4.22  0.  0.
   424  4.23  0.  0.
   425  4.24  0.  0.
   426  4.25  0.  0.
   427  4.26  0.  0.
   428  4.27  0.  0.
   429  4.28  0.  0.
   430  4.29  0.  0.
   431  4.30  0.  0.
   432  4.31  0.  0.
   433  4.32  0.  0.
   434  4.33  0.  0.
   435  4.34  0.  0.
   436  4.35  0.  0.
   437  4.36  0.  0.
   438  4.37  0.  0.
   439  4.38  0.  0.
   440  4.39  0.  0.
   441  4.40  0.  0.
   442  4.41  0.  0.
   443  4.42  0.  0.
   444  4.43  0.  0.
   445  4.44  0.  0.
   446  4.45  0.  0.
   447  4.46  0.  0.
   448  4.47  0.  0.
   449  4.48  0.  0.
   450  4.49  0.  0.
   451  4.50  0.  0.
   452  4.51  0.  0.
   453  4.52  0.  0.
   454  4.53  0.  0.
   455  4.54  0.  0.
   456  4.55  0.  0.
   457  4.56  0.  0.
   458  4.57  0.  0.
   459  4.58  0.  0.
   460  4.59  0.  0.
   461  4.60  0.  0.
   462  4.61  0.  0.
   463  4.62  0.  0.
   464  4.63  0.  0.
   465  4.64  0.  0.
   466  4.65  0.  0.
   467  4.66  0.  0.
   468  4.67  0.  0.
   469  4.68  0.  0.
   470  4.69  0.  0.
   471  4.70  0.  0.
   472  4.71  0.  0.
   473  4.72  0.  0.
   474  4.73  0.  0.
   475  4.74  0.  0.
   476  4.75  0.  0.
   477  4.76  0.  0.
   478  4.77  0.  0.
   479  4.78  0.  0.
   480  4.79  0.  0.
   481  4.80  0.  0.
   482  4.81  0.  0.
   483  4.82  0.  0.
   484  4.83  0.  0.
   485  4.84  0.  0.
   486  4.85  0.  0.
   487  4.86  0.  0.
   488  4.87  0.  0.
   489  4.88  0.  0.
   490  4.89  0.  0.
   491  4.90  0.  0.
   492  4.91  0.  0.
   493  4.92  0.  0.
   494  4.93  0.  0.
   495  4.94  0.  0.
   496  4.95  0.  0.
   497  4.96  0.  0.
   498  4.97  0.  0.
   499  4.98  0.  0.
   500  4.99  0.  0.
   501  5.00  0.  0.
   502  5.01  0.  0.
   503  5.02  0.  0.
   504  5.03  0.  0.
   505  5.04  0.  0.
   506  5.05  0.  0.
   507  5.06  0.  0.
   508  5.07  0.  0.
   509  5.08  0.  0.
   510  5.09  0.  0.
   511  5.10  0.  0.
   512  5.11  0.  0.
   513  5.12  0.  0.
   514  5.13  0.  0.
   515  5.14  0.  0.
   516  5.15  0.  0.
   517  5.16  0.  0.
   518  5.17  0.  0.
   519  5.18  0.  0.
   520  5.19  0.  0.
   521  5.20  0.  0.
   522  5.21  0.  0.
   523  5.22  0.  0.
   524  5.23  0.  0.
   525  5.24  0.  0.
   526  5.25  0.  0.
   527  5.26  0.  0.
   528  5.27  0.  0.
   529  5.28  0.  0.
   530  5.29  0.  0.
   531  5.30  0.  0.
   532  5.31  0.  0.
   533  5.32  0.  0.
   534  5.33  0.  0.
   535  5.34  0.  0.
   536  5.35  0.  0.
   537  5.36  0.  0.
   538  5.37  0.  0.
   539  5.38  0.  0.
   540  5.39  0.  0.
   541  5.40  0.  0.
   542  5.41  0.  0.
   543  5.42  0.  0.
   544  5.43  0.  0.
   545  5.44  0.  0.
   546  5.45  0.  0.
   547  5.46  0.  0.
   548  5.47  0.  0.
   549  5.48  0.  0.
   550  5.49  0.  0.
   551  5.50  0.  0.
   552  5.51  0.  0.
   553  5.52  0.  0.
   554  5.53  0.  0.
   555  5.54  0.  0.
   556  5.55  0.  0.
   557  5.56  0.  0.
   558  5.57  0.  0.
   559  5.58  0.  0.
   560  5.59  0.  0.
   561  5.60  0.  0.
   562  5.61  0.  0.
   563  5.62  0.  0.
   564  5.63  0.  0.
   565  5.64  0.  0.
   566  5.65  0.  0.
   567  5.66  0.  0.
   568  5.67  0.  0.
   569  5.68  0.  0.
   570  5.69  0.  0.
   571  5.70  0.  0.
   572  5.71  0.  0.
   573  5.72  0.  0.
   574  5.73  0.  0.
   575  5.74  0.  0.
   576  5.75  0.  0.
   577  5.76  0.  0.
   578  5.77  0.  0.
   579  5.78  0.  0.
   580  5.79  0.  0.
   581  5.80  0.  0.
   582  5.81  0.  0.
   583  5.82  0.  0.
   584  5.83  0.  0.
   585  5.84  0.  0.
   586  5.85  0.  0.
   587  5.86  0.  0.
   588  5.87  0.  0.
   589  5.88  0.  0.
   590  5.89  0.  0.
   591  5.90  0.  0.
   592  5.91  0.  0.
   593  5.92  0.  0.
   594  5.93  0.  0.
   595  5.94  0.  0.
   596  5.95  0.  0.
   597  5.96  0.  0.
   598  5.97  0.  0.
   599  5.98  0.  0.
   600  5.99  0.  0.
   1                        -3.9057699869141E+00 -1.2457411065053E+00
     1  0.0000000000000E+00 -9.0753568687818E-09  1.3204917655857E-08
     2  1.0000000000000E-02  1.3698589765378E-03 -2.9555767484737E-04
     3  2.0000000000000E-02  5.4819033465045E-03 -1.1877346113263E-03
     4  3.0000000000000E-02  1.2343326459888E-02 -2.6927551104958E-03
     5  4.0000000000000E-02  2.1965426243263E-02 -4.8367097693396E-03
     6  5.0000000000000E-02  3.4362588109968E-02 -7.6541591526675E-03
     7  6.0000000000000E-02  4.9550899345537E-02 -1.1186235252072E-02
     8  7.0000000000000E-02  6.7546432170323E-02 -1.5478295337738E-02
     9  8.0000000000000E-02  8.8363241756575E-02 -2.0577196013832E-02
    10  9.0000000000000E-02  1.1201113343510E-01 -2.6528266770859E-02
    11  1.0000000000000E-01  1.3849325997578E-01 -3.3372071797459E-02
    12  1.1000000000000E-01  1.6780361500150E-01 -4.1141056018457E-02
    13  1.2000000000000E-01  1.9992449216908E-01 -4.9856176074961E-02
    14  1.3000000000000E-01  2.3482398163119E-01 -5.9523619120113E-02
    15  1.4000000000000E-01  2.7245357542909E-01 -7.0131711800898E-02
    16  1.5000000000000E-01  3.1274595184728E-01 -8.1648118626771E-02
    17  1.6000000000000E-01  3.5561300541751E-01 -9.4017423145667E-02
    18  1.7000000000000E-01  4.0094418426454E-01 -1.0715917708497E-01
    19  1.8000000000000E-01  4.4860518994995E-01 -1.2096649205010E-01
    20  1.9000000000000E-01  4.9843708704134E-01 -1.3530523575130E-01
    21  2.0000000000000E-01  5.5025586049522E-01 -1.5001388034343E-01
    22  2.1000000000000E-01  6.0385244880288E-01 -1.6490403465535E-01
    23  2.2000000000000E-01  6.5899326994710E-01 -1.7976167523027E-01
    24  2.3000000000000E-01  7.1542124580818E-01 -1.9434907360626E-01
    25  2.4000000000000E-01  7.7285731901037E-01 -2.0840739955905E-01
    26  2.5000000000000E-01  8.3100244458953E-01 -2.2165996254630E-01
    27  2.6000000000000E-01  8.8954002756855E-01 -2.3381603676547E-01
    28  2.7000000000000E-01  9.4813876681789E-01 -2.4457519949072E-01
    29  2.8000000000000E-01  1.0064558557159E+00 -2.5363209808841E-01
    30  2.9000000000000E-01  1.0641404813470E+00 -2.6068154869620E-01
    31  3.0000000000000E-01  1.1208375565022E+00 -2.6542385931599E-01
    32  3.1000000000000E-01  1.1761916127645E+00 -2.6757026229592E-01
    33  3.2000000000000E-01  1.2298507786223E+00 -2.6684833608606E-01
    34  3.3000000000000E-01  1.2814707639745E+00 -2.6300729390568E-01
    35  3.4000000000000E-01  1.3307187716460E+00 -2.5582301765391E-01
    36  3.5000000000000E-01  1.3772772576497E+00 -2.4510271905204E-01
    37  3.6000000000000E-01  1.4208474649010E+00 -2.3068911657965E-01
    38  3.7000000000000E-01  1.4611526598556E+00 -2.1246402613841E-01
    39  3.8000000000000E-01  1.4979410079978E+00 -1.9035127536014E-01
    40  3.9000000000000E-01  1.5309880321124E+00 -1.6431886581494E-01
    41  4.0000000000000E-01  1.5600986066526E+00 -1.3438032375878E-01
    42  4.1000000000000E-01  1.5851084520468E+00 -1.0059519811814E-01
    43  4.2000000000000E-01  1.6058851042267E+00 -6.3068683730764E-02
    44  4.3000000000000E-01  1.6223283467447E+00 -2.1950367995022E-02
    45  4.4000000000000E-01  1.6343701052780E+00  2.2567880449012E-02
    46  4.5000000000000E-01  1.6419738168110E+00  7.0254842067432E-02
    47  4.6000000000000E-01  1.6451332980248E+00  1.2084363720170E-01
    48  4.7000000000000E-01  1.6438711491200E+00  1.7403610011818E-01
    49  4.8000000000000E-01  1.6382367401525E+00  2.2950774226289E-01
    50  4.9000000000000E-01  1.6283038367095E+00  2.8691319574730E-01
    51  5.0000000000000E-01  1.6141679301421E+00  3.4589201561624E-01
    52  5.1000000000000E-01  1.5959433443824E+00  4.0607470973945E-01
    53  5.2000000000000E-01  1.5737601964295E+00  4.6708885849978E-01
    54  5.3000000000000E-01  1.5477612907409E+00  5.2856518303140E-01
    55  5.4000000000000E-01  1.5180990289281E+00  5.9014342072423E-01
    56  5.5000000000000E-01  1.4849324152685E+00  6.5147787010774E-01
    57  5.6000000000000E-01  1.4484242356143E+00  7.1224247403003E-01
    58  5.7000000000000E-01  1.4087384823550E+00  7.7213532014415E-01
    59  5.8000000000000E-01  1.3660380912730E+00  8.3088245090931E-01
    60  5.9000000000000E-01  1.3204830475628E+00  8.8824089133968E-01
    61  6.0000000000000E-01  1.2722289081658E+00  9.4400082124161E-01
    62  6.1000000000000E-01  1.2214257761326E+00  9.9798683926459E-01
    63  6.2000000000000E-01  1.1682177502265E+00  1.0500582882829E+00
    64  6.3000000000000E-01  1.1127428597376E+00  1.1001086349126E+00
    65  6.4000000000000E-01  1.0551334807899E+00  1.1480639198044E+00
    66  6.5000000000000E-01  9.9551721664905E-01  1.1938803191665E+00
    67  6.6000000000000E-01  9.3401821100044E-01  1.2375408811865E+00
    68  6.7000000000000E-01  8.7075885022521E-01  1.2790515230600E+00
    69  6.8000000000000E-01  8.0586179867869E-01  1.3184363946481E+00
    70  6.9000000000000E-01  7.3945230019006E-01  1.3557327328462E+00
    71  7.0000000000000E-01  6.7166066974476E-01  1.3909853460845E+00
    72  7.1000000000000E-01  6.0262489183930E-01  1.4242408805712E+00
    73  7.2000000000000E-01  5.3249323652732E-01  1.4555420285890E+00
    74  7.3000000000000E-01  4.6142680088034E-01  1.4849218440867E+00
    75  7.4000000000000E-01  3.8960188258616E-01  1.5123983317948E+00
    76  7.5000000000000E-01  3.1721209377034E-01  1.5379694730321E+00
    77  7.6000000000000E-01  2.4447012686185E-01  1.5616088442764E+00
    78  7.7000000000000E-01  1.7160909038561E-01  1.5832619735336E+00
    79  7.8000000000000E-01  9.8883340847442E-02  1.6028435647608E+00
    80  7.9000000000000E-01  2.6568747220054E-02  1.6202357023692E+00
    81  8.0000000000000E-01 -4.5037663270851E-02  1.6352871265193E+00
    82  8.1000000000000E-01 -1.1561871558673E-01  1.6478136460022E+00
    83  8.2000000000000E-01 -1.8483877601290E-01  1.6575997294737E+00
    84  8.3000000000000E-01 -2.5234612646844E-01  1.6644012882902E+00
    85  8.4000000000000E-01 -3.1777601390173E-01  1.6679496357955E+00
    86  8.5000000000000E-01 -3.8075434794021E-01  1.6679565792956E+00
    87  8.6000000000000E-01 -4.4090200343959E-01  1.6641205728200E+00
    88  8.7000000000000E-01 -4.9783966867655E-01  1.6561338317658E+00
    89  8.8000000000000E-01 -5.5119316504421E-01  1.6436902853325E+00
    90  8.9000000000000E-01 -6.0059915061711E-01  1.6264942198994E+00
    91  9.0000000000000E-01 -6.4571110820110E-01  1.6042694467584E+00
    92  9.1000000000000E-01 -6.8620550878713E-01  1.5767688114172E+00
    93  9.2000000000000E-01 -7.2178803395617E-01  1.5437838494676E+00
    94  9.3000000000000E-01 -7.5219973595364E-01  1.5051543861292E+00
    95  9.4000000000000E-01 -7.7722301220394E-01  1.4607778739763E+00
    96  9.5000000000000E-01 -7.9668727009664E-01  1.4106182584860E+00
    97  9.6000000000000E-01 -8.1047398035116E-01  1.3547134411646E+00
    98  9.7000000000000E-01 -8.1851898733734E-01  1.2931734721471E+00
    99  9.8000000000000E-01 -8.2081336984695E-01  1.2261762547576E+00
   100  9.9000000000000E-01 -8.1740529770608E-01  1.1539700523579E+00
   101  1.0000000000000E+00 -8.0840126460133E-01  1.0768755505235E+00
   102  1.0100000000000E+00 -7.9396643053473E-01  9.9528648988384E-01
   103  1.0200000000000E+00 -7.7432402856017E-01  9.0966878879715E-01
   104  1.0300000000000E+00 -7.4975381059517E-01  8.2055811433997E-01
   105  1.0400000000000E+00 -7.2058952630255E-01  7.2855589233377E-01
   106  1.0500000000000E+00 -6.8721544906946E-01  6.3432378134902E-01
   107  1.0600000000000E+00 -6.5006198330780E-01  5.3857667001965E-01
   108  1.0700000000000E+00 -6.0960040716597E-01  4.4207429072848E-01
   109  1.0800000000000E+00 -5.6633682392083E-01  3.4561157518194E-01
   110  1.0900000000000E+00 -5.2080541328869E-01  2.5000790769448E-01
   111  1.1000000000000E+00 -4.7356109029915E-01  1.5609545955185E-01
   112  1.1100000000000E+00 -4.2517169383237E-01  6.4706811969356E-02
   113  1.1200000000000E+00 -3.7620983903409E-01 -2.3337904750116E-02
   114  1.1300000000000E+00 -3.2724457738208E-01 -1.0724411258065E-01
   115  1.1400000000000E+00 -2.7883301484340E-01 -1.8625587368081E-01
   116  1.1500000000000E+00 -2.3151204223166E-01 -2.5966870530766E-01
   117  1.1600000000000E+00 -1.8578973575008E-01 -3.2684343787917E-01
   118  1.1700000000000E+00 -1.4214348140198E-01 -3.8720262798309E-01
   119  1.1800000000000E+00 -1.0095017671676E-01 -4.4040655959904E-01
   120  1.1900000000000E+00 -6.2660170312251E-02 -4.8588524903230E-01
   121  1.2000000000000E+00 -2.7576663373102E-02 -5.2341789460174E-01
   122  1.2100000000000E+00  4.0302555339356E-03 -5.5282309846729E-01
   123  1.2200000000000E+00  3.1956559157758E-02 -5.7404142182171E-01
   124  1.2300000000000E+00  5.6062919295217E-02 -5.8712771872059E-01
   125  1.2400000000000E+00  7.6276391574693E-02 -5.9225265165849E-01
   126  1.2500000000000E+00  9.2590487058879E-02 -5.8970103813299E-01
   127  1.2600000000000E+00  1.0506404763272E-01 -5.7986815354062E-01
   128  1.2700000000000E+00  1.1381894111977E-01 -5.6325402719603E-01
   129  1.2800000000000E+00  1.1903661542532E-01 -5.4045580820408E-01
   130  1.2900000000000E+00  1.2095357387701E-01 -5.1215831694556E-01
   131  1.3000000000000E+00  1.1985585571813E-01 -4.7912293503369E-01
   132  1.3100000000000E+00  1.1607262589020E-01 -4.4217502088244E-01
   133  1.3200000000000E+00  1.0996899650049E-01 -4.0219006896105E-01
   134  1.3300000000000E+00  1.0193821830295E-01 -3.6007885770399E-01
   135  1.3400000000000E+00  9.2393393673469E-02 -3.1677185313486E-01
   136  1.3500000000000E+00  8.1758872751846E-02 -2.7320315224349E-01
   137  1.3600000000000E+00  7.0461500542728E-02 -2.3029426037732E-01
   138  1.3700000000000E+00  5.8921898227126E-02 -1.8893801977604E-01
   139  1.3800000000000E+00  4.7545948176128E-02 -1.4998298230364E-01
   140  1.3900000000000E+00  3.6721851559189E-02 -1.1422599495819E-01
   141  1.4000000000000E+00  2.6805770125555E-02 -8.2388773904594E-02
   142  1.4100000000000E+00  1.8107819498968E-02 -5.5095047362780E-02
   143  1.4200000000000E+00  1.0895458239286E-02 -3.2872999221558E-02
   144  1.4300000000000E+00  5.3893084764990E-03 -1.6149567492327E-02
   145  1.4400000000000E+00  1.7415312158529E-03 -5.1910808405370E-03
   146  1.4500000000000E+00  1.3691413317137E-04 -4.0630641097682E-04
   147  1.4600000000000E+00 -1.7115003793859E-05  5.0685292757257E-05
   148  1.4700000000000E+00  2.1403663214001E-06 -6.3487786389258E-06
   149  1.48 -0.  0.
   150  1.49  0.  0.