F     ONCVPSP-4.0.1  r_core=   1.30176   1.45845   1.60495
      9.0000      7.0000      250925    zatom,zion,pspd
     8   -1012   2     4   600     0    pspcod,pspxc,lmax,lloc,mmax,r2well
  5.99000000  2.50000000  0.00000000    rchrg fchrg qchrg
     2     2     1     0    nproj
     3     1           extension_switch
     3     2     0    nprojso
   0                         6.4412201724813E+00  1.0264048790178E+00
     1  0.0000000000000E+00  5.3230865271203E-09 -1.2273530164419E-08
     2  1.0000000000000E-02  9.2769458699054E-02 -2.5952995650964E-02
     3  2.0000000000000E-02  1.8531652863544E-01 -5.1789864381778E-02
     4  3.0000000000000E-02  2.7741793888039E-01 -7.7391612196372E-02
     5  4.0000000000000E-02  3.6884870380829E-01 -1.0263362503267E-01
     6  5.0000000000000E-02  4.5938138841418E-01 -1.2738314066065E-01
     7  6.0000000000000E-02  5.4878551688450E-01 -1.5149704979125E-01
     8  7.0000000000000E-02  6.3682716570680E-01 -1.7482012121551E-01
     9  8.0000000000000E-02  7.2326877728091E-01 -1.9718373352004E-01
    10  9.0000000000000E-02  8.0786922360702E-01 -2.1840518120819E-01
    11  1.0000000000000E-01  8.9038414234344E-01 -2.3828760629136E-01
    12  1.1000000000000E-01  9.7056655953975E-01 -2.5662058804899E-01
    13  1.2000000000000E-01  1.0481678048715E+00 -2.7318140418449E-01
    14  1.3000000000000E-01  1.1229387164545E+00 -2.8773695655196E-01
    15  1.4000000000000E-01  1.1946311235342E+00 -3.0004633453841E-01
    16  1.5000000000000E-01  1.2629995867620E+00 -3.0986396960664E-01
    17  1.6000000000000E-01  1.3278033676161E+00 -3.1694331597143E-01
    18  1.7000000000000E-01  1.3888085910275E+00 -3.2104097540964E-01
    19  1.8000000000000E-01  1.4457905586222E+00 -3.2192116926855E-01
    20  1.9000000000000E-01  1.4985361643951E+00 -3.1936044826161E-01
    21  2.0000000000000E-01  1.5468463602234E+00 -3.1315252098946E-01
    22  2.1000000000000E-01  1.5905386155606E+00 -3.0311307558885E-01
    23  2.2000000000000E-01  1.6294493140014E+00 -2.8908446570479E-01
    24  2.3000000000000E-01  1.6634360292422E+00 -2.7094013222705E-01
    25  2.4000000000000E-01  1.6923796243043E+00 -2.4858863596898E-01
    26  2.5000000000000E-01  1.7161861207094E+00 -2.2197718363583E-01
    27  2.6000000000000E-01  1.7347882885508E+00 -1.9109453988832E-01
    28  2.7000000000000E-01  1.7481469139964E+00 -1.5597323181538E-01
    29  2.8000000000000E-01  1.7562517075479E+00 -1.1669096837542E-01
    30  2.9000000000000E-01  1.7591218242237E+00 -7.3371215948386E-02
    31  3.0000000000000E-01  1.7568059755155E+00 -2.6182891606341E-02
    32  3.1000000000000E-01  1.7493821222983E+00  2.4660842459161E-02
    33  3.2000000000000E-01  1.7369567475988E+00  7.8904677276772E-02
    34  3.3000000000000E-01  1.7196637180143E+00  1.3625411926392E-01
    35  3.4000000000000E-01  1.6976627523600E+00  1.9637926480252E-01
    36  3.5000000000000E-01  1.6711375255617E+00  2.5891931428952E-01
    37  3.6000000000000E-01  1.6402934446498E+00  3.2348773277402E-01
    38  3.7000000000000E-01  1.6053551417172E+00  3.8967794644016E-01
    39  3.8000000000000E-01  1.5665637356621E+00  4.5706944894138E-01
    40  3.9000000000000E-01  1.5241739202534E+00  5.2523417938529E-01
    41  4.0000000000000E-01  1.4784509403742E+00  5.9374302496534E-01
    42  4.1000000000000E-01  1.4296675210820E+00  6.6217229612890E-01
    43  4.2000000000000E-01  1.3781008152934E+00  7.3011002094498E-01
    44  4.3000000000000E-01  1.3240294354015E+00  7.9716190808586E-01
    45  4.4000000000000E-01  1.2677306319558E+00  8.6295683455453E-01
    46  4.5000000000000E-01  1.2094776787266E+00  9.2715172486124E-01
    47  4.6000000000000E-01  1.1495375181051E+00  9.8943570256332E-01
    48  4.7000000000000E-01  1.0881687139842E+00  1.0495334126195E+00
    49  4.8000000000000E-01  1.0256197511854E+00  1.1072074334699E+00
    50  4.9000000000000E-01  9.6212771133284E-01  1.1622597206459E+00
    51  5.0000000000000E-01  8.9791734505675E-01  1.2145320484865E+00
    52  5.1000000000000E-01  8.3320054978737E-01  1.2639054425674E+00
    53  5.2000000000000E-01  7.6817625144044E-01  1.3102986220836E+00
    54  5.3000000000000E-01  7.0303067728856E-01  1.3536654979704E+00
    55  5.4000000000000E-01  6.3793799653882E-01  1.3939917983159E+00
    56  5.5000000000000E-01  5.7306129488810E-01  1.4312909169139E+00
    57  5.6000000000000E-01  5.0855383987687E-01  1.4655991029721E+00
    58  5.7000000000000E-01  4.4456058547249E-01  1.4969701294099E+00
    59  5.8000000000000E-01  3.8121985722001E-01  1.5254695932856E+00
    60  5.9000000000000E-01  3.1866515370928E-01  1.5511690142180E+00
    61  6.0000000000000E-01  2.5702699619340E-01  1.5741399047986E+00
    62  6.1000000000000E-01  1.9643475608595E-01  1.5944479906501E+00
    63  6.2000000000000E-01  1.3701838984831E-01  1.6121477567824E+00
    64  6.3000000000000E-01  7.8910012493812E-02  1.6272774911658E+00
    65  6.4000000000000E-01  2.2245244570088E-02  1.6398549860330E+00
    66  6.5000000000000E-01 -3.2835727024065E-02  1.6498740425121E+00
    67  6.6000000000000E-01 -8.6187426785682E-02  1.6573019050751E+00
    68  6.7000000000000E-01 -1.3765875047710E-01  1.6620777293592E+00
    69  6.8000000000000E-01 -1.8709304044248E-01  1.6641121607062E+00
    70  6.9000000000000E-01 -2.3432859830508E-01  1.6632880718478E+00
    71  7.0000000000000E-01 -2.7919964470689E-01  1.6594624772537E+00
    72  7.1000000000000E-01 -3.2153772289506E-01  1.6524696094720E+00
    73  7.2000000000000E-01 -3.6117352984110E-01  1.6421251101442E+00
    74  7.3000000000000E-01 -3.9793914552810E-01  1.6282312560727E+00
    75  7.4000000000000E-01 -4.3167061839703E-01  1.6105831095895E+00
    76  7.5000000000000E-01 -4.6221085303573E-01  1.5889754533301E+00
    77  7.6000000000000E-01 -4.8941273534208E-01  1.5632103431268E+00
    78  7.7000000000000E-01 -5.1314242089493E-01  1.5331050898305E+00
    79  7.8000000000000E-01 -5.3328270438942E-01  1.4985004620826E+00
    80  7.9000000000000E-01 -5.4973638196998E-01  1.4592688879492E+00
    81  8.0000000000000E-01 -5.6242951431393E-01  1.4153224243483E+00
    82  8.1000000000000E-01 -5.7131449652141E-01  1.3666202596608E+00
    83  8.2000000000000E-01 -5.7637284134355E-01  1.3131755170288E+00
    84  8.3000000000000E-01 -5.7761758506139E-01  1.2550611336565E+00
    85  8.4000000000000E-01 -5.7509523039149E-01  1.1924146048696E+00
    86  8.5000000000000E-01 -5.6888714805780E-01  1.1254414005251E+00
    87  8.6000000000000E-01 -5.5911036799726E-01  1.0544168852481E+00
    88  8.7000000000000E-01 -5.4591770236778E-01  9.7968660240837E-01
    89  8.8000000000000E-01 -5.2949715536295E-01  9.0166481413083E-01
    90  8.9000000000000E-01 -5.1007058902343E-01  8.2083122524893E-01
    91  9.0000000000000E-01 -4.8789162945161E-01  7.3772585715134E-01
    92  9.1000000000000E-01 -4.6324281373033E-01  6.5294207706422E-01
    93  9.2000000000000E-01 -4.3643199404903E-01  5.6711782853208E-01
    94  9.3000000000000E-01 -4.0778803166406E-01  4.8092514875058E-01
    95  9.4000000000000E-01 -3.7765582889588E-01  3.9505809666357E-01
    96  9.5000000000000E-01 -3.4639076478548E-01  3.1021926313795E-01
    97  9.6000000000000E-01 -3.1435264803398E-01  2.2710521233760E-01
    98  9.7000000000000E-01 -2.8190143900329E-01  1.4639999085896E-01
    99  9.8000000000000E-01 -2.4939608639775E-01  6.8780911511242E-02
   100  9.9000000000000E-01 -2.1719031645738E-01 -5.0895893405777E-03
   101  1.0000000000000E+00 -1.8562728422859E-01 -7.4576971641552E-02
   102  1.0100000000000E+00 -1.5503429082366E-01 -1.3908742585558E-01
   103  1.0200000000000E+00 -1.2571768436945E-01 -1.9808021801088E-01
   104  1.0300000000000E+00 -9.7958055856965E-02 -2.5107926754774E-01
   105  1.0400000000000E+00 -7.2005836414253E-02 -2.9768369271978E-01
   106  1.0500000000000E+00 -4.8077395593259E-02 -3.3757707622876E-01
   107  1.0600000000000E+00 -2.6351730928685E-02 -3.7053522772764E-01
   108  1.0700000000000E+00 -6.9678275034577E-03 -3.9643224919170E-01
   109  1.0800000000000E+00  9.9772471591801E-03 -4.1524474317470E-01
   110  1.0900000000000E+00  2.4429462660151E-02 -4.2705404212654E-01
   111  1.1000000000000E+00  3.6378125900759E-02 -4.3204637819549E-01
   112  1.1100000000000E+00  4.5855345371203E-02 -4.3051095653453E-01
   113  1.1200000000000E+00  5.2934660963549E-02 -4.2283594005916E-01
   114  1.1300000000000E+00  5.7728858762497E-02 -4.0950239877599E-01
   115  1.1400000000000E+00  6.0387008112252E-02 -3.9107632140655E-01
   116  1.1500000000000E+00  6.1090775379902E-02 -3.6819882976096E-01
   117  1.1600000000000E+00  6.0050084980191E-02 -3.4157477653834E-01
   118  1.1700000000000E+00  5.7498212883849E-02 -3.1195994368404E-01
   119  1.1800000000000E+00  5.3686410774764E-02 -2.8014709055514E-01
   120  1.1900000000000E+00  4.8878169871237E-02 -2.4695112799978E-01
   121  1.2000000000000E+00  4.3343241954373E-02 -2.1319371547862E-01
   122  1.2100000000000E+00  3.7351541160280E-02 -1.7968759307452E-01
   123  1.2200000000000E+00  3.1167050690702E-02 -1.4722096472647E-01
   124  1.2300000000000E+00  2.5041875511168E-02 -1.1654226233092E-01
   125  1.2400000000000E+00  1.9209874404653E-02 -8.8344683864224E-02
   126  1.2500000000000E+00  1.3875717087762E-02 -6.3243693142788E-02
   127  1.2600000000000E+00  9.2252371101139E-03 -4.1787773613458E-02
   128  1.2700000000000E+00  5.4138265625768E-03 -2.4436361771958E-02
   129  1.2800000000000E+00  2.5619177576377E-03 -1.1552369537037E-02
   130  1.2900000000000E+00  7.4481807705877E-04 -3.3636953019009E-03
   131  1.3000000000000E+00  3.0246583536492E-05 -1.3719221817106E-04
   132  1.3100000000000E+00  1.0858766974294E-06 -4.9176940288115E-06
   133  1.3200000000000E+00 -7.7306262780539E-07  3.4960681221197E-06
   134  1.33  0.  0.
   135  1.34  0.  0.
   136  1.35  0.  0.
   137  1.36  0.  0.
   138  1.37  0.  0.
   139  1.38  0.  0.
   140  1.39  0.  0.
   141  1.40  0.  0.
   142  1.41  0.  0.
   143  1.42  0.  0.
   144  1.43  0.  0.
   145  1.44  0.  0.
   146  1.45  0.  0.
   147  1.46  0.  0.
   148  1.47  0.  0.
   149  1.48  0.  0.
   150  1.49  0.  0.
   151  1.50  0.  0.
   152  1.51  0.  0.
   153  1.52  0.  0.
   154  1.53  0.  0.
   155  1.54  0.  0.
   156  1.55  0.  0.
   157  1.56  0.  0.
   158  1.57  0.  0.
   159  1.58  0.  0.
   160  1.59  0.  0.
   161  1.60  0.  0.
   162  1.61  0.  0.
   163  1.62  0.  0.
   164  1.63  0.  0.
   165  1.64  0.  0.
   166  1.65  0.  0.
   167  1.66  0.  0.
   168  1.67  0.  0.
   169  1.68  0.  0.
   170  1.69  0.  0.
   171  1.70  0.  0.
   172  1.71  0.  0.
   173  1.72  0.  0.
   174  1.73  0.  0.
   175  1.74  0.  0.
   176  1.75  0.  0.
   177  1.76  0.  0.
   178  1.77  0.  0.
   179  1.78  0.  0.
   180  1.79  0.  0.
   181  1.80  0.  0.
   182  1.81  0.  0.
   183  1.82  0.  0.
   184  1.83  0.  0.
   185  1.84  0.  0.
   186  1.85  0.  0.
   187  1.86  0.  0.
   188  1.87  0.  0.
   189  1.88  0.  0.
   190  1.89  0.  0.
   191  1.90  0.  0.
   192  1.91  0.  0.
   193  1.92  0.  0.
   194  1.93  0.  0.
   195  1.94  0.  0.
   196  1.95  0.  0.
   197  1.96  0.  0.
   198  1.97  0.  0.
   199  1.98  0.  0.
   200  1.99  0.  0.
   201  2.00  0.  0.
   202  2.01  0.  0.
   203  2.02  0.  0.
   204  2.03  0.  0.
   205  2.04  0.  0.
   206  2.05  0.  0.
   207  2.06  0.  0.
   208  2.07  0.  0.
   209  2.08  0.  0.
   210  2.09  0.  0.
   211  2.10  0.  0.
   212  2.11  0.  0.
   213  2.12  0.  0.
   214  2.13  0.  0.
   215  2.14  0.  0.
   216  2.15  0.  0.
   217  2.16  0.  0.
   218  2.17  0.  0.
   219  2.18  0.  0.
   220  2.19  0.  0.
   221  2.20  0.  0.
   222  2.21  0.  0.
   223  2.22  0.  0.
   224  2.23  0.  0.
   225  2.24  0.  0.
   226  2.25  0.  0.
   227  2.26  0.  0.
   228  2.27  0.  0.
   229  2.28  0.  0.
   230  2.29  0.  0.
   231  2.30  0.  0.
   232  2.31  0.  0.
   233  2.32  0.  0.
   234  2.33  0.  0.
   235  2.34  0.  0.
   236  2.35  0.  0.
   237  2.36  0.  0.
   238  2.37  0.  0.
   239  2.38  0.  0.
   240  2.39  0.  0.
   241  2.40  0.  0.
   242  2.41  0.  0.
   243  2.42  0.  0.
   244  2.43  0.  0.
   245  2.44  0.  0.
   246  2.45  0.  0.
   247  2.46  0.  0.
   248  2.47  0.  0.
   249  2.48  0.  0.
   250  2.49  0.  0.
   251  2.50  0.  0.
   252  2.51  0.  0.
   253  2.52  0.  0.
   254  2.53  0.  0.
   255  2.54  0.  0.
   256  2.55  0.  0.
   257  2.56  0.  0.
   258  2.57  0.  0.
   259  2.58  0.  0.
   260  2.59  0.  0.
   261  2.60  0.  0.
   262  2.61  0.  0.
   263  2.62  0.  0.
   264  2.63  0.  0.
   265  2.64  0.  0.
   266  2.65  0.  0.
   267  2.66  0.  0.
   268  2.67  0.  0.
   269  2.68  0.  0.
   270  2.69  0.  0.
   271  2.70  0.  0.
   272  2.71  0.  0.
   273  2.72  0.  0.
   274  2.73  0.  0.
   275  2.74  0.  0.
   276  2.75  0.  0.
   277  2.76  0.  0.
   278  2.77  0.  0.
   279  2.78  0.  0.
   280  2.79  0.  0.
   281  2.80  0.  0.
   282  2.81  0.  0.
   283  2.82  0.  0.
   284  2.83  0.  0.
   285  2.84  0.  0.
   286  2.85  0.  0.
   287  2.86  0.  0.
   288  2.87  0.  0.
   289  2.88  0.  0.
   290  2.89  0.  0.
   291  2.90  0.  0.
   292  2.91  0.  0.
   293  2.92  0.  0.
   294  2.93  0.  0.
   295  2.94  0.  0.
   296  2.95  0.  0.
   297  2.96  0.  0.
   298  2.97  0.  0.
   299  2.98  0.  0.
   300  2.99  0.  0.
   301  3.00  0.  0.
   302  3.01  0.  0.
   303  3.02  0.  0.
   304  3.03  0.  0.
   305  3.04  0.  0.
   306  3.05  0.  0.
   307  3.06  0.  0.
   308  3.07  0.  0.
   309  3.08  0.  0.
   310  3.09  0.  0.
   311  3.10  0.  0.
   312  3.11  0.  0.
   313  3.12  0.  0.
   314  3.13  0.  0.
   315  3.14  0.  0.
   316  3.15  0.  0.
   317  3.16  0.  0.
   318  3.17  0.  0.
   319  3.18  0.  0.
   320  3.19  0.  0.
   321  3.20  0.  0.
   322  3.21  0.  0.
   323  3.22  0.  0.
   324  3.23  0.  0.
   325  3.24  0.  0.
   326  3.25  0.  0.
   327  3.26  0.  0.
   328  3.27  0.  0.
   329  3.28  0.  0.
   330  3.29  0.  0.
   331  3.30  0.  0.
   332  3.31  0.  0.
   333  3.32  0.  0.
   334  3.33  0.  0.
   335  3.34  0.  0.
   336  3.35  0.  0.
   337  3.36  0.  0.
   338  3.37  0.  0.
   339  3.38  0.  0.
   340  3.39  0.  0.
   341  3.40  0.  0.
   342  3.41  0.  0.
   343  3.42  0.  0.
   344  3.43  0.  0.
   345  3.44  0.  0.
   346  3.45  0.  0.
   347  3.46  0.  0.
   348  3.47  0.  0.
   349  3.48  0.  0.
   350  3.49  0.  0.
   351  3.50  0.  0.
   352  3.51  0.  0.
   353  3.52  0.  0.
   354  3.53  0.  0.
   355  3.54  0.  0.
   356  3.55  0.  0.
   357  3.56  0.  0.
   358  3.57  0.  0.
   359  3.58  0.  0.
   360  3.59  0.  0.
   361  3.60  0.  0.
   362  3.61  0.  0.
   363  3.62  0.  0.
   364  3.63  0.  0.
   365  3.64  0.  0.
   366  3.65  0.  0.
   367  3.66  0.  0.
   368  3.67  0.  0.
   369  3.68  0.  0.
   370  3.69  0.  0.
   371  3.70  0.  0.
   372  3.71  0.  0.
   373  3.72  0.  0.
   374  3.73  0.  0.
   375  3.74  0.  0.
   376  3.75  0.  0.
   377  3.76  0.  0.
   378  3.77  0.  0.
   379  3.78  0.  0.
   380  3.79  0.  0.
   381  3.80  0.  0.
   382  3.81  0.  0.
   383  3.82  0.  0.
   384  3.83  0.  0.
   385  3.84  0.  0.
   386  3.85  0.  0.
   387  3.86  0.  0.
   388  3.87  0.  0.
   389  3.88  0.  0.
   390  3.89  0.  0.
   391  3.90  0.  0.
   392  3.91  0.  0.
   393  3.92  0.  0.
   394  3.93  0.  0.
   395  3.94  0.  0.
   396  3.95  0.  0.
   397  3.96  0.  0.
   398  3.97  0.  0.
   399  3.98  0.  0.
   400  3.99  0.  0.
   401  4.00  0.  0.
   402  4.01  0.  0.
   403  4.02  0.  0.
   404  4.03  0.  0.
   405  4.04  0.  0.
   406  4.05  0.  0.
   407  4.06  0.  0.
   408  4.07  0.  0.
   409  4.08  0.  0.
   410  4.09  0.  0.
   411  4.10  0.  0.
   412  4.11  0.  0.
   413  4.12  0.  0.
   414  4.13  0.  0.
   415  4.14  0.  0.
   416  4.15  0.  0.
   417  4.16  0.  0.
   418  4.17  0.  0.
   419  4.18  0.  0.
   420  4.19  0.  0.
   421  4.20  0.  0.
   422  4.21  0.  0.
   423  4.22  0.  0.
   424  4.23  0.  0.
   425  4.24  0.  0.
   426  4.25  0.  0.
   427  4.26  0.  0.
   428  4.27  0.  0.
   429  4.28  0.  0.
   430  4.29  0.  0.
   431  4.30  0.  0.
   432  4.31  0.  0.
   433  4.32  0.  0.
   434  4.33  0.  0.
   435  4.34  0.  0.
   436  4.35  0.  0.
   437  4.36  0.  0.
   438  4.37  0.  0.
   439  4.38  0.  0.
   440  4.39  0.  0.
   441  4.40  0.  0.
   442  4.41  0.  0.
   443  4.42  0.  0.
   444  4.43  0.  0.
   445  4.44  0.  0.
   446  4.45  0.  0.
   447  4.46  0.  0.
   448  4.47  0.  0.
   449  4.48  0.  0.
   450  4.49  0.  0.
   451  4.50  0.  0.
   452  4.51  0.  0.
   453  4.52  0.  0.
   454  4.53  0.  0.
   455  4.54  0.  0.
   456  4.55  0.  0.
   457  4.56  0.  0.
   458  4.57  0.  0.
   459  4.58  0.  0.
   460  4.59  0.  0.
   461  4.60  0.  0.
   462  4.61  0.  0.
   463  4.62  0.  0.
   464  4.63  0.  0.
   465  4.64  0.  0.
   466  4.65  0.  0.
   467  4.66  0.  0.
   468  4.67  0.  0.
   469  4.68  0.  0.
   470  4.69  0.  0.
   471  4.70  0.  0.
   472  4.71  0.  0.
   473  4.72  0.  0.
   474  4.73  0.  0.
   475  4.74  0.  0.
   476  4.75  0.  0.
   477  4.76  0.  0.
   478  4.77  0.  0.
   479  4.78  0.  0.
   480  4.79  0.  0.
   481  4.80  0.  0.
   482  4.81  0.  0.
   483  4.82  0.  0.
   484  4.83  0.  0.
   485  4.84  0.  0.
   486  4.85  0.  0.
   487  4.86  0.  0.
   488  4.87  0.  0.
   489  4.88  0.  0.
   490  4.89  0.  0.
   491  4.90  0.  0.
   492  4.91  0.  0.
   493  4.92  0.  0.
   494  4.93  0.  0.
   495  4.94  0.  0.
   496  4.95  0.  0.
   497  4.96  0.  0.
   498  4.97  0.  0.
   499  4.98  0.  0.
   500  4.99  0.  0.
   501  5.00  0.  0.
   502  5.01  0.  0.
   503  5.02  0.  0.
   504  5.03  0.  0.
   505  5.04  0.  0.
   506  5.05  0.  0.
   507  5.06  0.  0.
   508  5.07  0.  0.
   509  5.08  0.  0.
   510  5.09  0.  0.
   511  5.10  0.  0.
   512  5.11  0.  0.
   513  5.12  0.  0.
   514  5.13  0.  0.
   515  5.14  0.  0.
   516  5.15  0.  0.
   517  5.16  0.  0.
   518  5.17  0.  0.
   519  5.18  0.  0.
   520  5.19  0.  0.
   521  5.20  0.  0.
   522  5.21  0.  0.
   523  5.22  0.  0.
   524  5.23  0.  0.
   525  5.24  0.  0.
   526  5.25  0.  0.
   527  5.26  0.  0.
   528  5.27  0.  0.
   529  5.28  0.  0.
   530  5.29  0.  0.
   531  5.30  0.  0.
   532  5.31  0.  0.
   533  5.32  0.  0.
   534  5.33  0.  0.
   535  5.34  0.  0.
   536  5.35  0.  0.
   537  5.36  0.  0.
   538  5.37  0.  0.
   539  5.38  0.  0.
   540  5.39  0.  0.
   541  5.40  0.  0.
   542  5.41  0.  0.
   543  5.42  0.  0.
   544  5.43  0.  0.
   545  5.44  0.  0.
   546  5.45  0.  0.
   547  5.46  0.  0.
   548  5.47  0.  0.
   549  5.48  0.  0.
   550  5.49  0.  0.
   551  5.50  0.  0.
   552  5.51  0.  0.
   553  5.52  0.  0.
   554  5.53  0.  0.
   555  5.54  0.  0.
   556  5.55  0.  0.
   557  5.56  0.  0.
   558  5.57  0.  0.
   559  5.58  0.  0.
   560  5.59  0.  0.
   561  5.60  0.  0.
   562  5.61  0.  0.
   563  5.62  0.  0.
   564  5.63  0.  0.
   565  5.64  0.  0.
   566  5.65  0.  0.
   567  5.66  0.  0.
   568  5.67  0.  0.
   569  5.68  0.  0.
   570  5.69  0.  0.
   571  5.70  0.  0.
   572  5.71  0.  0.
   573  5.72  0.  0.
   574  5.73  0.  0.
   575  5.74  0.  0.
   576  5.75  0.  0.
   577  5.76  0.  0.
   578  5.77  0.  0.
   579  5.78  0.  0.
   580  5.79  0.  0.
   581  5.80  0.  0.
   582  5.81  0.  0.
   583  5.82  0.  0.
   584  5.83  0.  0.
   585  5.84  0.  0.
   586  5.85  0.  0.
   587  5.86  0.  0.
   588  5.87  0.  0.
   589  5.88  0.  0.
   590  5.89  0.  0.
   591  5.90  0.  0.
   592  5.91  0.  0.
   593  5.92  0.  0.
   594  5.93  0.  0.
   595  5.94  0.  0.
   596  5.95  0.  0.
   597  5.96  0.  0.
   598  5.97  0.  0.
   599  5.98  0.  0.
   600  5.99  0.  0.
   1                        -3.8988241855562E+00 -1.2363814077897E+00
     1  0.0000000000000E+00 -8.7558909150909E-09  1.2929446423227E-08
     2  1.0000000000000E-02  1.3627137986485E-03 -2.8376034900818E-04
     3  2.0000000000000E-02  5.4532173922301E-03 -1.1406378749883E-03
     4  3.0000000000000E-02  1.2278394621897E-02 -2.5871379099930E-03
     5  4.0000000000000E-02  2.1849048091418E-02 -4.6498303472936E-03
     6  5.0000000000000E-02  3.4178912152429E-02 -7.3639690298700E-03
     7  6.0000000000000E-02  4.9283307989910E-02 -1.0771613933961E-02
     8  7.0000000000000E-02  6.7177476654859E-02 -1.4919309531080E-02
     9  8.0000000000000E-02  8.7874634647034E-02 -1.9855385641354E-02
    10  9.0000000000000E-02  1.1138380433991E-01 -2.5626958355620E-02
    11  1.0000000000000E-01  1.3770747797625E-01 -3.2276717914440E-02
    12  1.1000000000000E-01  1.6683917898996E-01 -3.9839597549296E-02
    13  1.2000000000000E-01  1.9876098790299E-01 -4.8339422024363E-02
    14  1.3000000000000E-01  2.3344110191830E-01 -5.7785636837235E-02
    15  1.4000000000000E-01  2.7083149752873E-01 -6.8170218669961E-02
    16  1.5000000000000E-01  3.1086576397711E-01 -7.9464864721270E-02
    17  1.6000000000000E-01  3.5345717226202E-01 -9.1618553049609E-02
    18  1.7000000000000E-01  3.9849703965356E-01 -1.0455555813127E-01
    19  1.8000000000000E-01  4.4585344346870E-01 -1.1817399566404E-01
    20  1.9000000000000E-01  4.9537033029558E-01 -1.3234495845540E-01
    21  2.0000000000000E-01  5.4686705812332E-01 -1.4691229130796E-01
    22  2.1000000000000E-01  6.0013839912762E-01 -1.6169303747909E-01
    23  2.2000000000000E-01  6.5495502040796E-01 -1.7647857290998E-01
    24  2.3000000000000E-01  7.1106444901193E-01 -1.9103642738342E-01
    25  2.4000000000000E-01  7.6819251637234E-01 -2.0511277448970E-01
    26  2.5000000000000E-01  8.2604526608736E-01 -2.1843555517816E-01
    27  2.6000000000000E-01  8.8431129805712E-01 -2.3071818316740E-01
    28  2.7000000000000E-01  9.4266451161305E-01 -2.4166376499190E-01
    29  2.8000000000000E-01  1.0007672006858E+00 -2.5096975336678E-01
    30  2.9000000000000E-01  1.0582734454887E+00 -2.5833294021701E-01
    31  3.0000000000000E-01  1.1148327378533E+00 -2.6345468546555E-01
    32  3.1000000000000E-01  1.1700937714245E+00 -2.6604626978303E-01
    33  3.2000000000000E-01  1.2237083235576E+00 -2.6583425419267E-01
    34  3.3000000000000E-01  1.2753351530676E+00 -2.6256572686139E-01
    35  3.4000000000000E-01  1.3246438370428E+00 -2.5601331769155E-01
    36  3.5000000000000E-01  1.3713184707831E+00 -2.4597986448874E-01
    37  3.6000000000000E-01  1.4150611575486E+00 -2.3230262048457E-01
    38  3.7000000000000E-01  1.4555952191610E+00 -2.1485690173273E-01
    39  3.8000000000000E-01  1.4926680644951E+00 -1.9355908420080E-01
    40  3.9000000000000E-01  1.5260536603993E+00 -1.6836887401257E-01
    41  4.0000000000000E-01  1.5555545584267E+00 -1.3929078996128E-01
    42  4.1000000000000E-01  1.5810034407396E+00 -1.0637481476477E-01
    43  4.2000000000000E-01  1.6022641594417E+00 -6.9716190176951E-02
    44  4.3000000000000E-01  1.6192322551340E+00 -2.9454350574930E-02
    45  4.4000000000000E-01  1.6318349524239E+00  1.4228990446731E-02
    46  4.5000000000000E-01  1.6400306421406E+00  6.1112566098297E-02
    47  4.6000000000000E-01  1.6438078718515E+00  1.1093904135630E-01
    48  4.7000000000000E-01  1.6431838776352E+00  1.6341918490164E-01
    49  4.8000000000000E-01  1.6382027006768E+00  2.1823663925713E-01
    50  4.9000000000000E-01  1.6289329418372E+00  2.7505318542785E-01
    51  5.0000000000000E-01  1.6154652156832E+00  3.3351438571096E-01
    52  5.1000000000000E-01  1.5979093723188E+00  3.9325547832408E-01
    53  5.2000000000000E-01  1.5763915605625E+00  4.5390739038400E-01
    54  5.3000000000000E-01  1.5510512094255E+00  5.1510273176337E-01
    55  5.4000000000000E-01  1.5220380063525E+00  5.7648163160678E-01
    56  5.5000000000000E-01  1.4895089502492E+00  6.3769728186455E-01
    57  5.6000000000000E-01  1.4536255549157E+00  6.9842105809329E-01
    58  5.7000000000000E-01  1.4145512741784E+00  7.5834709688284E-01
    59  5.8000000000000E-01  1.3724492138513E+00  8.1719622143299E-01
    60  5.9000000000000E-01  1.3274801877850E+00  8.7471912177072E-01
    61  6.0000000000000E-01  1.2798011658631E+00  9.3069871355709E-01
    62  6.1000000000000E-01  1.2295641510852E+00  9.8495161899599E-01
    63  6.2000000000000E-01  1.1769155110889E+00  1.0373287345910E+00
    64  6.3000000000000E-01  1.1219957768893E+00  1.0877148729124E+00
    65  6.4000000000000E-01  1.0649399085458E+00  1.1360274886166E+00
    66  6.5000000000000E-01  1.0058780142374E+00  1.1822145221531E+00
    67  6.6000000000000E-01  9.4493649614692E-01  1.2262514173533E+00
    68  6.7000000000000E-01  8.8223958396213E-01  1.2681373908494E+00
    69  6.8000000000000E-01  8.1791120501450E-01  1.3078910514981E+00
    70  6.9000000000000E-01  7.5207712939773E-01  1.3455454861531E+00
    71  7.0000000000000E-01  6.8486731912421E-01  1.3811429437846E+00
    72  7.1000000000000E-01  6.1641840274136E-01  1.4147292626526E+00
    73  7.2000000000000E-01  5.4687619105763E-01  1.4463481946576E+00
    74  7.3000000000000E-01  4.7639814589736E-01  1.4760357868297E+00
    75  7.4000000000000E-01  4.0515571224097E-01  1.5038149819714E+00
    76  7.5000000000000E-01  3.3333642479232E-01  1.5296905986359E+00
    77  7.6000000000000E-01  2.6114570297158E-01  1.5536448448656E+00
    78  7.7000000000000E-01  1.8880825353046E-01  1.5756335105133E+00
    79  7.8000000000000E-01  1.1656900734155E-01  1.5955829696843E+00
    80  7.9000000000000E-01  4.4693526287189E-02  1.6133881081165E+00
    81  8.0000000000000E-01 -2.6532172624971E-02  1.6289112705083E+00
    82  8.1000000000000E-01 -9.6802415998490E-02  1.6419823003208E+00
    83  8.2000000000000E-01 -1.6579332160987E-01  1.6523997199103E+00
    84  8.3000000000000E-01 -2.3316490566557E-01  1.6599330725486E+00
    85  8.4000000000000E-01 -2.9856384486963E-01  1.6643264205392E+00
    86  8.5000000000000E-01 -3.6162687237726E-01  1.6653029658907E+00
    87  8.6000000000000E-01 -4.2198477076297E-01  1.6625707324942E+00
    88  8.7000000000000E-01 -4.7926690966300E-01  1.6558292221382E+00
    89  8.8000000000000E-01 -5.3310626113814E-01  1.6447769316210E+00
    90  8.9000000000000E-01 -5.8314481241056E-01  1.6291195953037E+00
    91  9.0000000000000E-01 -6.2903928379684E-01  1.6085789972685E+00
    92  9.1000000000000E-01 -6.7046704970119E-01  1.5829021803248E+00
    93  9.2000000000000E-01 -7.0713215271698E-01  1.5518708658900E+00
    94  9.3000000000000E-01 -7.3877129543832E-01  1.5153108896461E+00
    95  9.4000000000000E-01 -7.6515969172593E-01  1.4731014533064E+00
    96  9.5000000000000E-01 -7.8611665739558E-01  1.4251839863382E+00
    97  9.6000000000000E-01 -8.0151080260265E-01  1.3715703337374E+00
    98  9.7000000000000E-01 -8.1126343661439E-01  1.3123450446452E+00
    99  9.8000000000000E-01 -8.1534927938587E-01  1.2476595519536E+00
   100  9.9000000000000E-01 -8.1379807369524E-01  1.1777331711771E+00
   101  1.0000000000000E+00 -8.0669604933933E-01  1.1028556074012E+00
   102  1.0100000000000E+00 -7.9418654830087E-01  1.0233881106543E+00
   103  1.0200000000000E+00 -7.7646975994091E-01  9.3976318458704E-01
   104  1.0300000000000E+00 -7.5380153514714E-01  8.5248279473259E-01
   105  1.0400000000000E+00 -7.2649126684373E-01  7.6211505488321E-01
   106  1.0500000000000E+00 -6.9489884328702E-01  6.6928940288955E-01
   107  1.0600000000000E+00 -6.5943069992359E-01  5.7469031051211E-01
   108  1.0700000000000E+00 -6.2053501483828E-01  4.7904960501289E-01
   109  1.0800000000000E+00 -5.7869611147972E-01  3.8313751212938E-01
   110  1.0900000000000E+00 -5.3442815010945E-01  2.8775256039086E-01
   111  1.1000000000000E+00 -4.8826820576347E-01  1.9371051453907E-01
   112  1.1100000000000E+00 -4.4076884515318E-01  1.0183253061161E-01
   113  1.1200000000000E+00 -3.9249032747952E-01  1.2932746379550E-02
   114  1.1300000000000E+00 -3.4399256429172E-01 -7.2194462201348E-02
   115  1.1400000000000E+00 -2.9582698105978E-01 -1.5278731545302E-01
   116  1.1500000000000E+00 -2.4852842781844E-01 -2.2812930479706E-01
   117  1.1600000000000E+00 -2.0260728796337E-01 -2.9756145503077E-01
   118  1.1700000000000E+00 -1.5854193295391E-01 -3.6049392405203E-01
   119  1.1800000000000E+00 -1.1677166627970E-01 -4.1641669821472E-01
   120  1.1900000000000E+00 -7.7690292645537E-02 -4.6490915484080E-01
   121  1.2000000000000E+00 -4.1640438056451E-02 -5.0564828167349E-01
   122  1.2100000000000E+00 -8.9087334333099E-03 -5.3841536606555E-01
   123  1.2200000000000E+00  2.0278040992880E-02 -5.6310099367119E-01
   124  1.2300000000000E+00  4.5755770997077E-02 -5.7970822739050E-01
   125  1.2400000000000E+00  6.7424723267344E-02 -5.8835387108224E-01
   126  1.2500000000000E+00  8.5250120696107E-02 -5.8926775888494E-01
   127  1.2600000000000E+00  9.9261560820637E-02 -5.8279004906389E-01
   128  1.2700000000000E+00  1.0955128258732E-01 -5.6936654006803E-01
   129  1.2800000000000E+00  1.1627130926729E-01 -5.4954206558612E-01
   130  1.2900000000000E+00  1.1962951760233E-01 -5.2395206374070E-01
   131  1.3000000000000E+00  1.1988470462535E-01 -4.9331245230807E-01
   132  1.3100000000000E+00  1.1734074379713E-01 -4.5840797652258E-01
   133  1.3200000000000E+00  1.1233994055265E-01 -4.2007922762050E-01
   134  1.3300000000000E+00  1.0525571370104E-01 -3.7920855819655E-01
   135  1.3400000000000E+00  9.6484743040016E-02 -3.3670514411488E-01
   136  1.3500000000000E+00  8.6438734774808E-02 -2.9348946170113E-01
   137  1.3600000000000E+00  7.5535961861478E-02 -2.5047745878286E-01
   138  1.3700000000000E+00  6.4192773443667E-02 -2.0856475263536E-01
   139  1.3800000000000E+00  5.2815098947242E-02 -1.6861094515674E-01
   140  1.3900000000000E+00  4.1791796243688E-02 -1.3142677898546E-01
   141  1.4000000000000E+00  3.1491888634122E-02 -9.7767244794313E-02
   142  1.4100000000000E+00  2.2240994596986E-02 -6.8294700996296E-02
   143  1.4200000000000E+00  1.4323368001958E-02 -4.3579260074440E-02
   144  1.4300000000000E+00  7.9787427644001E-03 -2.4092186939345E-02
   145  1.4400000000000E+00  3.3985688651822E-03 -1.0200037200540E-02
   146  1.4500000000000E+00  7.2063693673178E-04 -2.1527667548657E-03
   147  1.4600000000000E+00 -2.7908261247317E-05  8.3170005882650E-05
   148  1.4700000000000E+00  1.0432719484694E-05 -3.1094308860656E-05
   149  1.48  0.  0.