<UPF version="2.0.1">
  <PP_INFO>

 This pseudopotential file has been produced using the code
 ONCVPSP  (Optimized Norm-Conservinng Vanderbilt PSeudopotential)
 fully-relativistic version 4.0.1 06/04/2019 by D. R. Hamann
 The code is available through a link at URL www.mat-simresearch.com.
 Documentation with the package provides a full discription of the
 input data below.


 While it is not required under the terms of the GNU GPL, it is
 suggested that you cite D. R. Hamann, Phys. Rev. B 88, 085117 (2013)
 in any publication using these pseudopotentials.

    <PP_INPUTFILE>
# ATOM AND REFERENCE CONFIGURATION
# atsym  z   nc   nv     iexc    psfile
  F  9.00    1    2   -1012      both
#
#   n    l    f        energy (Ha)
    1    0    2.00
    2    0    2.00
    2    1    5.00
#
# PSEUDOPOTENTIAL AND OPTIMIZATION
# lmax
    2
#
#   l,   rc,     ep,   ncon, nbas, qcut
    0   1.30000   0.00000    4    8   8.60000
    1   1.45000   0.00000    4    8   9.00000
    2   1.60000   0.15000    4    8   5.80000
#
# LOCAL POTENTIAL
# lloc, lpopt,  rc(5),   dvloc0
    4    5   0.95000      0.00000
#
# VANDERBILT-KLEINMAN-BYLANDER PROJECTORs
# l, nproj, debl
    0    2   1.50000
    1    2   1.50000
    2    1   2.00000
#
# MODEL CORE CHARGE
# icmod, fcfact, rcfact
    3   2.50000   1.85000
#
# LOG DERIVATIVE ANALYSIS
# epsh1, epsh2, depsh
  -12.00   12.00    0.02
#
# OUTPUT GRID
# rlmax, drl
    6.00    0.01
#
# TEST CONFIGURATIONS
# ncnf
    0
# nvcnf
#   n    l    f
    </PP_INPUTFILE>
  </PP_INFO>
  <!--                               -->
  <!-- END OF HUMAN READABLE SECTION -->
  <!--                               -->
    <PP_HEADER
       generated="Generated using ONCVPSP code by D. R. Hamann"
       author="anonymous"
       date="250925"
       comment=""
       element="F "
       pseudo_type="NC"
       relativistic="full"
       is_ultrasoft="F"
       is_paw="F"
       is_coulomb="F"
       has_so="T"
       has_wfc="F"
       has_gipaw="F"
       core_correction="T"
       functional="SLA  PW   NOGX NOGC"
       z_valence="    7.00"
       total_psenergy="  -4.77009795075E+01"
       rho_cutoff="   8.27000000000E+00"
       l_max="2"
       l_local="-1"
       mesh_size="   828"
       number_of_wfc="3"
       number_of_proj="8"/>
 <PP_MESH>
   <PP_R type="real"  size=" 828" columns="8">
    0.0000    0.0100    0.0200    0.0300    0.0400    0.0500    0.0600    0.0700
    0.0800    0.0900    0.1000    0.1100    0.1200    0.1300    0.1400    0.1500
    0.1600    0.1700    0.1800    0.1900    0.2000    0.2100    0.2200    0.2300
    0.2400    0.2500    0.2600    0.2700    0.2800    0.2900    0.3000    0.3100
    0.3200    0.3300    0.3400    0.3500    0.3600    0.3700    0.3800    0.3900
    0.4000    0.4100    0.4200    0.4300    0.4400    0.4500    0.4600    0.4700
    0.4800    0.4900    0.5000    0.5100    0.5200    0.5300    0.5400    0.5500
    0.5600    0.5700    0.5800    0.5900    0.6000    0.6100    0.6200    0.6300
    0.6400    0.6500    0.6600    0.6700    0.6800    0.6900    0.7000    0.7100
    0.7200    0.7300    0.7400    0.7500    0.7600    0.7700    0.7800    0.7900
    0.8000    0.8100    0.8200    0.8300    0.8400    0.8500    0.8600    0.8700
    0.8800    0.8900    0.9000    0.9100    0.9200    0.9300    0.9400    0.9500
    0.9600    0.9700    0.9800    0.9900    1.0000    1.0100    1.0200    1.0300
    1.0400    1.0500    1.0600    1.0700    1.0800    1.0900    1.1000    1.1100
    1.1200    1.1300    1.1400    1.1500    1.1600    1.1700    1.1800    1.1900
    1.2000    1.2100    1.2200    1.2300    1.2400    1.2500    1.2600    1.2700
    1.2800    1.2900    1.3000    1.3100    1.3200    1.3300    1.3400    1.3500
    1.3600    1.3700    1.3800    1.3900    1.4000    1.4100    1.4200    1.4300
    1.4400    1.4500    1.4600    1.4700    1.4800    1.4900    1.5000    1.5100
    1.5200    1.5300    1.5400    1.5500    1.5600    1.5700    1.5800    1.5900
    1.6000    1.6100    1.6200    1.6300    1.6400    1.6500    1.6600    1.6700
    1.6800    1.6900    1.7000    1.7100    1.7200    1.7300    1.7400    1.7500
    1.7600    1.7700    1.7800    1.7900    1.8000    1.8100    1.8200    1.8300
    1.8400    1.8500    1.8600    1.8700    1.8800    1.8900    1.9000    1.9100
    1.9200    1.9300    1.9400    1.9500    1.9600    1.9700    1.9800    1.9900
    2.0000    2.0100    2.0200    2.0300    2.0400    2.0500    2.0600    2.0700
    2.0800    2.0900    2.1000    2.1100    2.1200    2.1300    2.1400    2.1500
    2.1600    2.1700    2.1800    2.1900    2.2000    2.2100    2.2200    2.2300
    2.2400    2.2500    2.2600    2.2700    2.2800    2.2900    2.3000    2.3100
    2.3200    2.3300    2.3400    2.3500    2.3600    2.3700    2.3800    2.3900
    2.4000    2.4100    2.4200    2.4300    2.4400    2.4500    2.4600    2.4700
    2.4800    2.4900    2.5000    2.5100    2.5200    2.5300    2.5400    2.5500
    2.5600    2.5700    2.5800    2.5900    2.6000    2.6100    2.6200    2.6300
    2.6400    2.6500    2.6600    2.6700    2.6800    2.6900    2.7000    2.7100
    2.7200    2.7300    2.7400    2.7500    2.7600    2.7700    2.7800    2.7900
    2.8000    2.8100    2.8200    2.8300    2.8400    2.8500    2.8600    2.8700
    2.8800    2.8900    2.9000    2.9100    2.9200    2.9300    2.9400    2.9500
    2.9600    2.9700    2.9800    2.9900    3.0000    3.0100    3.0200    3.0300
    3.0400    3.0500    3.0600    3.0700    3.0800    3.0900    3.1000    3.1100
    3.1200    3.1300    3.1400    3.1500    3.1600    3.1700    3.1800    3.1900
    3.2000    3.2100    3.2200    3.2300    3.2400    3.2500    3.2600    3.2700
    3.2800    3.2900    3.3000    3.3100    3.3200    3.3300    3.3400    3.3500
    3.3600    3.3700    3.3800    3.3900    3.4000    3.4100    3.4200    3.4300
    3.4400    3.4500    3.4600    3.4700    3.4800    3.4900    3.5000    3.5100
    3.5200    3.5300    3.5400    3.5500    3.5600    3.5700    3.5800    3.5900
    3.6000    3.6100    3.6200    3.6300    3.6400    3.6500    3.6600    3.6700
    3.6800    3.6900    3.7000    3.7100    3.7200    3.7300    3.7400    3.7500
    3.7600    3.7700    3.7800    3.7900    3.8000    3.8100    3.8200    3.8300
    3.8400    3.8500    3.8600    3.8700    3.8800    3.8900    3.9000    3.9100
    3.9200    3.9300    3.9400    3.9500    3.9600    3.9700    3.9800    3.9900
    4.0000    4.0100    4.0200    4.0300    4.0400    4.0500    4.0600    4.0700
    4.0800    4.0900    4.1000    4.1100    4.1200    4.1300    4.1400    4.1500
    4.1600    4.1700    4.1800    4.1900    4.2000    4.2100    4.2200    4.2300
    4.2400    4.2500    4.2600    4.2700    4.2800    4.2900    4.3000    4.3100
    4.3200    4.3300    4.3400    4.3500    4.3600    4.3700    4.3800    4.3900
    4.4000    4.4100    4.4200    4.4300    4.4400    4.4500    4.4600    4.4700
    4.4800    4.4900    4.5000    4.5100    4.5200    4.5300    4.5400    4.5500
    4.5600    4.5700    4.5800    4.5900    4.6000    4.6100    4.6200    4.6300
    4.6400    4.6500    4.6600    4.6700    4.6800    4.6900    4.7000    4.7100
    4.7200    4.7300    4.7400    4.7500    4.7600    4.7700    4.7800    4.7900
    4.8000    4.8100    4.8200    4.8300    4.8400    4.8500    4.8600    4.8700
    4.8800    4.8900    4.9000    4.9100    4.9200    4.9300    4.9400    4.9500
    4.9600    4.9700    4.9800    4.9900    5.0000    5.0100    5.0200    5.0300
    5.0400    5.0500    5.0600    5.0700    5.0800    5.0900    5.1000    5.1100
    5.1200    5.1300    5.1400    5.1500    5.1600    5.1700    5.1800    5.1900
    5.2000    5.2100    5.2200    5.2300    5.2400    5.2500    5.2600    5.2700
    5.2800    5.2900    5.3000    5.3100    5.3200    5.3300    5.3400    5.3500
    5.3600    5.3700    5.3800    5.3900    5.4000    5.4100    5.4200    5.4300
    5.4400    5.4500    5.4600    5.4700    5.4800    5.4900    5.5000    5.5100
    5.5200    5.5300    5.5400    5.5500    5.5600    5.5700    5.5800    5.5900
    5.6000    5.6100    5.6200    5.6300    5.6400    5.6500    5.6600    5.6700
    5.6800    5.6900    5.7000    5.7100    5.7200    5.7300    5.7400    5.7500
    5.7600    5.7700    5.7800    5.7900    5.8000    5.8100    5.8200    5.8300
    5.8400    5.8500    5.8600    5.8700    5.8800    5.8900    5.9000    5.9100
    5.9200    5.9300    5.9400    5.9500    5.9600    5.9700    5.9800    5.9900
    6.0000    6.0100    6.0200    6.0300    6.0400    6.0500    6.0600    6.0700
    6.0800    6.0900    6.1000    6.1100    6.1200    6.1300    6.1400    6.1500
    6.1600    6.1700    6.1800    6.1900    6.2000    6.2100    6.2200    6.2300
    6.2400    6.2500    6.2600    6.2700    6.2800    6.2900    6.3000    6.3100
    6.3200    6.3300    6.3400    6.3500    6.3600    6.3700    6.3800    6.3900
    6.4000    6.4100    6.4200    6.4300    6.4400    6.4500    6.4600    6.4700
    6.4800    6.4900    6.5000    6.5100    6.5200    6.5300    6.5400    6.5500
    6.5600    6.5700    6.5800    6.5900    6.6000    6.6100    6.6200    6.6300
    6.6400    6.6500    6.6600    6.6700    6.6800    6.6900    6.7000    6.7100
    6.7200    6.7300    6.7400    6.7500    6.7600    6.7700    6.7800    6.7900
    6.8000    6.8100    6.8200    6.8300    6.8400    6.8500    6.8600    6.8700
    6.8800    6.8900    6.9000    6.9100    6.9200    6.9300    6.9400    6.9500
    6.9600    6.9700    6.9800    6.9900    7.0000    7.0100    7.0200    7.0300
    7.0400    7.0500    7.0600    7.0700    7.0800    7.0900    7.1000    7.1100
    7.1200    7.1300    7.1400    7.1500    7.1600    7.1700    7.1800    7.1900
    7.2000    7.2100    7.2200    7.2300    7.2400    7.2500    7.2600    7.2700
    7.2800    7.2900    7.3000    7.3100    7.3200    7.3300    7.3400    7.3500
    7.3600    7.3700    7.3800    7.3900    7.4000    7.4100    7.4200    7.4300
    7.4400    7.4500    7.4600    7.4700    7.4800    7.4900    7.5000    7.5100
    7.5200    7.5300    7.5400    7.5500    7.5600    7.5700    7.5800    7.5900
    7.6000    7.6100    7.6200    7.6300    7.6400    7.6500    7.6600    7.6700
    7.6800    7.6900    7.7000    7.7100    7.7200    7.7300    7.7400    7.7500
    7.7600    7.7700    7.7800    7.7900    7.8000    7.8100    7.8200    7.8300
    7.8400    7.8500    7.8600    7.8700    7.8800    7.8900    7.9000    7.9100
    7.9200    7.9300    7.9400    7.9500    7.9600    7.9700    7.9800    7.9900
    8.0000    8.0100    8.0200    8.0300    8.0400    8.0500    8.0600    8.0700
    8.0800    8.0900    8.1000    8.1100    8.1200    8.1300    8.1400    8.1500
    8.1600    8.1700    8.1800    8.1900    8.2000    8.2100    8.2200    8.2300
    8.2400    8.2500    8.2600    8.2700
   </PP_R>
   <PP_RAB type="real"  size=" 828" columns="8">
    0.0100    0.0100    0.0100    0.0100    0.0100    0.0100    0.0100    0.0100
    0.0100    0.0100    0.0100    0.0100    0.0100    0.0100    0.0100    0.0100
    0.0100    0.0100    0.0100    0.0100    0.0100    0.0100    0.0100    0.0100
    0.0100    0.0100    0.0100    0.0100    0.0100    0.0100    0.0100    0.0100
    0.0100    0.0100    0.0100    0.0100    0.0100    0.0100    0.0100    0.0100
    0.0100    0.0100    0.0100    0.0100    0.0100    0.0100    0.0100    0.0100
    0.0100    0.0100    0.0100    0.0100    0.0100    0.0100    0.0100    0.0100
    0.0100    0.0100    0.0100    0.0100    0.0100    0.0100    0.0100    0.0100
    0.0100    0.0100    0.0100    0.0100    0.0100    0.0100    0.0100    0.0100
    0.0100    0.0100    0.0100    0.0100    0.0100    0.0100    0.0100    0.0100
    0.0100    0.0100    0.0100    0.0100    0.0100    0.0100    0.0100    0.0100
    0.0100    0.0100    0.0100    0.0100    0.0100    0.0100    0.0100    0.0100
    0.0100    0.0100    0.0100    0.0100    0.0100    0.0100    0.0100    0.0100
    0.0100    0.0100    0.0100    0.0100    0.0100    0.0100    0.0100    0.0100
    0.0100    0.0100    0.0100    0.0100    0.0100    0.0100    0.0100    0.0100
    0.0100    0.0100    0.0100    0.0100    0.0100    0.0100    0.0100    0.0100
    0.0100    0.0100    0.0100    0.0100    0.0100    0.0100    0.0100    0.0100
    0.0100    0.0100    0.0100    0.0100    0.0100    0.0100    0.0100    0.0100
    0.0100    0.0100    0.0100    0.0100    0.0100    0.0100    0.0100    0.0100
    0.0100    0.0100    0.0100    0.0100    0.0100    0.0100    0.0100    0.0100
    0.0100    0.0100    0.0100    0.0100    0.0100    0.0100    0.0100    0.0100
    0.0100    0.0100    0.0100    0.0100    0.0100    0.0100    0.0100    0.0100
    0.0100    0.0100    0.0100    0.0100    0.0100    0.0100    0.0100    0.0100
    0.0100    0.0100    0.0100    0.0100    0.0100    0.0100    0.0100    0.0100
    0.0100    0.0100    0.0100    0.0100    0.0100    0.0100    0.0100    0.0100
    0.0100    0.0100    0.0100    0.0100    0.0100    0.0100    0.0100    0.0100
    0.0100    0.0100    0.0100    0.0100    0.0100    0.0100    0.0100    0.0100
    0.0100    0.0100    0.0100    0.0100    0.0100    0.0100    0.0100    0.0100
    0.0100    0.0100    0.0100    0.0100    0.0100    0.0100    0.0100    0.0100
    0.0100    0.0100    0.0100    0.0100    0.0100    0.0100    0.0100    0.0100
    0.0100    0.0100    0.0100    0.0100    0.0100    0.0100    0.0100    0.0100
    0.0100    0.0100    0.0100    0.0100    0.0100    0.0100    0.0100    0.0100
    0.0100    0.0100    0.0100    0.0100    0.0100    0.0100    0.0100    0.0100
    0.0100    0.0100    0.0100    0.0100    0.0100    0.0100    0.0100    0.0100
    0.0100    0.0100    0.0100    0.0100    0.0100    0.0100    0.0100    0.0100
    0.0100    0.0100    0.0100    0.0100    0.0100    0.0100    0.0100    0.0100
    0.0100    0.0100    0.0100    0.0100    0.0100    0.0100    0.0100    0.0100
    0.0100    0.0100    0.0100    0.0100    0.0100    0.0100    0.0100    0.0100
    0.0100    0.0100    0.0100    0.0100    0.0100    0.0100    0.0100    0.0100
    0.0100    0.0100    0.0100    0.0100    0.0100    0.0100    0.0100    0.0100
    0.0100    0.0100    0.0100    0.0100    0.0100    0.0100    0.0100    0.0100
    0.0100    0.0100    0.0100    0.0100    0.0100    0.0100    0.0100    0.0100
    0.0100    0.0100    0.0100    0.0100    0.0100    0.0100    0.0100    0.0100
    0.0100    0.0100    0.0100    0.0100    0.0100    0.0100    0.0100    0.0100
    0.0100    0.0100    0.0100    0.0100    0.0100    0.0100    0.0100    0.0100
    0.0100    0.0100    0.0100    0.0100    0.0100    0.0100    0.0100    0.0100
    0.0100    0.0100    0.0100    0.0100    0.0100    0.0100    0.0100    0.0100
    0.0100    0.0100    0.0100    0.0100    0.0100    0.0100    0.0100    0.0100
    0.0100    0.0100    0.0100    0.0100    0.0100    0.0100    0.0100    0.0100
    0.0100    0.0100    0.0100    0.0100    0.0100    0.0100    0.0100    0.0100
    0.0100    0.0100    0.0100    0.0100    0.0100    0.0100    0.0100    0.0100
    0.0100    0.0100    0.0100    0.0100    0.0100    0.0100    0.0100    0.0100
    0.0100    0.0100    0.0100    0.0100    0.0100    0.0100    0.0100    0.0100
    0.0100    0.0100    0.0100    0.0100    0.0100    0.0100    0.0100    0.0100
    0.0100    0.0100    0.0100    0.0100    0.0100    0.0100    0.0100    0.0100
    0.0100    0.0100    0.0100    0.0100    0.0100    0.0100    0.0100    0.0100
    0.0100    0.0100    0.0100    0.0100    0.0100    0.0100    0.0100    0.0100
    0.0100    0.0100    0.0100    0.0100    0.0100    0.0100    0.0100    0.0100
    0.0100    0.0100    0.0100    0.0100    0.0100    0.0100    0.0100    0.0100
    0.0100    0.0100    0.0100    0.0100    0.0100    0.0100    0.0100    0.0100
    0.0100    0.0100    0.0100    0.0100    0.0100    0.0100    0.0100    0.0100
    0.0100    0.0100    0.0100    0.0100    0.0100    0.0100    0.0100    0.0100
    0.0100    0.0100    0.0100    0.0100    0.0100    0.0100    0.0100    0.0100
    0.0100    0.0100    0.0100    0.0100    0.0100    0.0100    0.0100    0.0100
    0.0100    0.0100    0.0100    0.0100    0.0100    0.0100    0.0100    0.0100
    0.0100    0.0100    0.0100    0.0100    0.0100    0.0100    0.0100    0.0100
    0.0100    0.0100    0.0100    0.0100    0.0100    0.0100    0.0100    0.0100
    0.0100    0.0100    0.0100    0.0100    0.0100    0.0100    0.0100    0.0100
    0.0100    0.0100    0.0100    0.0100    0.0100    0.0100    0.0100    0.0100
    0.0100    0.0100    0.0100    0.0100    0.0100    0.0100    0.0100    0.0100
    0.0100    0.0100    0.0100    0.0100    0.0100    0.0100    0.0100    0.0100
    0.0100    0.0100    0.0100    0.0100    0.0100    0.0100    0.0100    0.0100
    0.0100    0.0100    0.0100    0.0100    0.0100    0.0100    0.0100    0.0100
    0.0100    0.0100    0.0100    0.0100    0.0100    0.0100    0.0100    0.0100
    0.0100    0.0100    0.0100    0.0100    0.0100    0.0100    0.0100    0.0100
    0.0100    0.0100    0.0100    0.0100    0.0100    0.0100    0.0100    0.0100
    0.0100    0.0100    0.0100    0.0100    0.0100    0.0100    0.0100    0.0100
    0.0100    0.0100    0.0100    0.0100    0.0100    0.0100    0.0100    0.0100
    0.0100    0.0100    0.0100    0.0100    0.0100    0.0100    0.0100    0.0100
    0.0100    0.0100    0.0100    0.0100    0.0100    0.0100    0.0100    0.0100
    0.0100    0.0100    0.0100    0.0100    0.0100    0.0100    0.0100    0.0100
    0.0100    0.0100    0.0100    0.0100    0.0100    0.0100    0.0100    0.0100
    0.0100    0.0100    0.0100    0.0100    0.0100    0.0100    0.0100    0.0100
    0.0100    0.0100    0.0100    0.0100    0.0100    0.0100    0.0100    0.0100
    0.0100    0.0100    0.0100    0.0100    0.0100    0.0100    0.0100    0.0100
    0.0100    0.0100    0.0100    0.0100    0.0100    0.0100    0.0100    0.0100
    0.0100    0.0100    0.0100    0.0100    0.0100    0.0100    0.0100    0.0100
    0.0100    0.0100    0.0100    0.0100    0.0100    0.0100    0.0100    0.0100
    0.0100    0.0100    0.0100    0.0100    0.0100    0.0100    0.0100    0.0100
    0.0100    0.0100    0.0100    0.0100    0.0100    0.0100    0.0100    0.0100
    0.0100    0.0100    0.0100    0.0100    0.0100    0.0100    0.0100    0.0100
    0.0100    0.0100    0.0100    0.0100    0.0100    0.0100    0.0100    0.0100
    0.0100    0.0100    0.0100    0.0100    0.0100    0.0100    0.0100    0.0100
    0.0100    0.0100    0.0100    0.0100    0.0100    0.0100    0.0100    0.0100
    0.0100    0.0100    0.0100    0.0100    0.0100    0.0100    0.0100    0.0100
    0.0100    0.0100    0.0100    0.0100    0.0100    0.0100    0.0100    0.0100
    0.0100    0.0100    0.0100    0.0100    0.0100    0.0100    0.0100    0.0100
    0.0100    0.0100    0.0100    0.0100    0.0100    0.0100    0.0100    0.0100
    0.0100    0.0100    0.0100    0.0100    0.0100    0.0100    0.0100    0.0100
    0.0100    0.0100    0.0100    0.0100    0.0100    0.0100    0.0100    0.0100
    0.0100    0.0100    0.0100    0.0100    0.0100    0.0100    0.0100    0.0100
    0.0100    0.0100    0.0100    0.0100    0.0100    0.0100    0.0100    0.0100
    0.0100    0.0100    0.0100    0.0100    0.0100    0.0100    0.0100    0.0100
    0.0100    0.0100    0.0100    0.0100
   </PP_RAB>
 </PP_MESH>
  <PP_LOCAL type="real"  size=" 828" columns="4">
   -3.0552961460E+01   -3.0550304533E+01   -3.0542333560E+01   -3.0529047999E+01
   -3.0510446990E+01   -3.0486529416E+01   -3.0457293990E+01   -3.0422739370E+01
   -3.0382864294E+01   -3.0337667735E+01   -3.0287149084E+01   -3.0231308348E+01
   -3.0170146369E+01   -3.0103665062E+01   -3.0031867668E+01   -2.9954759019E+01
   -2.9872345821E+01   -2.9784636945E+01   -2.9691643724E+01   -2.9593380264E+01
   -2.9489863751E+01   -2.9381114769E+01   -2.9267157613E+01   -2.9148020598E+01
   -2.9023736370E+01   -2.8894342205E+01   -2.8759880299E+01   -2.8620398049E+01
   -2.8475948315E+01   -2.8326589674E+01   -2.8172386641E+01   -2.8013409882E+01
   -2.7849736400E+01   -2.7681449688E+01   -2.7508639866E+01   -2.7331403780E+01
   -2.7149845071E+01   -2.6964074219E+01   -2.6774208546E+01   -2.6580372184E+01
   -2.6382696013E+01   -2.6181317563E+01   -2.5976380875E+01   -2.5768036334E+01
   -2.5556440460E+01   -2.5341755674E+01   -2.5124150019E+01   -2.4903796863E+01
   -2.4680874564E+01   -2.4455566107E+01   -2.4228058719E+01   -2.3998543461E+01
   -2.3767214794E+01   -2.3534270130E+01   -2.3299909369E+01   -2.3064334419E+01
   -2.2827748704E+01   -2.2590356672E+01   -2.2352363289E+01   -2.2113973529E+01
   -2.1875391874E+01   -2.1636821800E+01   -2.1398465279E+01   -2.1160522273E+01
   -2.0923190250E+01   -2.0686663687E+01   -2.0451133603E+01   -2.0216787084E+01
   -1.9983806830E+01   -1.9752370704E+01   -1.9522651299E+01   -1.9294815513E+01
   -1.9069024135E+01   -1.8845431447E+01   -1.8624184828E+01   -1.8405424381E+01
   -1.8189282559E+01   -1.7975883811E+01   -1.7765344227E+01   -1.7557771206E+01
   -1.7353263117E+01   -1.7151908979E+01   -1.6953788141E+01   -1.6758969971E+01
   -1.6567513554E+01   -1.6379467384E+01   -1.6194869071E+01   -1.6013745041E+01
   -1.5836110250E+01   -1.5661967884E+01   -1.5491309076E+01   -1.5324112605E+01
   -1.5160344612E+01   -1.4999958299E+01   -1.4842893637E+01   -1.4689077064E+01
   -1.4538421282E+01   -1.4390829695E+01   -1.4246206844E+01   -1.4104460903E+01
   -1.3965503542E+01   -1.3829249799E+01   -1.3695617950E+01   -1.3564529394E+01
   -1.3435908541E+01   -1.3309682704E+01   -1.3185782002E+01   -1.3064139258E+01
   -1.2944689907E+01   -1.2827371909E+01   -1.2712125653E+01   -1.2598893880E+01
   -1.2487621593E+01   -1.2378255974E+01   -1.2270746309E+01   -1.2165043903E+01
   -1.2061102002E+01   -1.1958875721E+01   -1.1858321960E+01   -1.1759399337E+01
   -1.1662068107E+01   -1.1566290096E+01   -1.1472028623E+01   -1.1379248436E+01
   -1.1287915639E+01   -1.1197997625E+01   -1.1109463010E+01   -1.1022281572E+01
   -1.0936424182E+01   -1.0851862746E+01   -1.0768570144E+01   -1.0686520170E+01
   -1.0605687449E+01   -1.0526047332E+01   -1.0447575844E+01   -1.0370249634E+01
   -1.0294045927E+01   -1.0218942484E+01   -1.0144917563E+01   -1.0071949875E+01
   -1.0000018554E+01   -9.9291031237E+00   -9.8591834670E+00   -9.7902397984E+00
   -9.7222526403E+00   -9.6552028012E+00   -9.5890713568E+00   -9.5238396593E+00
   -9.4594894485E+00   -9.3960029612E+00   -9.3333629087E+00   -9.2715524641E+00
   -9.2105552468E+00   -9.1503553079E+00   -9.0909371161E+00   -9.0322855438E+00
   -8.9743858537E+00   -8.9172236863E+00   -8.8607850472E+00   -8.8050562951E+00
   -8.7500241306E+00   -8.6956755848E+00   -8.6419980087E+00   -8.5889790633E+00
   -8.5366067094E+00   -8.4848691985E+00   -8.4337550640E+00   -8.3832531121E+00
   -8.3333524142E+00   -8.2840422986E+00   -8.2353123434E+00   -8.1871523688E+00
   -8.1395524307E+00   -8.0925028140E+00   -8.0459940257E+00   -8.0000167895E+00
   -7.9545620396E+00   -7.9096209146E+00   -7.8651847526E+00   -7.8212450854E+00
   -7.7777936335E+00   -7.7348223009E+00   -7.6923231702E+00   -7.6502884979E+00
   -7.6087107095E+00   -7.5675823953E+00   -7.5268963055E+00   -7.4866453464E+00
   -7.4468225847E+00   -7.4074212319E+00   -7.3684346337E+00   -7.3298562755E+00
   -7.2916797786E+00   -7.2538988962E+00   -7.2165075107E+00   -7.1794996297E+00
   -7.1428693831E+00   -7.1066110200E+00   -7.0707189058E+00   -7.0351875192E+00
   -7.0000114490E+00   -6.9651853921E+00   -6.9307041501E+00   -6.8965626273E+00
   -6.8627558276E+00   -6.8292788526E+00   -6.7961268991E+00   -6.7632952564E+00
   -6.7307793047E+00   -6.6985745126E+00   -6.6666764347E+00   -6.6350807102E+00
   -6.6037830605E+00   -6.5727792872E+00   -6.5420652707E+00   -6.5116369676E+00
   -6.4814904098E+00   -6.4516217021E+00   -6.4220270209E+00   -6.3927026122E+00
   -6.3636447907E+00   -6.3348499373E+00   -6.3063144984E+00   -6.2780349842E+00
   -6.2500079669E+00   -6.2222300801E+00   -6.1946980166E+00   -6.1674085275E+00
   -6.1403584212E+00   -6.1135445615E+00   -6.0869638670E+00   -6.0606133095E+00
   -6.0344899132E+00   -6.0085907530E+00   -5.9829129542E+00   -5.9574536909E+00
   -5.9322101851E+00   -5.9071797056E+00   -5.8823595673E+00   -5.8577471297E+00
   -5.8333397968E+00   -5.8091350151E+00   -5.7851302739E+00   -5.7613231033E+00
   -5.7377110744E+00   -5.7142917974E+00   -5.6910629219E+00   -5.6680221352E+00
   -5.6451671620E+00   -5.6224957637E+00   -5.6000057372E+00   -5.5776949148E+00
   -5.5555611631E+00   -5.5336023824E+00   -5.5118165062E+00   -5.4902015002E+00
   -5.4687553620E+00   -5.4474761204E+00   -5.4263618348E+00   -5.4054105944E+00
   -5.3846205180E+00   -5.3639897531E+00   -5.3435164754E+00   -5.3231988885E+00
   -5.3030352233E+00   -5.2830237372E+00   -5.2631627138E+00   -5.2434504627E+00
   -5.2238853183E+00   -5.2044656402E+00   -5.1851898120E+00   -5.1660562412E+00
   -5.1470633589E+00   -5.1282096189E+00   -5.1094934979E+00   -5.0909134946E+00
   -5.0724681293E+00   -5.0541559440E+00   -5.0359755013E+00   -5.0179253848E+00
   -5.0000041980E+00   -4.9822105645E+00   -4.9645431273E+00   -4.9470005486E+00
   -4.9295815096E+00   -4.9122847097E+00   -4.8951088668E+00   -4.8780527164E+00
   -4.8611150119E+00   -4.8442945236E+00   -4.8275900389E+00   -4.8110003620E+00
   -4.7945243132E+00   -4.7781607292E+00   -4.7619084624E+00   -4.7457663807E+00
   -4.7297333673E+00   -4.7138083207E+00   -4.6979901537E+00   -4.6822777941E+00
   -4.6666701839E+00   -4.6511662788E+00   -4.6357650489E+00   -4.6204654775E+00
   -4.6052665613E+00   -4.5901673104E+00   -4.5751667476E+00   -4.5602639085E+00
   -4.5454578413E+00   -4.5307476065E+00   -4.5161322765E+00   -4.5016109361E+00
   -4.4871826812E+00   -4.4728466199E+00   -4.4586018713E+00   -4.4444475657E+00
   -4.4303828444E+00   -4.4164068597E+00   -4.4025187745E+00   -4.3887177620E+00
   -4.3750030060E+00   -4.3613737003E+00   -4.3478290489E+00   -4.3343682654E+00
   -4.3209905733E+00   -4.3076952056E+00   -4.2944814048E+00   -4.2813484224E+00
   -4.2682955192E+00   -4.2553219652E+00   -4.2424270389E+00   -4.2296100277E+00
   -4.2168702274E+00   -4.2042069427E+00   -4.1916194861E+00   -4.1791071786E+00
   -4.1666693492E+00   -4.1543053350E+00   -4.1420144807E+00   -4.1297961389E+00
   -4.1176496698E+00   -4.1055744411E+00   -4.0935698279E+00   -4.0816352125E+00
   -4.0697699845E+00   -4.0579735405E+00   -4.0462452841E+00   -4.0345846259E+00
   -4.0229909830E+00   -4.0114637794E+00   -4.0000024457E+00   -3.9886064187E+00
   -3.9772751420E+00   -3.9660080653E+00   -3.9548046444E+00   -3.9436643414E+00
   -3.9325866246E+00   -3.9215709678E+00   -3.9106168510E+00   -3.8997237601E+00
   -3.8888911864E+00   -3.8781186270E+00   -3.8674055846E+00   -3.8567515673E+00
   -3.8461560886E+00   -3.8356186673E+00   -3.8251388277E+00   -3.8147160990E+00
   -3.8043500156E+00   -3.7940401170E+00   -3.7837859476E+00   -3.7735870568E+00
   -3.7634429989E+00   -3.7533533327E+00   -3.7433176220E+00   -3.7333354351E+00
   -3.7234063450E+00   -3.7135299292E+00   -3.7037057697E+00   -3.6939334526E+00
   -3.6842125689E+00   -3.6745427135E+00   -3.6649234857E+00   -3.6553544888E+00
   -3.6458353305E+00   -3.6363656225E+00   -3.6269449803E+00   -3.6175730236E+00
   -3.6082493761E+00   -3.5989736650E+00   -3.5897455218E+00   -3.5805645814E+00
   -3.5714304825E+00   -3.5623428677E+00   -3.5533013829E+00   -3.5443056778E+00
   -3.5353554056E+00   -3.5264502229E+00   -3.5175897900E+00   -3.5087737703E+00
   -3.5000018307E+00   -3.4912736415E+00   -3.4825888761E+00   -3.4739472114E+00
   -3.4653483271E+00   -3.4567919066E+00   -3.4482776359E+00   -3.4398052044E+00
   -3.4313743045E+00   -3.4229846315E+00   -3.4146358837E+00   -3.4063277625E+00
   -3.3980599720E+00   -3.3898322193E+00   -3.3816442141E+00   -3.3734956693E+00
   -3.3653863002E+00   -3.3573158249E+00   -3.3492839644E+00   -3.3412904422E+00
   -3.3333349844E+00   -3.3254173197E+00   -3.3175371796E+00   -3.3096942978E+00
   -3.3018884107E+00   -3.2941192573E+00   -3.2863865788E+00   -3.2786901189E+00
   -3.2710296238E+00   -3.2634048420E+00   -3.2558155243E+00   -3.2482614239E+00
   -3.2407422962E+00   -3.2332578989E+00   -3.2258079919E+00   -3.2183923374E+00
   -3.2110106996E+00   -3.2036628452E+00   -3.1963485425E+00   -3.1890675625E+00
   -3.1818196778E+00   -3.1746046634E+00   -3.1674222961E+00   -3.1602723549E+00
   -3.1531546206E+00   -3.1460688762E+00   -3.1390149064E+00   -3.1319924980E+00
   -3.1250014396E+00   -3.1180415219E+00   -3.1111125371E+00   -3.1042142795E+00
   -3.0973465453E+00   -3.0905091321E+00   -3.0837018397E+00   -3.0769244695E+00
   -3.0701768247E+00   -3.0634587100E+00   -3.0567699320E+00   -3.0501102991E+00
   -3.0434796211E+00   -3.0368777096E+00   -3.0303043779E+00   -3.0237594406E+00
   -3.0172427144E+00   -3.0107540170E+00   -3.0042931682E+00   -2.9978599889E+00
   -2.9914543019E+00   -2.9850759312E+00   -2.9787247026E+00   -2.9724004431E+00
   -2.9661029813E+00   -2.9598321473E+00   -2.9535877724E+00   -2.9473696898E+00
   -2.9411777335E+00   -2.9350117393E+00   -2.9288715442E+00   -2.9227569867E+00
   -2.9166679065E+00   -2.9106041448E+00   -2.9045655439E+00   -2.8985519476E+00
   -2.8925632009E+00   -2.8865991500E+00   -2.8806596425E+00   -2.8747445273E+00
   -2.8688536544E+00   -2.8629868750E+00   -2.8571440417E+00   -2.8513250081E+00
   -2.8455296291E+00   -2.8397577608E+00   -2.8340092604E+00   -2.8282839863E+00
   -2.8225817979E+00   -2.8169025560E+00   -2.8112461223E+00   -2.8056123597E+00
   -2.8000011321E+00   -2.7944123047E+00   -2.7888457434E+00   -2.7833013157E+00
   -2.7777788896E+00   -2.7722783346E+00   -2.7667995209E+00   -2.7613423198E+00
   -2.7559066038E+00   -2.7504922463E+00   -2.7450991215E+00   -2.7397271048E+00
   -2.7343760726E+00   -2.7290459021E+00   -2.7237364716E+00   -2.7184476602E+00
   -2.7131793481E+00   -2.7079314163E+00   -2.7027037469E+00   -2.6974962225E+00
   -2.6923087272E+00   -2.6871411454E+00   -2.6819933628E+00   -2.6768652658E+00
   -2.6717567417E+00   -2.6666676787E+00   -2.6615979657E+00   -2.6565474926E+00