Tc    ONCVPSP-4.0.1  r_core=   1.40330   1.40330   1.35383
     43.0000     15.0000      231019    zatom,zion,pspd
     8       2   2     4   600     0    pspcod,pspxc,lmax,lloc,mmax,r2well
  5.99000000  5.00000000  0.00000000    rchrg fchrg qchrg
     2     2     2     0     0    nproj
     1     1           extension_switch
   0                         1.4327649220540E+01  1.4117497627986E+00
     1  0.0000000000000E+00  1.3129612397300E-09 -4.5140086946116E-09
     2  1.0000000000000E-02  5.6945515235125E-02 -2.1248536117265E-02
     3  2.0000000000000E-02  1.1385713400588E-01 -4.2523656700348E-02
     4  3.0000000000000E-02  1.7070013538130E-01 -6.3849571778238E-02
     5  4.0000000000000E-02  2.2743816682042E-01 -8.5245797094065E-02
     6  5.0000000000000E-02  2.8403247132956E-01 -1.0672494223944E-01
     7  6.0000000000000E-02  3.4044116521289E-01 -1.2829065780908E-01
     8  7.0000000000000E-02  3.9661858169999E-01 -1.4993578913869E-01
     9  8.0000000000000E-02  4.5251469442092E-01 -1.7164077967511E-01
    10  9.0000000000000E-02  5.0807463310982E-01 -1.9337236157157E-01
    11  1.0000000000000E-01  5.6323830208465E-01 -2.1508256482135E-01
    12  1.1000000000000E-01  6.1794011001125E-01 -2.3670806927571E-01
    13  1.2000000000000E-01  6.7210881725669E-01 -2.5816991638994E-01
    14  1.3000000000000E-01  7.2566750481530E-01 -2.7937358966597E-01
    15  1.4000000000000E-01  7.7853366639882E-01 -3.0020946468541E-01
    16  1.5000000000000E-01  8.3061942286894E-01 -3.2055362152809E-01
    17  1.6000000000000E-01  8.8183185580626E-01 -3.4026900442657E-01
    18  1.7000000000000E-01  9.3207345470323E-01 -3.5920690589121E-01
    19  1.8000000000000E-01  9.8124267008750E-01 -3.7720874542128E-01
    20  1.9000000000000E-01  1.0292345628712E+00 -3.9410810645319E-01
    21  2.0000000000000E-01  1.0759415384223E+00 -4.0973298953049E-01
    22  2.1000000000000E-01  1.1212541523028E+00 -4.2390823494024E-01
    23  2.2000000000000E-01  1.1650619733469E+00 -4.3645806435216E-01
    24  2.3000000000000E-01  1.2072544887856E+00 -4.4720868840703E-01
    25  2.4000000000000E-01  1.2477220354829E+00 -4.5599092578909E-01
    26  2.5000000000000E-01  1.2863567410414E+00 -4.6264277911901E-01
    27  2.6000000000000E-01  1.3230534585716E+00 -4.6701191402785E-01
    28  2.7000000000000E-01  1.3577106792935E+00 -4.6895798999935E-01
    29  2.8000000000000E-01  1.3902314078418E+00 -4.6835479495330E-01
    30  2.9000000000000E-01  1.4205239861623E+00 -4.6509214001476E-01
    31  3.0000000000000E-01  1.4485028531911E+00 -4.5907747637597E-01
    32  3.1000000000000E-01  1.4740892290722E+00 -4.5023720249340E-01
    33  3.2000000000000E-01  1.4972117144542E+00 -4.3851763692946E-01
    34  3.3000000000000E-01  1.5178067973765E+00 -4.2388563979285E-01
    35  3.4000000000000E-01  1.5358192623640E+00 -4.0632887378224E-01
    36  3.5000000000000E-01  1.5512024985421E+00 -3.8585570411232E-01
    37  3.6000000000000E-01  1.5639187058266E+00 -3.6249474491383E-01
    38  3.7000000000000E-01  1.5739390004673E+00 -3.3629406785760E-01
    39  3.8000000000000E-01  1.5812434233889E+00 -3.0732009656933E-01
    40  3.9000000000000E-01  1.5858208568319E+00 -2.7565621769336E-01
    41  4.0000000000000E-01  1.5876688566878E+00 -2.4140114605811E-01
    42  4.1000000000000E-01  1.5867934096211E+00 -2.0466708713253E-01
    43  4.2000000000000E-01  1.5832086255238E+00 -1.6557774470309E-01
    44  4.3000000000000E-01  1.5769363770226E+00 -1.2426622532150E-01
    45  4.4000000000000E-01  1.5680058986369E+00 -8.0872893481162E-02
    46  4.5000000000000E-01  1.5564533587311E+00 -3.5543232602795E-02
    47  4.6000000000000E-01  1.5423214176171E+00  1.1574233291829E-02
    48  4.7000000000000E-01  1.5256587850258E+00  6.0329903878652E-02
    49  4.8000000000000E-01  1.5065197896888E+00  1.1057490232001E-01
    50  4.9000000000000E-01  1.4849639729596E+00  1.6216266418675E-01
    51  5.0000000000000E-01  1.4610557172766E+00  2.1495027447251E-01
    52  5.1000000000000E-01  1.4348639188490E+00  2.6879951805723E-01
    53  5.2000000000000E-01  1.4064617122750E+00  3.2357761632209E-01
    54  5.3000000000000E-01  1.3759262529004E+00  3.7915763075405E-01
    55  5.4000000000000E-01  1.3433385606615E+00  4.3541852312493E-01
    56  5.5000000000000E-01  1.3087834269535E+00  4.9224487099232E-01
    57  5.6000000000000E-01  1.2723493838016E+00  5.4952624663734E-01
    58  5.7000000000000E-01  1.2341287323237E+00  6.0715627691209E-01
    59  5.8000000000000E-01  1.1942176252279E+00  6.6503141059385E-01
    60  5.9000000000000E-01  1.1527161959357E+00  7.2304942851516E-01
    61  6.0000000000000E-01  1.1097287249255E+00  7.8110773974530E-01
    62  6.1000000000000E-01  1.0653638320958E+00  8.3910151423337E-01
    63  6.2000000000000E-01  1.0197346824064E+00  8.9692170840365E-01
    64  6.3000000000000E-01  9.7295919081466E-01  9.5445304504870E-01
    65  6.4000000000000E-01  9.2516021161699E-01  1.0115720123556E+00
    66  6.5000000000000E-01  8.7646569676557E-01  1.0681449489087E+00
    67  6.6000000000000E-01  8.2700880758176E-01  1.1240262819582E+00
    68  6.7000000000000E-01  7.7692796454135E-01  1.1790569850751E+00
    69  6.8000000000000E-01  7.2636682047195E-01  1.2330633185178E+00
    70  6.9000000000000E-01  6.7547414357322E-01  1.2858559112343E+00
    71  7.0000000000000E-01  6.2440359813340E-01  1.3372292374785E+00
    72  7.1000000000000E-01  5.7331341264812E-01  1.3869615336225E+00
    73  7.2000000000000E-01  5.2236592721774E-01  1.4348151920266E+00
    74  7.3000000000000E-01  4.7172701456723E-01  1.4805376589565E+00
    75  7.4000000000000E-01  4.2156537174961E-01  1.5238628526919E+00
    76  7.5000000000000E-01  3.7205168250580E-01  1.5645131063821E+00
    77  7.6000000000000E-01  3.2335765329917E-01  1.6022016281049E+00
    78  7.7000000000000E-01  2.7565492915723E-01  1.6366354582327E+00
    79  7.8000000000000E-01  2.2911389856780E-01  1.6675188918749E+00
    80  7.9000000000000E-01  1.8390239972192E-01  1.6945573221165E+00
    81  8.0000000000000E-01  1.4018434330156E-01  1.7174614482890E+00
    82  8.1000000000000E-01  9.8118269707236E-02  1.7359517828503E+00
    83  8.2000000000000E-01  5.7855861043723E-02  1.7497633808795E+00
    84  8.3000000000000E-01  1.9540430269905E-02  1.7586507079386E+00
    85  8.4000000000000E-01 -1.6694588384438E-02  1.7623925553345E+00
    86  8.5000000000000E-01 -5.0727122374097E-02  1.7607969068129E+00
    87  8.6000000000000E-01 -8.2447891026033E-02  1.7537056575871E+00
    88  8.7000000000000E-01 -1.1176175654845E-01  1.7409990854534E+00
    89  8.8000000000000E-01 -1.3858896970895E-01  1.7225999746577E+00
    90  8.9000000000000E-01 -1.6286628482507E-01  1.6984772961725E+00
    91  9.0000000000000E-01 -1.8454792004155E-01  1.6686493531181E+00
    92  9.1000000000000E-01 -2.0360634072053E-01  1.6331863071480E+00
    93  9.2000000000000E-01 -2.2003284611853E-01  1.5922120106239E+00
    94  9.3000000000000E-01 -2.3383794233091E-01  1.5459050801751E+00
    95  9.4000000000000E-01 -2.4505148770297E-01  1.4944991595922E+00
    96  9.5000000000000E-01 -2.5372260048076E-01  1.4382823337212E+00
    97  9.6000000000000E-01 -2.5991932233881E-01  1.3775956698410E+00
    98  9.7000000000000E-01 -2.6372803550170E-01  1.3128308786442E+00
    99  9.8000000000000E-01 -2.6525263539638E-01  1.2444271030960E+00
   100  9.9000000000000E-01 -2.6461346504615E-01  1.1728668597837E+00
   101  1.0000000000000E+00 -2.6194602166137E-01  1.0986711735736E+00
   102  1.0100000000000E+00 -2.5739945000738E-01  1.0223939621044E+00
   103  1.0200000000000E+00 -2.5113484105686E-01  9.4461574156954E-01
   104  1.0300000000000E+00 -2.4332335807182E-01  8.6593673902390E-01
   105  1.0400000000000E+00 -2.3414421553471E-01  7.8696950879941E-01
   106  1.0500000000000E+00 -2.2378253919182E-01  7.0833116128161E-01
   107  1.0600000000000E+00 -2.1242713781134E-01  6.3063532099445E-01
   108  1.0700000000000E+00 -2.0026821904739E-01  5.5448393749393E-01
   109  1.0800000000000E+00 -1.8749508299326E-01  4.8045907680292E-01
   110  1.0900000000000E+00 -1.7429382756833E-01  4.0911482290584E-01
   111  1.1000000000000E+00 -1.6084509979748E-01  3.4096941810127E-01
   112  1.1100000000000E+00 -1.4732192630025E-01  2.7649776775692E-01
   113  1.1200000000000E+00 -1.3388765491893E-01  2.1612442926225E-01
   114  1.1300000000000E+00 -1.2069403739708E-01  1.6021719680129E-01
   115  1.1400000000000E+00 -1.0787948041274E-01  1.0908138313361E-01
   116  1.1500000000000E+00 -9.5567489109343E-02  6.2954887012366E-02
   117  1.1600000000000E+00 -8.3865323623534E-02  2.2004120473259E-02
   118  1.1700000000000E+00 -7.2862885036813E-02 -1.3679145796415E-02
   119  1.1800000000000E+00 -6.2631842755282E-02 -4.4079978155608E-02
   120  1.1900000000000E+00 -5.3225010058236E-02 -6.9261497426093E-02
   121  1.2000000000000E+00 -4.4675976320516E-02 -8.9365081195131E-02
   122  1.2100000000000E+00 -3.6999072533201E-02 -1.0460912171939E-01
   123  1.2200000000000E+00 -3.0191199016774E-02 -1.1527793953168E-01
   124  1.2300000000000E+00 -2.4234687739319E-02 -1.2170614952154E-01
   125  1.2400000000000E+00 -1.9098826353707E-02 -1.2427148878683E-01
   126  1.2500000000000E+00 -1.4741330279067E-02 -1.2338835029708E-01
   127  1.2600000000000E+00 -1.1109987929116E-02 -1.1950067872133E-01
   128  1.2700000000000E+00 -8.1444487337228E-03 -1.1307434865300E-01
   129  1.2800000000000E+00 -5.7781218420710E-03 -1.0458915126435E-01
   130  1.2900000000000E+00 -3.9401508747810E-03 -9.4530525767776E-02
   131  1.3000000000000E+00 -2.5574286841261E-03 -8.3381177234464E-02
   132  1.3100000000000E+00 -1.5566113420997E-03 -7.1612735996104E-02
   133  1.3200000000000E+00 -8.6613213662974E-04 -5.9677502228194E-02
   134  1.3300000000000E+00 -4.1801711117597E-04 -4.8000852931852E-02
   135  1.3400000000000E+00 -1.5352197594348E-04 -3.6963460113149E-02
   136  1.3500000000000E+00 -2.5645290178056E-05 -2.6891478922048E-02
   137  1.3600000000000E+00  1.7825698914752E-05 -1.8100985312146E-02
   138  1.3700000000000E+00  1.8753157336236E-05 -1.0855112884526E-02
   139  1.3800000000000E+00  7.0086463598145E-06 -5.3587648810574E-03
   140  1.3900000000000E+00 -4.2477905901199E-07 -1.7416187593971E-03
   141  1.4000000000000E+00 -4.4616168242440E-07 -1.4119477449631E-04
   142  1.4100000000000E+00  6.6153321359542E-08  1.4872072334922E-05
   143  1.4200000000000E+00 -1.8379014246169E-09 -6.3635570164392E-07
   144  1.43  0. -0.
   145  1.44  0.  0.
   146  1.45  0.  0.
   147  1.46  0.  0.
   148  1.47  0.  0.
   149  1.48  0.  0.
   150  1.49  0.  0.
   151  1.50  0.  0.
   152  1.51  0.  0.
   153  1.52  0.  0.
   154  1.53  0.  0.
   155  1.54  0.  0.
   156  1.55  0.  0.
   157  1.56  0.  0.
   158  1.57  0.  0.
   159  1.58  0.  0.
   160  1.59  0.  0.
   161  1.60  0.  0.
   162  1.61  0.  0.
   163  1.62  0.  0.
   164  1.63  0.  0.
   165  1.64  0.  0.
   166  1.65  0.  0.
   167  1.66  0.  0.
   168  1.67  0.  0.
   169  1.68  0.  0.
   170  1.69  0.  0.
   171  1.70  0.  0.
   172  1.71  0.  0.
   173  1.72  0.  0.
   174  1.73  0.  0.
   175  1.74  0.  0.
   176  1.75  0.  0.
   177  1.76  0.  0.
   178  1.77  0.  0.
   179  1.78  0.  0.
   180  1.79  0.  0.
   181  1.80  0.  0.
   182  1.81  0.  0.
   183  1.82  0.  0.
   184  1.83  0.  0.
   185  1.84  0.  0.
   186  1.85  0.  0.
   187  1.86  0.  0.
   188  1.87  0.  0.
   189  1.88  0.  0.
   190  1.89  0.  0.
   191  1.90  0.  0.
   192  1.91  0.  0.
   193  1.92  0.  0.
   194  1.93  0.  0.
   195  1.94  0.  0.
   196  1.95  0.  0.
   197  1.96  0.  0.
   198  1.97  0.  0.
   199  1.98  0.  0.
   200  1.99  0.  0.
   201  2.00  0.  0.
   202  2.01  0.  0.
   203  2.02  0.  0.
   204  2.03  0.  0.
   205  2.04  0.  0.
   206  2.05  0.  0.
   207  2.06  0.  0.
   208  2.07  0.  0.
   209  2.08  0.  0.
   210  2.09  0.  0.
   211  2.10  0.  0.
   212  2.11  0.  0.
   213  2.12  0.  0.
   214  2.13  0.  0.
   215  2.14  0.  0.
   216  2.15  0.  0.
   217  2.16  0.  0.
   218  2.17  0.  0.
   219  2.18  0.  0.
   220  2.19  0.  0.
   221  2.20  0.  0.
   222  2.21  0.  0.
   223  2.22  0.  0.
   224  2.23  0.  0.
   225  2.24  0.  0.
   226  2.25  0.  0.
   227  2.26  0.  0.
   228  2.27  0.  0.
   229  2.28  0.  0.
   230  2.29  0.  0.
   231  2.30  0.  0.
   232  2.31  0.  0.
   233  2.32  0.  0.
   234  2.33  0.  0.
   235  2.34  0.  0.
   236  2.35  0.  0.
   237  2.36  0.  0.
   238  2.37  0.  0.
   239  2.38  0.  0.
   240  2.39  0.  0.
   241  2.40  0.  0.
   242  2.41  0.  0.
   243  2.42  0.  0.
   244  2.43  0.  0.
   245  2.44  0.  0.
   246  2.45  0.  0.
   247  2.46  0.  0.
   248  2.47  0.  0.
   249  2.48  0.  0.
   250  2.49  0.  0.
   251  2.50  0.  0.
   252  2.51  0.  0.
   253  2.52  0.  0.
   254  2.53  0.  0.
   255  2.54  0.  0.
   256  2.55  0.  0.
   257  2.56  0.  0.
   258  2.57  0.  0.
   259  2.58  0.  0.
   260  2.59  0.  0.
   261  2.60  0.  0.
   262  2.61  0.  0.
   263  2.62  0.  0.
   264  2.63  0.  0.
   265  2.64  0.  0.
   266  2.65  0.  0.
   267  2.66  0.  0.
   268  2.67  0.  0.
   269  2.68  0.  0.
   270  2.69  0.  0.
   271  2.70  0.  0.
   272  2.71  0.  0.
   273  2.72  0.  0.
   274  2.73  0.  0.
   275  2.74  0.  0.
   276  2.75  0.  0.
   277  2.76  0.  0.
   278  2.77  0.  0.
   279  2.78  0.  0.
   280  2.79  0.  0.
   281  2.80  0.  0.
   282  2.81  0.  0.
   283  2.82  0.  0.
   284  2.83  0.  0.
   285  2.84  0.  0.
   286  2.85  0.  0.
   287  2.86  0.  0.
   288  2.87  0.  0.
   289  2.88  0.  0.
   290  2.89  0.  0.
   291  2.90  0.  0.
   292  2.91  0.  0.
   293  2.92  0.  0.
   294  2.93  0.  0.
   295  2.94  0.  0.
   296  2.95  0.  0.
   297  2.96  0.  0.
   298  2.97  0.  0.
   299  2.98  0.  0.
   300  2.99  0.  0.
   301  3.00  0.  0.
   302  3.01  0.  0.
   303  3.02  0.  0.
   304  3.03  0.  0.
   305  3.04  0.  0.
   306  3.05  0.  0.
   307  3.06  0.  0.
   308  3.07  0.  0.
   309  3.08  0.  0.
   310  3.09  0.  0.
   311  3.10  0.  0.
   312  3.11  0.  0.
   313  3.12  0.  0.
   314  3.13  0.  0.
   315  3.14  0.  0.
   316  3.15  0.  0.
   317  3.16  0.  0.
   318  3.17  0.  0.
   319  3.18  0.  0.
   320  3.19  0.  0.
   321  3.20  0.  0.
   322  3.21  0.  0.
   323  3.22  0.  0.
   324  3.23  0.  0.
   325  3.24  0.  0.
   326  3.25  0.  0.
   327  3.26  0.  0.
   328  3.27  0.  0.
   329  3.28  0.  0.
   330  3.29  0.  0.
   331  3.30  0.  0.
   332  3.31  0.  0.
   333  3.32  0.  0.
   334  3.33  0.  0.
   335  3.34  0.  0.
   336  3.35  0.  0.
   337  3.36  0.  0.
   338  3.37  0.  0.
   339  3.38  0.  0.
   340  3.39  0.  0.
   341  3.40  0.  0.
   342  3.41  0.  0.
   343  3.42  0.  0.
   344  3.43  0.  0.
   345  3.44  0.  0.
   346  3.45  0.  0.
   347  3.46  0.  0.
   348  3.47  0.  0.
   349  3.48  0.  0.
   350  3.49  0.  0.
   351  3.50  0.  0.
   352  3.51  0.  0.
   353  3.52  0.  0.
   354  3.53  0.  0.
   355  3.54  0.  0.
   356  3.55  0.  0.
   357  3.56  0.  0.
   358  3.57  0.  0.
   359  3.58  0.  0.
   360  3.59  0.  0.
   361  3.60  0.  0.
   362  3.61  0.  0.
   363  3.62  0.  0.
   364  3.63  0.  0.
   365  3.64  0.  0.
   366  3.65  0.  0.
   367  3.66  0.  0.
   368  3.67  0.  0.
   369  3.68  0.  0.
   370  3.69  0.  0.
   371  3.70  0.  0.
   372  3.71  0.  0.
   373  3.72  0.  0.
   374  3.73  0.  0.
   375  3.74  0.  0.
   376  3.75  0.  0.
   377  3.76  0.  0.
   378  3.77  0.  0.
   379  3.78  0.  0.
   380  3.79  0.  0.
   381  3.80  0.  0.
   382  3.81  0.  0.
   383  3.82  0.  0.
   384  3.83  0.  0.
   385  3.84  0.  0.
   386  3.85  0.  0.
   387  3.86  0.  0.
   388  3.87  0.  0.
   389  3.88  0.  0.
   390  3.89  0.  0.
   391  3.90  0.  0.
   392  3.91  0.  0.
   393  3.92  0.  0.
   394  3.93  0.  0.
   395  3.94  0.  0.
   396  3.95  0.  0.
   397  3.96  0.  0.
   398  3.97  0.  0.
   399  3.98  0.  0.
   400  3.99  0.  0.
   401  4.00  0.  0.
   402  4.01  0.  0.
   403  4.02  0.  0.
   404  4.03  0.  0.
   405  4.04  0.  0.
   406  4.05  0.  0.
   407  4.06  0.  0.
   408  4.07  0.  0.
   409  4.08  0.  0.
   410  4.09  0.  0.
   411  4.10  0.  0.
   412  4.11  0.  0.
   413  4.12  0.  0.
   414  4.13  0.  0.
   415  4.14  0.  0.
   416  4.15  0.  0.
   417  4.16  0.  0.
   418  4.17  0.  0.
   419  4.18  0.  0.
   420  4.19  0.  0.
   421  4.20  0.  0.
   422  4.21  0.  0.
   423  4.22  0.  0.
   424  4.23  0.  0.
   425  4.24  0.  0.
   426  4.25  0.  0.
   427  4.26  0.  0.
   428  4.27  0.  0.
   429  4.28  0.  0.
   430  4.29  0.  0.
   431  4.30  0.  0.
   432  4.31  0.  0.
   433  4.32  0.  0.
   434  4.33  0.  0.
   435  4.34  0.  0.
   436  4.35  0.  0.
   437  4.36  0.  0.
   438  4.37  0.  0.
   439  4.38  0.  0.
   440  4.39  0.  0.
   441  4.40  0.  0.
   442  4.41  0.  0.
   443  4.42  0.  0.
   444  4.43  0.  0.
   445  4.44  0.  0.
   446  4.45  0.  0.
   447  4.46  0.  0.
   448  4.47  0.  0.
   449  4.48  0.  0.
   450  4.49  0.  0.
   451  4.50  0.  0.
   452  4.51  0.  0.
   453  4.52  0.  0.
   454  4.53  0.  0.
   455  4.54  0.  0.
   456  4.55  0.  0.
   457  4.56  0.  0.
   458  4.57  0.  0.
   459  4.58  0.  0.
   460  4.59  0.  0.
   461  4.60  0.  0.
   462  4.61  0.  0.
   463  4.62  0.  0.
   464  4.63  0.  0.
   465  4.64  0.  0.
   466  4.65  0.  0.
   467  4.66  0.  0.
   468  4.67  0.  0.
   469  4.68  0.  0.
   470  4.69  0.  0.
   471  4.70  0.  0.
   472  4.71  0.  0.
   473  4.72  0.  0.
   474  4.73  0.  0.
   475  4.74  0.  0.
   476  4.75  0.  0.
   477  4.76  0.  0.
   478  4.77  0.  0.
   479  4.78  0.  0.
   480  4.79  0.  0.
   481  4.80  0.  0.
   482  4.81  0.  0.
   483  4.82  0.  0.
   484  4.83  0.  0.
   485  4.84  0.  0.
   486  4.85  0.  0.
   487  4.86  0.  0.
   488  4.87  0.  0.
   489  4.88  0.  0.
   490  4.89  0.  0.
   491  4.90  0.  0.
   492  4.91  0.  0.
   493  4.92  0.  0.
   494  4.93  0.  0.
   495  4.94  0.  0.
   496  4.95  0.  0.
   497  4.96  0.  0.
   498  4.97  0.  0.
   499  4.98  0.  0.
   500  4.99  0.  0.
   501  5.00  0.  0.
   502  5.01  0.  0.
   503  5.02  0.  0.
   504  5.03  0.  0.
   505  5.04  0.  0.
   506  5.05  0.  0.
   507  5.06  0.  0.
   508  5.07  0.  0.
   509  5.08  0.  0.
   510  5.09  0.  0.
   511  5.10  0.  0.
   512  5.11  0.  0.
   513  5.12  0.  0.
   514  5.13  0.  0.
   515  5.14  0.  0.
   516  5.15  0.  0.
   517  5.16  0.  0.
   518  5.17  0.  0.
   519  5.18  0.  0.
   520  5.19  0.  0.
   521  5.20  0.  0.
   522  5.21  0.  0.
   523  5.22  0.  0.
   524  5.23  0.  0.
   525  5.24  0.  0.
   526  5.25  0.  0.
   527  5.26  0.  0.
   528  5.27  0.  0.
   529  5.28  0.  0.
   530  5.29  0.  0.
   531  5.30  0.  0.
   532  5.31  0.  0.
   533  5.32  0.  0.
   534  5.33  0.  0.
   535  5.34  0.  0.
   536  5.35  0.  0.
   537  5.36  0.  0.
   538  5.37  0.  0.
   539  5.38  0.  0.
   540  5.39  0.  0.
   541  5.40  0.  0.
   542  5.41  0.  0.
   543  5.42  0.  0.
   544  5.43  0.  0.
   545  5.44  0.  0.
   546  5.45  0.  0.
   547  5.46  0.  0.
   548  5.47  0.  0.
   549  5.48  0.  0.
   550  5.49  0.  0.
   551  5.50  0.  0.
   552  5.51  0.  0.
   553  5.52  0.  0.
   554  5.53  0.  0.
   555  5.54  0.  0.
   556  5.55  0.  0.
   557  5.56  0.  0.
   558  5.57  0.  0.
   559  5.58  0.  0.
   560  5.59  0.  0.
   561  5.60  0.  0.
   562  5.61  0.  0.
   563  5.62  0.  0.
   564  5.63  0.  0.
   565  5.64  0.  0.
   566  5.65  0.  0.
   567  5.66  0.  0.
   568  5.67  0.  0.
   569  5.68  0.  0.
   570  5.69  0.  0.
   571  5.70  0.  0.
   572  5.71  0.  0.
   573  5.72  0.  0.
   574  5.73  0.  0.
   575  5.74  0.  0.
   576  5.75  0.  0.
   577  5.76  0.  0.
   578  5.77  0.  0.
   579  5.78  0.  0.
   580  5.79  0.  0.
   581  5.80  0.  0.
   582  5.81  0.  0.
   583  5.82  0.  0.
   584  5.83  0.  0.
   585  5.84  0.  0.
   586  5.85  0.  0.
   587  5.86  0.  0.
   588  5.87  0.  0.
   589  5.88  0.  0.
   590  5.89  0.  0.
   591  5.90  0.  0.
   592  5.91  0.  0.
   593  5.92  0.  0.
   594  5.93  0.  0.
   595  5.94  0.  0.
   596  5.95  0.  0.
   597  5.96  0.  0.
   598  5.97  0.  0.
   599  5.98  0.  0.
   600  5.99  0.  0.
   1                         8.5618789151207E+00  1.2016304822770E+00
     1  0.0000000000000E+00 -2.2633052237930E-09  5.7563209615585E-09
     2  1.0000000000000E-02  1.6451637168345E-03 -9.2047973824928E-04
     3  2.0000000000000E-02  6.5756370173130E-03 -3.6783205899126E-03
     4  3.0000000000000E-02  1.4776337876673E-02 -8.2626394043279E-03
     5  4.0000000000000E-02  2.6222036124305E-02 -1.4655007801542E-02
     6  5.0000000000000E-02  4.0877218293593E-02 -2.2829030466065E-02
     7  6.0000000000000E-02  5.8695908351029E-02 -3.2749780332570E-02
     8  7.0000000000000E-02  7.9621453901723E-02 -4.4373115316900E-02
     9  8.0000000000000E-02  1.0358628973179E-01 -5.7644907002031E-02
    10  9.0000000000000E-02  1.3051169246950E-01 -7.2500216527162E-02
    11  1.0000000000000E-01  1.6030754166982E-01 -8.8862456698536E-02
    12  1.1000000000000E-01  1.9287210370380E-01 -1.0664258191927E-01
    13  1.2000000000000E-01  2.2809185543072E-01 -1.2573834883388E-01
    14  1.3000000000000E-01  2.6584136472422E-01 -1.4603369054697E-01
    15  1.4000000000000E-01  3.0598324450562E-01 -1.6739824588690E-01
    16  1.5000000000000E-01  3.4836819601237E-01 -1.8968708246571E-01
    17  1.6000000000000E-01  3.9283515561579E-01 -2.1274064829351E-01
    18  1.7000000000000E-01  4.3921155763178E-01 -2.3638498153369E-01
    19  1.8000000000000E-01  4.8731372328458E-01 -2.6043220176286E-01
    20  1.9000000000000E-01  5.3694738334300E-01 -2.8468129898556E-01
    21  2.0000000000000E-01  5.8790833901584E-01 -3.0891922883461E-01
    22  2.1000000000000E-01  6.3998326254308E-01 -3.3292231407253E-01
    23  2.2000000000000E-01  6.9295063563175E-01 -3.5645794392095E-01
    24  2.3000000000000E-01  7.4658182054621E-01 -3.7928655412232E-01
    25  2.4000000000000E-01  8.0064225535783E-01 -4.0116386221928E-01
    26  2.5000000000000E-01  8.5489276167852E-01 -4.2184332456384E-01
    27  2.6000000000000E-01  9.0909095022937E-01 -4.4107877426960E-01
    28  2.7000000000000E-01  9.6299270691244E-01 -4.5862719291461E-01
    29  2.8000000000000E-01  1.0163537397342E+00 -4.7425156348486E-01
    30  2.9000000000000E-01  1.0689311650396E+00 -4.8772374798986E-01
    31  3.0000000000000E-01  1.1204851101106E+00 -4.9882733052198E-01
    32  3.1000000000000E-01  1.1707803083087E+00 -5.0736036537380E-01
    33  3.2000000000000E-01  1.2195876626230E+00 -5.1313797023909E-01
    34  3.3000000000000E-01  1.2666857537461E+00 -5.1599470652788E-01
    35  3.4000000000000E-01  1.3118622696355E+00 -5.1578669240718E-01
    36  3.5000000000000E-01  1.3549153349177E+00 -5.1239339927527E-01
    37  3.6000000000000E-01  1.3956547204285E+00 -5.0571908888981E-01
    38  3.7000000000000E-01  1.4339029156085E+00 -4.9569385615302E-01
    39  3.8000000000000E-01  1.4694960493391E+00 -4.8227425143631E-01
    40  3.9000000000000E-01  1.5022846480364E+00 -4.6544346608754E-01
    41  4.0000000000000E-01  1.5321342233425E+00 -4.4521107516894E-01
    42  4.1000000000000E-01  1.5589256854809E+00 -4.2161234226065E-01
    43  4.2000000000000E-01  1.5825555821769E+00 -3.9470710205649E-01
    44  4.3000000000000E-01  1.6029361668896E+00 -3.6457824718891E-01
    45  4.4000000000000E-01  1.6199953038601E+00 -3.3132985596144E-01
    46  4.5000000000000E-01  1.6336762210527E+00 -2.9508500715837E-01
    47  4.6000000000000E-01  1.6439371253512E+00 -2.5598333657317E-01
    48  4.7000000000000E-01  1.6507506972948E+00 -2.1417839710462E-01
    49  4.8000000000000E-01  1.6541034850968E+00 -1.6983488998982E-01
    50  4.9000000000000E-01  1.6539952196388E+00 -1.2312583879411E-01
    51  5.0000000000000E-01  1.6504380734878E+00 -7.4229780010644E-02
    52  5.1000000000000E-01  1.6434558877311E+00 -2.3328044436508E-02
    53  5.2000000000000E-01  1.6330833905035E+00  2.9397798165411E-02
    54  5.3000000000000E-01  1.6193654305145E+00  8.3768262244549E-02
    55  5.4000000000000E-01  1.6023562476511E+00  1.3960797416807E-01
    56  5.5000000000000E-01  1.5821188008698E+00  1.9674734853158E-01
    57  5.6000000000000E-01  1.5587241711442E+00  2.5502386622141E-01
    58  5.7000000000000E-01  1.5322510542466E+00  3.1428291792480E-01
    59  5.8000000000000E-01  1.5027853546987E+00  3.7437818857473E-01
    60  5.9000000000000E-01  1.4704198884056E+00  4.3517157096743E-01
    61  6.0000000000000E-01  1.4352541973904E+00  4.9653261019398E-01
    62  6.1000000000000E-01  1.3973944757816E+00  5.5833749424441E-01
    63  6.2000000000000E-01  1.3569536018794E+00  6.2046761982421E-01
    64  6.3000000000000E-01  1.3140512668681E+00  6.8280777570571E-01
    65  6.4000000000000E-01  1.2688141866592E+00  7.4524399846405E-01
    66  6.5000000000000E-01  1.2213763795645E+00  8.0766116686783E-01
    67  6.6000000000000E-01  1.1718794891233E+00  8.6994041117955E-01
    68  6.7000000000000E-01  1.1204731285390E+00  9.3195642186970E-01
    69  6.8000000000000E-01  1.0673152209204E+00  9.9357474849240E-01
    70  6.9000000000000E-01  1.0125723079405E+00  1.0546491834952E+00
    71  7.0000000000000E-01  9.5641979869021E-01  1.1150193273631E+00
    72  7.1000000000000E-01  8.9904213045535E-01  1.1745084306220E+00
    73  7.2000000000000E-01  8.4063281391585E-01  1.2329216047877E+00
    74  7.3000000000000E-01  7.8139433684954E-01  1.2900444883644E+00
    75  7.4000000000000E-01  7.2153790281555E-01  1.3456424455327E+00
    76  7.5000000000000E-01  6.6128298444693E-01  1.3994603643763E+00
    77  7.6000000000000E-01  6.0085667484655E-01  1.4512231085678E+00
    78  7.7000000000000E-01  5.4049282507367E-01  1.5006366616353E+00
    79  7.8000000000000E-01  4.8043096073736E-01  1.5473899865746E+00
    80  7.9000000000000E-01  4.2091497616313E-01  1.5911576060170E+00
    81  8.0000000000000E-01  3.6219161034672E-01  1.6316028898172E+00
    82  8.1000000000000E-01  3.0450871481693E-01  1.6683820182061E+00
    83  8.2000000000000E-01  2.4811332945379E-01  1.7011485700308E+00
    84  8.3000000000000E-01  1.9324958810093E-01  1.7295586675188E+00
    85  8.4000000000000E-01  1.4015648132422E-01  1.7532765919285E+00
    86  8.5000000000000E-01  8.9065508754830E-02  1.7719807688224E+00
    87  8.6000000000000E-01  4.0198257977793E-02  1.7853700079479E+00
    88  8.7000000000000E-01 -6.2360492432786E-03  1.7931698712152E+00
    89  8.8000000000000E-01 -5.0042999592012E-02  1.7951390333677E+00
    90  8.9000000000000E-01 -9.1045373743904E-02  1.7910754939324E+00
    91  9.0000000000000E-01 -1.2908542776206E-01  1.7808224961368E+00
    92  9.1000000000000E-01 -1.6402702317785E-01  1.7642740088418E+00
    93  9.2000000000000E-01 -1.9575755956178E-01  1.7413796312396E+00
    94  9.3000000000000E-01 -2.2418966543707E-01  1.7121487871134E+00
    95  9.4000000000000E-01 -2.4926260649344E-01  1.6766540857537E+00
    96  9.5000000000000E-01 -2.7094337417482E-01  1.6350337400338E+00
    97  9.6000000000000E-01 -2.8922742277459E-01  1.5874929484180E+00
    98  9.7000000000000E-01 -3.0413902907634E-01  1.5343041664893E+00
    99  9.8000000000000E-01 -3.1573125521801E-01  1.4758062145961E+00
   100  9.9000000000000E-01 -3.2408550268930E-01  1.4124021909466E+00
   101  1.0000000000000E+00 -3.2931065304859E-01  1.3445561834828E+00
   102  1.0100000000000E+00 -3.3154179889385E-01  1.2727887985775E+00
   103  1.0200000000000E+00 -3.3093857667699E-01  1.1976715495099E+00
   104  1.0300000000000E+00 -3.2768312091948E-01  1.1198201721778E+00
   105  1.0400000000000E+00 -3.2197766708679E-01  1.0398869590432E+00
   106  1.0500000000000E+00 -3.1404183764677E-01  9.5855222435622E-01
   107  1.0600000000000E+00 -3.0410965247411E-01  8.7651503367680E-01
   108  1.0700000000000E+00 -2.9242631062707E-01  7.9448334815365E-01
   109  1.0800000000000E+00 -2.7924479546868E-01  7.1316374850355E-01
   110  1.0900000000000E+00 -2.6482235898857E-01  6.3325091471763E-01
   111  1.1000000000000E+00 -2.4941694392593E-01  5.5541704497890E-01
   112  1.1100000000000E+00 -2.3328360379637E-01  4.8030140080789E-01
   113  1.1200000000000E+00 -2.1667098115278E-01  4.0850016497327E-01
   114  1.1300000000000E+00 -1.9981790332837E-01  3.4055679412214E-01
   115  1.1400000000000E+00 -1.8295015253834E-01  2.7695303948441E-01
   116  1.1500000000000E+00 -1.6627746357872E-01  2.1810079647216E-01
   117  1.1600000000000E+00 -1.4999079754341E-01  1.6433492782416E-01
   118  1.1700000000000E+00 -1.3425993405819E-01  1.1590718538102E-01
   119  1.1800000000000E+00 -1.1923141762995E-01  7.2981333014361E-02
   120  1.1900000000000E+00 -1.0502688531851E-01  3.5629544899941E-02
   121  1.2000000000000E+00 -9.1741802086096E-02  3.8301638075230E-03
   122  1.2100000000000E+00 -7.9444703747575E-02 -2.2532701106407E-02
   123  1.2200000000000E+00 -6.8178703556703E-02 -4.3659048624856E-02
   124  1.2300000000000E+00 -5.7964398297134E-02 -5.9817684190793E-02
   125  1.2400000000000E+00 -4.8801472389901E-02 -7.1339134807276E-02
   126  1.2500000000000E+00 -4.0670407119018E-02 -7.8608855934298E-02
   127  1.2600000000000E+00 -3.3534539716649E-02 -8.2059366492715E-02
   128  1.2700000000000E+00 -2.7342427767103E-02 -8.2161460331395E-02
   129  1.2800000000000E+00 -2.2030469013168E-02 -7.9414657935619E-02
   130  1.2900000000000E+00 -1.7525720710587E-02 -7.4337081382557E-02
   131  1.3000000000000E+00 -1.3748858418694E-02 -6.7454948362308E-02
   132  1.3100000000000E+00 -1.0617207190825E-02 -5.9291898212283E-02
   133  1.3200000000000E+00 -8.0478170645275E-03 -5.0358285639168E-02
   134  1.3300000000000E+00 -5.9603602096117E-03 -4.1140970829329E-02
   135  1.3400000000000E+00 -4.2838039471667E-03 -3.2085607286210E-02
   136  1.3500000000000E+00 -2.9604278519339E-03 -2.3584097037742E-02
   137  1.3600000000000E+00 -1.9296224252263E-03 -1.6004605239163E-02
   138  1.3700000000000E+00 -1.1434624658172E-03 -9.6575542994172E-03
   139  1.3800000000000E+00 -5.6938519818638E-04 -4.7884148020035E-03
   140  1.3900000000000E+00 -1.9037087930226E-04 -1.5602836594224E-03
   141  1.4000000000000E+00 -1.6236523879245E-05 -1.2662100683132E-04