Tc    ONCVPSP-4.0.1  r_core=   1.40330   1.40330   1.35383
     43.0000     15.0000      250217    zatom,zion,pspd
     8       2   2     4   600     0    pspcod,pspxc,lmax,lloc,mmax,r2well
  5.99000000  5.00000000  0.00000000    rchrg fchrg qchrg
     2     2     2     0    nproj
     3     1           extension_switch
     4     3     0    nprojso
   0                         1.4327573687037E+01  1.4103263570674E+00
     1  0.0000000000000E+00  1.3095605155833E-09 -4.5045752961048E-09
     2  1.0000000000000E-02  5.6908659286215E-02 -2.1242266095531E-02
     3  2.0000000000000E-02  1.1378353458939E-01 -4.2511135975589E-02
     4  3.0000000000000E-02  1.7059001846523E-01 -6.3830842467167E-02
     5  4.0000000000000E-02  2.2729187383242E-01 -8.5220930964506E-02
     6  5.0000000000000E-02  2.8385046202265E-01 -1.0669405072876E-01
     7  6.0000000000000E-02  3.4022402131420E-01 -1.2825390490135E-01
     8  7.0000000000000E-02  3.9636701120011E-01 -1.4989340670303E-01
     9  8.0000000000000E-02  4.5222953633225E-01 -1.7159308478625E-01
    10  9.0000000000000E-02  5.0775686249745E-01 -1.9331977526322E-01
    11  1.0000000000000E-01  5.6288903515285E-01 -2.1502563166590E-01
    12  1.1000000000000E-01  6.1756060901362E-01 -2.3664747714114E-01
    13  1.2000000000000E-01  6.7170049498857E-01 -2.5810651569725E-01
    14  1.3000000000000E-01  7.2523192844353E-01 -2.7930841145992E-01
    15  1.4000000000000E-01  7.7807256038634E-01 -3.0014373683708E-01
    16  1.5000000000000E-01  8.3013467076062E-01 -3.2048878241026E-01
    17  1.6000000000000E-01  8.8132550065648E-01 -3.4020671344212E-01
    18  1.7000000000000E-01  9.3154769794639E-01 -3.5914905028953E-01
    19  1.8000000000000E-01  9.8069986867789E-01 -3.7715744290708E-01
    20  1.9000000000000E-01  1.0286772245492E+00 -3.9406570317476E-01
    21  2.0000000000000E-01  1.0753723149986E+00 -4.0970205312915E-01
    22  2.1000000000000E-01  1.1206758308895E+00 -4.2389154244633E-01
    23  2.2000000000000E-01  1.1644774655069E+00 -4.3645858482450E-01
    24  2.3000000000000E-01  1.2066668176119E+00 -4.4722956032953E-01
    25  2.4000000000000E-01  1.2471343206650E+00 -4.5603542935663E-01
    26  2.5000000000000E-01  1.2857721820181E+00 -4.6271430366427E-01
    27  2.6000000000000E-01  1.3224753159123E+00 -4.6711392095669E-01
    28  2.7000000000000E-01  1.3571422544916E+00 -4.6909397171341E-01
    29  2.8000000000000E-01  1.3896760217389E+00 -4.6852823034177E-01
    30  2.9000000000000E-01  1.4199849562596E+00 -4.6530644718993E-01
    31  3.0000000000000E-01  1.4479834701307E+00 -4.5933596340843E-01
    32  3.1000000000000E-01  1.4735927325970E+00 -4.5054301696849E-01
    33  3.2000000000000E-01  1.4967412691736E+00 -4.3887371519713E-01
    34  3.3000000000000E-01  1.5173654686773E+00 -4.2429465681661E-01
    35  3.4000000000000E-01  1.5354099928108E+00 -4.0679319450700E-01
    36  3.5000000000000E-01  1.5508280851119E+00 -3.8637733726741E-01
    37  3.6000000000000E-01  1.5635817783141E+00 -3.6307530014432E-01
    38  3.7000000000000E-01  1.5736420013808E+00 -3.3693471703491E-01
    39  3.8000000000000E-01  1.5809885896390E+00 -3.0802154007209E-01
    40  3.9000000000000E-01  1.5856102034831E+00 -2.7641865637219E-01
    41  4.0000000000000E-01  1.5875041630145E+00 -2.4222425950418E-01
    42  4.1000000000000E-01  1.5866762076680E+00 -2.0555001876325E-01
    43  4.2000000000000E-01  1.5831401913292E+00 -1.6651909405818E-01
    44  4.3000000000000E-01  1.5769177246176E+00 -1.2526404783386E-01
    45  4.4000000000000E-01  1.5680377768834E+00 -8.1924707850862E-02
    46  4.5000000000000E-01  1.5565362510137E+00 -3.6646035761827E-02
    47  4.6000000000000E-01  1.5424555443505E+00  1.0423943778250E-02
    48  4.7000000000000E-01  1.5258441088912E+00  5.9136100269213E-02
    49  4.8000000000000E-01  1.5067560234643E+00  1.0934199044352E-01
    50  4.9000000000000E-01  1.4852505897623E+00  1.6089544103736E-01
    51  5.0000000000000E-01  1.4613919629933E+00  2.1365388033207E-01
    52  5.1000000000000E-01  1.4352488264942E+00  2.6747938392927E-01
    53  5.2000000000000E-01  1.4068941179822E+00  3.2223940755264E-01
    54  5.3000000000000E-01  1.3764048132284E+00  3.7780718778878E-01
    55  5.4000000000000E-01  1.3438617708739E+00  4.3406180040726E-01
    56  5.5000000000000E-01  1.3093496399224E+00  4.9088787504207E-01
    57  5.6000000000000E-01  1.2729568291775E+00  5.4817497436442E-01
    58  5.7000000000000E-01  1.2347755356183E+00  6.0581665521189E-01
    59  5.8000000000000E-01  1.1949018264657E+00  6.6370923824276E-01
    60  5.9000000000000E-01  1.1534357675491E+00  7.2175032133557E-01
    61  6.0000000000000E-01  1.1104815885918E+00  7.7983707993893E-01
    62  6.1000000000000E-01  1.0661478742461E+00  8.3786440469463E-01
    63  6.2000000000000E-01  1.0205477681732E+00  8.9572293271896E-01
    64  6.3000000000000E-01  9.7379917622741E-01  9.5329703376787E-01
    65  6.4000000000000E-01  9.2602495390080E-01  1.0104628159893E+00
    66  6.5000000000000E-01  8.7735306264851E-01  1.0670862179637E+00
    67  6.6000000000000E-01  8.2791667956638E-01  1.1230212541756E+00
    68  6.7000000000000E-01  7.7785424514954E-01  1.1781084798817E+00
    69  6.8000000000000E-01  7.2730943452409E-01  1.2321737385528E+00
    70  6.9000000000000E-01  6.7643103861302E-01  1.2850272506627E+00
    71  7.0000000000000E-01  6.2537274315816E-01  1.3364630966605E+00
    72  7.1000000000000E-01  5.7429279534822E-01  1.3862591395773E+00
    73  7.2000000000000E-01  5.2335354996877E-01  1.4341774240072E+00
    74  7.3000000000000E-01  4.7272088945170E-01  1.4799650783491E+00
    75  7.4000000000000E-01  4.2256351491254E-01  1.5233557363653E+00
    76  7.5000000000000E-01  3.7305210816800E-01  1.5640714825467E+00
    77  7.6000000000000E-01  3.2435836776418E-01  1.6018253136929E+00
    78  7.7000000000000E-01  2.7665392515163E-01  1.6363240967907E+00
    79  7.8000000000000E-01  2.3010915024973E-01  1.6672719909565E+00
    80  7.9000000000000E-01  1.8489185867984E-01  1.6943742891885E+00
    81  8.0000000000000E-01  1.4116593584375E-01  1.7173416242080E+00
    82  8.1000000000000E-01  9.9089895713481E-02  1.7358944720376E+00
    83  8.2000000000000E-01  5.8815394614057E-02  1.7497678774078E+00
    84  8.3000000000000E-01  2.0485722362365E-02  1.7587163168538E+00
    85  8.4000000000000E-01 -1.5765705184065E-02  1.7625186086592E+00
    86  8.5000000000000E-01 -4.9816826860739E-02  1.7609827738160E+00
    87  8.6000000000000E-01 -8.1558364129309E-02  1.7539507490530E+00
    88  8.7000000000000E-01 -1.1089516985862E-01  1.7413028518407E+00
    89  8.8000000000000E-01 -1.3774747186144E-01  1.7229618981981E+00
    90  8.9000000000000E-01 -1.6205198589000E-01  1.6988968771197E+00
    91  9.0000000000000E-01 -1.8376287412274E-01  1.6691260905172E+00
    92  9.1000000000000E-01 -2.0285252702313E-01  1.6337196746431E+00
    93  9.2000000000000E-01 -2.1931214879525E-01  1.5928014279640E+00
    94  9.3000000000000E-01 -2.3315212946135E-01  1.5465498812040E+00
    95  9.4000000000000E-01 -2.4440218979864E-01  1.4951985576179E+00
    96  9.5000000000000E-01 -2.5311128893890E-01  1.4390353852498E+00
    97  9.6000000000000E-01 -2.5934728828946E-01  1.3784012377273E+00
    98  9.7000000000000E-01 -2.6319636950517E-01  1.3136875957567E+00
    99  9.8000000000000E-01 -2.6476220845089E-01  1.2453333376108E+00
   100  9.9000000000000E-01 -2.6416491135807E-01  1.1738206832171E+00
   101  1.0000000000000E+00 -2.6153972361319E-01  1.0996703326256E+00
   102  1.0100000000000E+00 -2.5703552573151E-01  1.0234358553291E+00
   103  1.0200000000000E+00 -2.5081313498635E-01  9.4569740180258E-01
   104  1.0300000000000E+00 -2.4304343479380E-01  8.6705482238704E-01
   105  1.0400000000000E+00 -2.3390535721854E-01  7.8812029097397E-01
   106  1.0500000000000E+00 -2.2358374680329E-01  7.0951054159212E-01
   107  1.0600000000000E+00 -2.1226713625726E-01  6.3183883467838E-01
   108  1.0700000000000E+00 -2.0014546632380E-01  5.5570677635466E-01
   109  1.0800000000000E+00 -1.8740778333557E-01  4.8169611825543E-01
   110  1.0900000000000E+00 -1.7423994852546E-01  4.1036066723106E-01
   111  1.1000000000000E+00 -1.6082239307523E-01  3.4221843353076E-01
   112  1.1100000000000E+00 -1.4732795214400E-01  2.7774414281755E-01
   113  1.1200000000000E+00 -1.3391980973346E-01  2.1736223162602E-01
   114  1.1300000000000E+00 -1.2074958423333E-01  1.6144043771151E-01
   115  1.1400000000000E+00 -1.0795558188957E-01  1.1028408631940E-01
   116  1.1500000000000E+00 -9.5661242283682E-02  6.4131160863289E-02
   117  1.1600000000000E+00 -8.3973796276039E-02  2.3148232125939E-02
   118  1.1700000000000E+00 -7.2983152803746E-02 -1.2572695901950E-02
   119  1.1800000000000E+00 -6.2761026510917E-02 -4.3016382761051E-02
   120  1.1900000000000E+00 -5.3360312937367E-02 -6.8245571533978E-02
   121  1.2000000000000E+00 -4.4814719762578E-02 -8.8401195291409E-02
   122  1.2100000000000E+00 -3.7138730675742E-02 -1.0370114049997E-01
   123  1.2200000000000E+00 -3.0329429669467E-02 -1.1442916402098E-01
   124  1.2300000000000E+00 -2.4369359071896E-02 -1.2091926189049E-01
   125  1.2400000000000E+00 -1.9228040203046E-02 -1.2354850426539E-01
   126  1.2500000000000E+00 -1.4863441848258E-02 -1.2273057779818E-01
   127  1.2600000000000E+00 -1.1223621504506E-02 -1.1890869111015E-01
   128  1.2700000000000E+00 -8.2485091136580E-03 -1.1254796342890E-01
   129  1.2800000000000E+00 -5.8718012448295E-03 -1.0412742223597E-01
   130  1.2900000000000E+00 -4.0229311723171E-03 -9.4131746103314E-02
   131  1.3000000000000E+00 -2.6290788908696E-03 -8.3042894060835E-02
   132  1.3100000000000E+00 -1.6171803754519E-03 -7.1331776503448E-02
   133  1.3200000000000E+00 -9.1593692316280E-04 -5.9450011059810E-02
   134  1.3300000000000E+00 -4.5762631581314E-04 -4.7822340261380E-02
   135  1.3400000000000E+00 -1.8373289029762E-04 -3.6828863221748E-02
   136  1.3500000000000E+00 -4.7457337147253E-05 -2.6795230283110E-02
   137  1.3600000000000E+00  3.2288703309583E-06 -1.8037075076914E-02
   138  1.3700000000000E+00  1.0036038697588E-05 -1.0817176394230E-02
   139  1.3800000000000E+00  2.7179153632767E-06 -5.3401719783782E-03
   140  1.3900000000000E+00 -1.8143324331722E-06 -1.7356107984342E-03
   141  1.4000000000000E+00 -5.5231555530552E-07 -1.4073109458650E-04
   142  1.4100000000000E+00  7.9279366582593E-08  1.4816425855803E-05
   143  1.4200000000000E+00 -2.3856099980995E-09 -6.3402374736796E-07
   144  1.43  0.  0.
   145  1.44  0.  0.
   146  1.45  0.  0.
   147  1.46  0.  0.
   148  1.47  0.  0.
   149  1.48  0.  0.
   150  1.49  0.  0.
   151  1.50  0.  0.
   152  1.51  0.  0.
   153  1.52  0.  0.
   154  1.53  0.  0.
   155  1.54  0.  0.
   156  1.55  0.  0.
   157  1.56  0.  0.
   158  1.57  0.  0.
   159  1.58  0.  0.
   160  1.59  0.  0.
   161  1.60  0.  0.
   162  1.61  0.  0.
   163  1.62  0.  0.
   164  1.63  0.  0.
   165  1.64  0.  0.
   166  1.65  0.  0.
   167  1.66  0.  0.
   168  1.67  0.  0.
   169  1.68  0.  0.
   170  1.69  0.  0.
   171  1.70  0.  0.
   172  1.71  0.  0.
   173  1.72  0.  0.
   174  1.73  0.  0.
   175  1.74  0.  0.
   176  1.75  0.  0.
   177  1.76  0.  0.
   178  1.77  0.  0.
   179  1.78  0.  0.
   180  1.79  0.  0.
   181  1.80  0.  0.
   182  1.81  0.  0.
   183  1.82  0.  0.
   184  1.83  0.  0.
   185  1.84  0.  0.
   186  1.85  0.  0.
   187  1.86  0.  0.
   188  1.87  0.  0.
   189  1.88  0.  0.
   190  1.89  0.  0.
   191  1.90  0.  0.
   192  1.91  0.  0.
   193  1.92  0.  0.
   194  1.93  0.  0.
   195  1.94  0.  0.
   196  1.95  0.  0.
   197  1.96  0.  0.
   198  1.97  0.  0.
   199  1.98  0.  0.
   200  1.99  0.  0.
   201  2.00  0.  0.
   202  2.01  0.  0.
   203  2.02  0.  0.
   204  2.03  0.  0.
   205  2.04  0.  0.
   206  2.05  0.  0.
   207  2.06  0.  0.
   208  2.07  0.  0.
   209  2.08  0.  0.
   210  2.09  0.  0.
   211  2.10  0.  0.
   212  2.11  0.  0.
   213  2.12  0.  0.
   214  2.13  0.  0.
   215  2.14  0.  0.
   216  2.15  0.  0.
   217  2.16  0.  0.
   218  2.17  0.  0.
   219  2.18  0.  0.
   220  2.19  0.  0.
   221  2.20  0.  0.
   222  2.21  0.  0.
   223  2.22  0.  0.
   224  2.23  0.  0.
   225  2.24  0.  0.
   226  2.25  0.  0.
   227  2.26  0.  0.
   228  2.27  0.  0.
   229  2.28  0.  0.
   230  2.29  0.  0.
   231  2.30  0.  0.
   232  2.31  0.  0.
   233  2.32  0.  0.
   234  2.33  0.  0.
   235  2.34  0.  0.
   236  2.35  0.  0.
   237  2.36  0.  0.
   238  2.37  0.  0.
   239  2.38  0.  0.
   240  2.39  0.  0.
   241  2.40  0.  0.
   242  2.41  0.  0.
   243  2.42  0.  0.
   244  2.43  0.  0.
   245  2.44  0.  0.
   246  2.45  0.  0.
   247  2.46  0.  0.
   248  2.47  0.  0.
   249  2.48  0.  0.
   250  2.49  0.  0.
   251  2.50  0.  0.
   252  2.51  0.  0.
   253  2.52  0.  0.
   254  2.53  0.  0.
   255  2.54  0.  0.
   256  2.55  0.  0.
   257  2.56  0.  0.
   258  2.57  0.  0.
   259  2.58  0.  0.
   260  2.59  0.  0.
   261  2.60  0.  0.
   262  2.61  0.  0.
   263  2.62  0.  0.
   264  2.63  0.  0.
   265  2.64  0.  0.
   266  2.65  0.  0.
   267  2.66  0.  0.
   268  2.67  0.  0.
   269  2.68  0.  0.
   270  2.69  0.  0.
   271  2.70  0.  0.
   272  2.71  0.  0.
   273  2.72  0.  0.
   274  2.73  0.  0.
   275  2.74  0.  0.
   276  2.75  0.  0.
   277  2.76  0.  0.
   278  2.77  0.  0.
   279  2.78  0.  0.
   280  2.79  0.  0.
   281  2.80  0.  0.
   282  2.81  0.  0.
   283  2.82  0.  0.
   284  2.83  0.  0.
   285  2.84  0.  0.
   286  2.85  0.  0.
   287  2.86  0.  0.
   288  2.87  0.  0.
   289  2.88  0.  0.
   290  2.89  0.  0.
   291  2.90  0.  0.
   292  2.91  0.  0.
   293  2.92  0.  0.
   294  2.93  0.  0.
   295  2.94  0.  0.
   296  2.95  0.  0.
   297  2.96  0.  0.
   298  2.97  0.  0.
   299  2.98  0.  0.
   300  2.99  0.  0.
   301  3.00  0.  0.
   302  3.01  0.  0.
   303  3.02  0.  0.
   304  3.03  0.  0.
   305  3.04  0.  0.
   306  3.05  0.  0.
   307  3.06  0.  0.
   308  3.07  0.  0.
   309  3.08  0.  0.
   310  3.09  0.  0.
   311  3.10  0.  0.
   312  3.11  0.  0.
   313  3.12  0.  0.
   314  3.13  0.  0.
   315  3.14  0.  0.
   316  3.15  0.  0.
   317  3.16  0.  0.
   318  3.17  0.  0.
   319  3.18  0.  0.
   320  3.19  0.  0.
   321  3.20  0.  0.
   322  3.21  0.  0.
   323  3.22  0.  0.
   324  3.23  0.  0.
   325  3.24  0.  0.
   326  3.25  0.  0.
   327  3.26  0.  0.
   328  3.27  0.  0.
   329  3.28  0.  0.
   330  3.29  0.  0.
   331  3.30  0.  0.
   332  3.31  0.  0.
   333  3.32  0.  0.
   334  3.33  0.  0.
   335  3.34  0.  0.
   336  3.35  0.  0.
   337  3.36  0.  0.
   338  3.37  0.  0.
   339  3.38  0.  0.
   340  3.39  0.  0.
   341  3.40  0.  0.
   342  3.41  0.  0.
   343  3.42  0.  0.
   344  3.43  0.  0.
   345  3.44  0.  0.
   346  3.45  0.  0.
   347  3.46  0.  0.
   348  3.47  0.  0.
   349  3.48  0.  0.
   350  3.49  0.  0.
   351  3.50  0.  0.
   352  3.51  0.  0.
   353  3.52  0.  0.
   354  3.53  0.  0.
   355  3.54  0.  0.
   356  3.55  0.  0.
   357  3.56  0.  0.
   358  3.57  0.  0.
   359  3.58  0.  0.
   360  3.59  0.  0.
   361  3.60  0.  0.
   362  3.61  0.  0.
   363  3.62  0.  0.
   364  3.63  0.  0.
   365  3.64  0.  0.
   366  3.65  0.  0.
   367  3.66  0.  0.
   368  3.67  0.  0.
   369  3.68  0.  0.
   370  3.69  0.  0.
   371  3.70  0.  0.
   372  3.71  0.  0.
   373  3.72  0.  0.
   374  3.73  0.  0.
   375  3.74  0.  0.
   376  3.75  0.  0.
   377  3.76  0.  0.
   378  3.77  0.  0.
   379  3.78  0.  0.
   380  3.79  0.  0.
   381  3.80  0.  0.
   382  3.81  0.  0.
   383  3.82  0.  0.
   384  3.83  0.  0.
   385  3.84  0.  0.
   386  3.85  0.  0.
   387  3.86  0.  0.
   388  3.87  0.  0.
   389  3.88  0.  0.
   390  3.89  0.  0.
   391  3.90  0.  0.
   392  3.91  0.  0.
   393  3.92  0.  0.
   394  3.93  0.  0.
   395  3.94  0.  0.
   396  3.95  0.  0.
   397  3.96  0.  0.
   398  3.97  0.  0.
   399  3.98  0.  0.
   400  3.99  0.  0.
   401  4.00  0.  0.
   402  4.01  0.  0.
   403  4.02  0.  0.
   404  4.03  0.  0.
   405  4.04  0.  0.
   406  4.05  0.  0.
   407  4.06  0.  0.
   408  4.07  0.  0.
   409  4.08  0.  0.
   410  4.09  0.  0.
   411  4.10  0.  0.
   412  4.11  0.  0.
   413  4.12  0.  0.
   414  4.13  0.  0.
   415  4.14  0.  0.
   416  4.15  0.  0.
   417  4.16  0.  0.
   418  4.17  0.  0.
   419  4.18  0.  0.
   420  4.19  0.  0.
   421  4.20  0.  0.
   422  4.21  0.  0.
   423  4.22  0.  0.
   424  4.23  0.  0.
   425  4.24  0.  0.
   426  4.25  0.  0.
   427  4.26  0.  0.
   428  4.27  0.  0.
   429  4.28  0.  0.
   430  4.29  0.  0.
   431  4.30  0.  0.
   432  4.31  0.  0.
   433  4.32  0.  0.
   434  4.33  0.  0.
   435  4.34  0.  0.
   436  4.35  0.  0.
   437  4.36  0.  0.
   438  4.37  0.  0.
   439  4.38  0.  0.
   440  4.39  0.  0.
   441  4.40  0.  0.
   442  4.41  0.  0.
   443  4.42  0.  0.
   444  4.43  0.  0.
   445  4.44  0.  0.
   446  4.45  0.  0.
   447  4.46  0.  0.
   448  4.47  0.  0.
   449  4.48  0.  0.
   450  4.49  0.  0.
   451  4.50  0.  0.
   452  4.51  0.  0.
   453  4.52  0.  0.
   454  4.53  0.  0.
   455  4.54  0.  0.
   456  4.55  0.  0.
   457  4.56  0.  0.
   458  4.57  0.  0.
   459  4.58  0.  0.
   460  4.59  0.  0.
   461  4.60  0.  0.
   462  4.61  0.  0.
   463  4.62  0.  0.
   464  4.63  0.  0.
   465  4.64  0.  0.
   466  4.65  0.  0.
   467  4.66  0.  0.
   468  4.67  0.  0.
   469  4.68  0.  0.
   470  4.69  0.  0.
   471  4.70  0.  0.
   472  4.71  0.  0.
   473  4.72  0.  0.
   474  4.73  0.  0.
   475  4.74  0.  0.
   476  4.75  0.  0.
   477  4.76  0.  0.
   478  4.77  0.  0.
   479  4.78  0.  0.
   480  4.79  0.  0.
   481  4.80  0.  0.
   482  4.81  0.  0.
   483  4.82  0.  0.
   484  4.83  0.  0.
   485  4.84  0.  0.
   486  4.85  0.  0.
   487  4.86  0.  0.
   488  4.87  0.  0.
   489  4.88  0.  0.
   490  4.89  0.  0.
   491  4.90  0.  0.
   492  4.91  0.  0.
   493  4.92  0.  0.
   494  4.93  0.  0.
   495  4.94  0.  0.
   496  4.95  0.  0.
   497  4.96  0.  0.
   498  4.97  0.  0.
   499  4.98  0.  0.
   500  4.99  0.  0.
   501  5.00  0.  0.
   502  5.01  0.  0.
   503  5.02  0.  0.
   504  5.03  0.  0.
   505  5.04  0.  0.
   506  5.05  0.  0.
   507  5.06  0.  0.
   508  5.07  0.  0.
   509  5.08  0.  0.
   510  5.09  0.  0.
   511  5.10  0.  0.
   512  5.11  0.  0.
   513  5.12  0.  0.
   514  5.13  0.  0.
   515  5.14  0.  0.
   516  5.15  0.  0.
   517  5.16  0.  0.
   518  5.17  0.  0.
   519  5.18  0.  0.
   520  5.19  0.  0.
   521  5.20  0.  0.
   522  5.21  0.  0.
   523  5.22  0.  0.
   524  5.23  0.  0.
   525  5.24  0.  0.
   526  5.25  0.  0.
   527  5.26  0.  0.
   528  5.27  0.  0.
   529  5.28  0.  0.
   530  5.29  0.  0.
   531  5.30  0.  0.
   532  5.31  0.  0.
   533  5.32  0.  0.
   534  5.33  0.  0.
   535  5.34  0.  0.
   536  5.35  0.  0.
   537  5.36  0.  0.
   538  5.37  0.  0.
   539  5.38  0.  0.
   540  5.39  0.  0.
   541  5.40  0.  0.
   542  5.41  0.  0.
   543  5.42  0.  0.
   544  5.43  0.  0.
   545  5.44  0.  0.
   546  5.45  0.  0.
   547  5.46  0.  0.
   548  5.47  0.  0.
   549  5.48  0.  0.
   550  5.49  0.  0.
   551  5.50  0.  0.
   552  5.51  0.  0.
   553  5.52  0.  0.
   554  5.53  0.  0.
   555  5.54  0.  0.
   556  5.55  0.  0.
   557  5.56  0.  0.
   558  5.57  0.  0.
   559  5.58  0.  0.
   560  5.59  0.  0.
   561  5.60  0.  0.
   562  5.61  0.  0.
   563  5.62  0.  0.
   564  5.63  0.  0.
   565  5.64  0.  0.
   566  5.65  0.  0.
   567  5.66  0.  0.
   568  5.67  0.  0.
   569  5.68  0.  0.
   570  5.69  0.  0.
   571  5.70  0.  0.
   572  5.71  0.  0.
   573  5.72  0.  0.
   574  5.73  0.  0.
   575  5.74  0.  0.
   576  5.75  0.  0.
   577  5.76  0.  0.
   578  5.77  0.  0.
   579  5.78  0.  0.
   580  5.79  0.  0.
   581  5.80  0.  0.
   582  5.81  0.  0.
   583  5.82  0.  0.
   584  5.83  0.  0.
   585  5.84  0.  0.
   586  5.85  0.  0.
   587  5.86  0.  0.
   588  5.87  0.  0.
   589  5.88  0.  0.
   590  5.89  0.  0.
   591  5.90  0.  0.
   592  5.91  0.  0.
   593  5.92  0.  0.
   594  5.93  0.  0.
   595  5.94  0.  0.
   596  5.95  0.  0.
   597  5.96  0.  0.
   598  5.97  0.  0.
   599  5.98  0.  0.
   600  5.99  0.  0.
   1                         8.5591426344807E+00  1.2039976444405E+00
     1  0.0000000000000E+00 -2.3132439852525E-09  5.9718733430580E-09
     2  1.0000000000000E-02  1.6434558983047E-03 -9.1520241747701E-04
     3  2.0000000000000E-02  6.5688555506326E-03 -3.6574072333011E-03
     4  3.0000000000000E-02  1.4761265092007E-02 -8.2163137578768E-03
     5  4.0000000000000E-02  2.6195697106954E-02 -1.4574446784392E-02
     6  5.0000000000000E-02  4.0836969318971E-02 -2.2706708950804E-02
     7  6.0000000000000E-02  5.8639516905329E-02 -3.2579780532088E-02
     8  7.0000000000000E-02  7.9547168238545E-02 -4.4151392200606E-02
     9  8.0000000000000E-02  1.0349289616908E-01 -5.7369502264339E-02
    10  9.0000000000000E-02  1.3039855892926E-01 -7.2171414920537E-02
    11  1.0000000000000E-01  1.6017464629779E-01 -8.8482879990190E-02
    12  1.1000000000000E-01  1.9272004777001E-01 -1.0621721730058E-01
    13  1.2000000000000E-01  2.2792186009563E-01 -1.2527451026611E-01
    14  1.3000000000000E-01  2.6565525165005E-01 -1.4554091322584E-01
    15  1.4000000000000E-01  3.0578340068895E-01 -1.6688811571078E-01
    16  1.5000000000000E-01  3.4815752360246E-01 -1.8917300405598E-01
    17  1.6000000000000E-01  3.9261700785474E-01 -2.1223755670051E-01
    18  1.7000000000000E-01  4.3898966239754E-01 -2.3590900422801E-01
    19  1.8000000000000E-01  4.8709209602895E-01 -2.6000027882468E-01
    20  1.9000000000000E-01  5.3673023148524E-01 -2.8431077052998E-01
    21  2.0000000000000E-01  5.8769996007300E-01 -3.0862739962211E-01
    22  2.1000000000000E-01  6.3978793844444E-01 -3.3272600592582E-01
    23  2.2000000000000E-01  6.9277252577319E-01 -3.5637304698685E-01
    24  2.3000000000000E-01  7.4642485618743E-01 -3.7932758816725E-01
    25  2.4000000000000E-01  8.0051003795096E-01 -4.0134355902504E-01
    26  2.5000000000000E-01  8.5478846763961E-01 -4.2217224209804E-01
    27  2.6000000000000E-01  9.0901724452687E-01 -4.4156495265045E-01
    28  2.7000000000000E-01  9.6295166765224E-01 -4.5927586128693E-01
    29  2.8000000000000E-01  1.0163467956730E+00 -4.7506490579369E-01
    30  2.9000000000000E-01  1.0689590476628E+00 -4.8870073430626E-01
    31  3.0000000000000E-01  1.1205478215768E+00 -4.9996361907239E-01
    32  3.1000000000000E-01  1.1708771061919E+00 -5.0864827878623E-01
    33  3.2000000000000E-01  1.2197170619946E+00 -5.1456654778393E-01
    34  3.3000000000000E-01  1.2668455467283E+00 -5.1754983233982E-01
    35  3.4000000000000E-01  1.3120495621477E+00 -5.1745129787024E-01
    36  3.5000000000000E-01  1.3551265999282E+00 -5.1414773597849E-01
    37  3.6000000000000E-01  1.3958858666294E+00 -5.0754106685903E-01
    38  3.7000000000000E-01  1.4341493700634E+00 -4.9755944047599E-01
    39  3.8000000000000E-01  1.4697528523130E+00 -4.8415790896266E-01
    40  3.9000000000000E-01  1.5025465579209E+00 -4.6731865263651E-01
    41  4.0000000000000E-01  1.5323958293405E+00 -4.4705075264781E-01
    42  4.1000000000000E-01  1.5591815255177E+00 -4.2338951431081E-01
    43  4.2000000000000E-01  1.5828002633677E+00 -3.9639535632202E-01
    44  4.3000000000000E-01  1.6031644858194E+00 -3.6615229205844E-01
    45  4.4000000000000E-01  1.6202023639194E+00 -3.3276603967522E-01
    46  4.5000000000000E-01  1.6338575441268E+00 -2.9636180749829E-01
    47  4.6000000000000E-01  1.6440887552780E+00 -2.5708180995958E-01
    48  4.7000000000000E-01  1.6508692926825E+00 -2.1508257679414E-01
    49  4.8000000000000E-01  1.6541863993299E+00 -1.7053212418640E-01
    50  4.9000000000000E-01  1.6540405661847E+00 -1.2360706082324E-01
    51  5.0000000000000E-01  1.6504447749500E+00 -7.4489704234379E-02
    52  5.1000000000000E-01  1.6434237074606E+00 -2.3365283268838E-02
    53  5.2000000000000E-01  1.6330129459797E+00  2.9580698987394E-02
    54  5.3000000000000E-01  1.6192581881213E+00  8.4164871109605E-02
    55  5.4000000000000E-01  1.6022144988998E+00  1.4020810284000E-01
    56  5.5000000000000E-01  1.5819456205466E+00  1.9753726039946E-01
    57  5.6000000000000E-01  1.5585233582734E+00  2.5598655893533E-01
    58  5.7000000000000E-01  1.5320270571555E+00  3.1539847409034E-01
    59  5.8000000000000E-01  1.5025431818334E+00  3.7562418661462E-01
    60  5.9000000000000E-01  1.4701650068748E+00  4.3652354687924E-01
    61  6.0000000000000E-01  1.4349924214921E+00  4.9796455976988E-01
    62  6.1000000000000E-01  1.3971318479955E+00  5.5982240440265E-01
    63  6.2000000000000E-01  1.3566962689769E+00  6.2197801705333E-01
    64  6.3000000000000E-01  1.3138053538984E+00  6.8431627925785E-01
    65  6.4000000000000E-01  1.2685856716112E+00  7.4672386586200E-01
    66  6.5000000000000E-01  1.2211709714836E+00  8.0908681951349E-01
    67  6.6000000000000E-01  1.1717025123687E+00  8.7128792836416E-01
    68  6.7000000000000E-01  1.1203294157224E+00  9.3320399227522E-01
    69  6.8000000000000E-01  1.0672090168513E+00  9.9470306932225E-01
    70  6.9000000000000E-01  1.0125071866427E+00  1.0556417986518E+00
    71  7.0000000000000E-01  9.5639859524051E-01  1.1158628975727E+00
    72  7.1000000000000E-01  8.9906688904613E-01  1.1751929300530E+00
    73  7.2000000000000E-01  8.4070475315841E-01  1.2334404404837E+00
    74  7.3000000000000E-01  7.8151383293193E-01  1.2903945406644E+00
    75  7.4000000000000E-01  7.2170449071065E-01  1.3458240295443E+00
    76  7.5000000000000E-01  6.6149537694806E-01  1.3994771144479E+00
    77  7.6000000000000E-01  6.0111279879636E-01  1.4510817895315E+00
    78  7.7000000000000E-01  5.4078987375927E-01  1.5003469123160E+00
    79  7.8000000000000E-01  4.8076546105855E-01  1.5469640026441E+00
    80  7.9000000000000E-01  4.2128286885118E-01  1.5906097706729E+00
    81  8.0000000000000E-01  3.6258834122544E-01  1.6309493619480E+00
    82  8.1000000000000E-01  3.0492933486285E-01  1.6676402886488E+00
    83  8.2000000000000E-01  2.4855260123367E-01  1.7003369971971E+00
    84  8.3000000000000E-01  1.9370209604653E-01  1.7286960040560E+00
    85  8.4000000000000E-01  1.4061674324859E-01  1.7523815141801E+00
    86  8.5000000000000E-01  8.9528086022861E-02  1.7710714206554E+00
    87  8.6000000000000E-01  4.0657861815206E-02  1.7844635700284E+00
    88  8.7000000000000E-01 -5.7844576856106E-03  1.7922821660549E+00
    89  8.8000000000000E-01 -4.9604117611714E-02  1.7942841754475E+00
    90  8.9000000000000E-01 -9.0623475849833E-02  1.7902655929644E+00
    91  9.0000000000000E-01 -1.2868429648936E-01  1.7800674200859E+00
    92  9.1000000000000E-01 -1.6364989329261E-01  1.7635812117241E+00
    93  9.2000000000000E-01 -1.9540707663675E-01  1.7407540490003E+00
    94  9.3000000000000E-01 -2.2386785940379E-01  1.7115928030871E+00
    95  9.4000000000000E-01 -2.4897088038931E-01  1.6761675653943E+00
    96  9.5000000000000E-01 -2.7068250791608E-01  1.6346141327951E+00
    97  9.6000000000000E-01 -2.8899759140769E-01  1.5871354529296E+00
    98  9.7000000000000E-01 -3.0393983460101E-01  1.5340019535478E+00
    99  9.8000000000000E-01 -3.1556177074398E-01  1.4755507010137E+00
   100  9.9000000000000E-01 -3.2394432739386E-01  1.4121833560191E+00
   101  1.0000000000000E+00 -3.2919597615191E-01  1.3443629187774E+00
   102  1.0100000000000E+00 -3.3145147066853E-01  1.2726092809341E+00
   103  1.0200000000000E+00 -3.3087018436406E-01  1.1974936266136E+00
   104  1.0300000000000E+00 -3.2763406733730E-01  1.1196317498175E+00
   105  1.0400000000000E+00 -3.2194524969542E-01  1.0396763792142E+00
   106  1.0500000000000E+00 -3.1402332586757E-01  9.5830862371130E-01
   107  1.0600000000000E+00 -3.0410236116290E-01  8.7622867245778E-01
   108  1.0700000000000E+00 -2.9242766775545E-01  7.9414590063618E-01
   109  1.0800000000000E+00 -2.7925240227852E-01  7.1276854713765E-01
   110  1.0900000000000E+00 -2.6483404114386E-01  6.3279314151726E-01
   111  1.1000000000000E+00 -2.4943079248706E-01  5.5489386527096E-01
   112  1.1100000000000E+00 -2.3329800517709E-01  4.7971203615635E-01
   113  1.1200000000000E+00 -2.1668463558116E-01  4.0784590390461E-01
   114  1.1300000000000E+00 -1.9982983171004E-01  3.3984094114817E-01
   115  1.1400000000000E+00 -1.8295969200489E-01  2.7618080480226E-01
   116  1.1500000000000E+00 -1.6628425238527E-01  2.1727913057062E-01
   117  1.1600000000000E+00 -1.4999475034844E-01  1.6347230699395E-01
   118  1.1700000000000E+00 -1.3426120896637E-01  1.1501335577221E-01
   119  1.1800000000000E+00 -1.1923037669565E-01  7.2067022362680E-02
   120  1.1900000000000E+00 -1.0502405048885E-01  3.4706152331175E-02
   121  1.2000000000000E+00 -9.1737808781338E-02  2.9094390770121E-03
   122  1.2100000000000E+00 -7.9440254267520E-02 -2.3438978029930E-02
   123  1.2200000000000E+00 -6.8174518620631E-02 -4.4539400896214E-02
   124  1.2300000000000E+00 -5.7961166201853E-02 -6.0661287404630E-02
   125  1.2400000000000E+00 -4.8799801189182E-02 -7.2136148452189E-02
   126  1.2500000000000E+00 -4.0670782444305E-02 -7.9350722580868E-02
   127  1.2600000000000E+00 -3.3537290151355E-02 -8.2739068845649E-02
   128  1.2700000000000E+00 -2.7347699507333E-02 -8.2773727247017E-02
   129  1.2800000000000E+00 -2.2038211317208E-02 -7.9956111728415E-02
   130  1.2900000000000E+00 -1.7535683367585E-02 -7.4806320166394E-02
   131  1.3000000000000E+00 -1.3760602159589E-02 -6.7852558765465E-02
   132  1.3100000000000E+00 -1.0630127570779E-02 -5.9620395737960E-02
   133  1.3200000000000E+00 -8.0611825657025E-03 -5.0621979712942E-02
   134  1.3300000000000E+00 -5.9733625029240E-03 -4.1345762158034E-02
   135  1.3400000000000E+00 -4.2956795977308E-03 -3.2238509043582E-02
   136  1.3500000000000E+00 -2.9706092178135E-03 -2.3692644194372E-02
   137  1.3600000000000E+00 -1.9376080327999E-03 -1.6077221130791E-02
   138  1.3700000000000E+00 -1.1489579422780E-03 -9.7029385175045E-03
   139  1.3800000000000E+00 -5.7233318417962E-04 -4.8152889386918E-03
   140  1.3900000000000E+00 -1.9116646691358E-04 -1.5762147109358E-03
   141  1.4000000000000E+00 -1.5797549450487E-05 -1.3977479709292E-04