Tc    ONCVPSP-4.0.1  r_core=   1.40330   1.40330   1.35383
     43.0000     15.0000      250925    zatom,zion,pspd
     8   -1012   2     4   600     0    pspcod,pspxc,lmax,lloc,mmax,r2well
  5.99000000  5.00000000  0.00000000    rchrg fchrg qchrg
     2     2     2     0    nproj
     3     1           extension_switch
     4     3     0    nprojso
   0                         1.4327105203385E+01  1.4102544997817E+00
     1  0.0000000000000E+00  1.3095619033621E-09 -4.5045806251753E-09
     2  1.0000000000000E-02  5.6905461299525E-02 -2.1235232150722E-02
     3  2.0000000000000E-02  1.1377715026972E-01 -4.2497092661274E-02
     4  3.0000000000000E-02  1.7058047112209E-01 -6.3809839060820E-02
     5  4.0000000000000E-02  2.2727919843465E-01 -8.5193041696133E-02
     6  5.0000000000000E-02  2.8383470520251E-01 -1.0665937514799E-01
     7  6.0000000000000E-02  3.4020524137021E-01 -1.2821256835116E-01
     8  7.0000000000000E-02  3.9634527809659E-01 -1.4984556088690E-01
     9  8.0000000000000E-02  4.5220493169290E-01 -1.7153890841203E-01
    10  9.0000000000000E-02  5.0772947958985E-01 -1.9325947474448E-01
    11  1.0000000000000E-01  5.6285897886010E-01 -2.1495944185820E-01
    12  1.1000000000000E-01  6.1752799578920E-01 -2.3657566208820E-01
    13  1.2000000000000E-01  6.7166545278974E-01 -2.5802936935946E-01
    14  1.3000000000000E-01  7.2519459663842E-01 -2.7922625839558E-01
    15  1.4000000000000E-01  7.7803308962951E-01 -3.0005693280450E-01
    16  1.5000000000000E-01  8.3009322283133E-01 -3.2039771485782E-01
    17  1.6000000000000E-01  8.8128224825416E-01 -3.4011180185180E-01
    18  1.7000000000000E-01  9.3150282443713E-01 -3.5905074633890E-01
    19  1.8000000000000E-01  9.8065356778603E-01 -3.7705623041451E-01
    20  1.9000000000000E-01  1.0286296999881E+00 -3.9396209779288E-01
    21  2.0000000000000E-01  1.0753237800342E+00 -4.0959660175241E-01
    22  2.1000000000000E-01  1.1206265078321E+00 -4.2378482230003E-01
    23  2.2000000000000E-01  1.1644275851246E+00 -4.3635120220479E-01
    24  2.3000000000000E-01  1.2066166184616E+00 -4.4712214896629E-01
    25  2.4000000000000E-01  1.2470840483367E+00 -4.5592864837509E-01
    26  2.5000000000000E-01  1.2857220882884E+00 -4.6260883512492E-01
    27  2.6000000000000E-01  1.3224256578059E+00 -4.6701046695760E-01
    28  2.7000000000000E-01  1.3570932932467E+00 -4.6899325104497E-01
    29  2.8000000000000E-01  1.3896280216791E+00 -4.6843097468938E-01
    30  2.9000000000000E-01  1.4199381835704E+00 -4.6521339688681E-01
    31  3.0000000000000E-01  1.4479381915443E+00 -4.5924786274778E-01
    32  3.1000000000000E-01  1.4735492139883E+00 -4.5046060909174E-01
    33  3.2000000000000E-01  1.4966997740729E+00 -4.3879773658254E-01
    34  3.3000000000000E-01  1.5173262567061E+00 -4.2422583140076E-01
    35  3.4000000000000E-01  1.5353733180495E+00 -4.0673222747961E-01
    36  3.5000000000000E-01  1.5507941944092E+00 -3.8632490858824E-01
    37  3.6000000000000E-01  1.5635509095501E+00 -3.6303205783848E-01
    38  3.7000000000000E-01  1.5736143816968E+00 -3.3690127033117E-01
    39  3.8000000000000E-01  1.5809644336489E+00 -3.0799845245517E-01
    40  3.9000000000000E-01  1.5855897114839E+00 -2.7640643862739E-01
    41  4.0000000000000E-01  1.5874875192117E+00 -2.4222336283827E-01
    42  4.1000000000000E-01  1.5866635784366E+00 -2.0556082809026E-01
    43  4.2000000000000E-01  1.5831317235285E+00 -1.6654192154298E-01
    44  4.3000000000000E-01  1.5769135439818E+00 -1.2529912678928E-01
    45  4.4000000000000E-01  1.5680379865086E+00 -8.1972187085020E-02
    46  4.5000000000000E-01  1.5565409299618E+00 -3.6705974472963E-02
    47  4.6000000000000E-01  1.5424647463918E+00  1.0351580464022E-02
    48  4.7000000000000E-01  1.5258578614072E+00  5.9051445024524E-02
    49  4.8000000000000E-01  1.5067743265288E+00  1.0924527664297E-01
    50  4.9000000000000E-01  1.4852734154220E+00  1.6078700475538E-01
    51  5.0000000000000E-01  1.4614192547633E+00  2.1353416136186E-01
    52  5.1000000000000E-01  1.4352804990860E+00  2.6734892575832E-01
    53  5.2000000000000E-01  1.4069300572766E+00  3.2209885624123E-01
    54  5.3000000000000E-01  1.3764448765045E+00  3.7765728971067E-01
    55  5.4000000000000E-01  1.3439057873046E+00  4.3390339882486E-01
    56  5.5000000000000E-01  1.3093974113393E+00  4.9072190550352E-01
    57  5.6000000000000E-01  1.2730081311098E+00  5.4800245892551E-01
    58  5.7000000000000E-01  1.2348301186036E+00  6.0563869550229E-01
    59  5.8000000000000E-01  1.1949594176288E+00  6.6352700741290E-01
    60  5.9000000000000E-01  1.1534960724409E+00  7.2156505493741E-01
    61  6.0000000000000E-01  1.1105442932755E+00  7.7965006581156E-01
    62  6.1000000000000E-01  1.0662126476167E+00  8.3767697194166E-01
    63  6.2000000000000E-01  1.0206142644906E+00  8.9553643988143E-01
    64  6.3000000000000E-01  9.7386703784076E-01  9.5311285631145E-01
    65  6.4000000000000E-01  9.2609381413941E-01  1.0102823332385E+00
    66  6.5000000000000E-01  8.7742254884933E-01  1.0669107996292E+00
    67  6.6000000000000E-01  8.2798641620809E-01  1.1228522466299E+00
    68  6.7000000000000E-01  7.7792385705922E-01  1.1779471923502E+00
    69  6.8000000000000E-01  7.2737855012104E-01  1.2320214293907E+00
    70  6.9000000000000E-01  6.7649929315307E-01  1.2848851138950E+00
    71  7.0000000000000E-01  6.2543978194058E-01  1.3363322489641E+00
    72  7.1000000000000E-01  5.7435827684715E-01  1.3861406078803E+00
    73  7.2000000000000E-01  5.2341714885095E-01  1.4340721338823E+00
    74  7.3000000000000E-01  4.7278229944338E-01  1.4798738433661E+00
    75  7.4000000000000E-01  4.2262245147926E-01  1.5232792485625E+00
    76  7.5000000000000E-01  3.7310831097314E-01  1.5640103041674E+00
    77  7.6000000000000E-01  3.2441160287434E-01  1.6017798703193E+00
    78  7.7000000000000E-01  2.7670398695976E-01  1.6362946719908E+00
    79  7.8000000000000E-01  2.3015586309051E-01  1.6672587225412E+00
    80  7.9000000000000E-01  1.8493507811546E-01  1.6943771671536E+00
    81  8.0000000000000E-01  1.4120554960248E-01  1.7173604904153E+00
    82  8.1000000000000E-01  9.9125824268018E-02  1.7359290216632E+00
    83  8.2000000000000E-01  5.8847591391542E-02  1.7498176621634E+00
    84  8.3000000000000E-01  2.0514173582636E-02  1.7587807499590E+00
    85  8.4000000000000E-01 -1.5740981039800E-02  1.7625969715179E+00
    86  8.5000000000000E-01 -4.9795779943929E-02  1.7610742243258E+00
    87  8.6000000000000E-01 -8.1540914468484E-02  1.7540543314498E+00
    88  8.7000000000000E-01 -1.1088120893709E-01  1.7414175079586E+00
    89  8.8000000000000E-01 -1.3773686450630E-01  1.7230864800007E+00
    90  8.9000000000000E-01 -1.6204457244609E-01  1.6990301603421E+00
    91  9.0000000000000E-01 -1.8375847288098E-01  1.6692667892344E+00
    92  9.1000000000000E-01 -2.0285093686919E-01  1.6338664565717E+00
    93  9.2000000000000E-01 -2.1931315204117E-01  1.5929529302851E+00
    94  9.3000000000000E-01 -2.3315549482023E-01  1.5467047266911E+00
    95  9.4000000000000E-01 -2.4440767546072E-01  1.4953553708437E+00
    96  9.5000000000000E-01 -2.5311864570565E-01  1.4391928086446E+00
    97  9.6000000000000E-01 -2.5935626272206E-01  1.3785579472644E+00
    98  9.7000000000000E-01 -2.6320670704356E-01  1.3138423160411E+00
    99  9.8000000000000E-01 -2.6477365646039E-01  1.2454848561590E+00
   100  9.9000000000000E-01 -2.6417722206206E-01  1.1739678637253E+00
   101  1.0000000000000E+00 -2.6155265687234E-01  1.0998121270402E+00
   102  1.0100000000000E+00 -2.5704885163271E-01  1.0235713145499E+00
   103  1.0200000000000E+00 -2.5082663620806E-01  9.4582568487077E-01
   104  1.0300000000000E+00 -2.4305690871810E-01  8.6717520403318E-01
   105  1.0400000000000E+00 -2.3391861776469E-01  7.8823216742716E-01
   106  1.0500000000000E+00 -2.2359662596203E-01  7.0961343457774E-01
   107  1.0600000000000E+00 -2.1227948531046E-01  6.3193239356095E-01
   108  1.0700000000000E+00 -2.0015715673908E-01  5.5579077841146E-01
   109  1.0800000000000E+00 -1.8741870733092E-01  4.8177046709578E-01
   110  1.0900000000000E+00 -1.7425001930443E-01  4.1042538940570E-01
   111  1.1000000000000E+00 -1.6083154473856E-01  3.4227367340431E-01
   112  1.1100000000000E+00 -1.4733613928894E-01  2.7779015580457E-01
   113  1.1200000000000E+00 -1.3392700675693E-01  2.1739937591680E-01
   114  1.1300000000000E+00 -1.2075578435998E-01  1.6146916463763E-01
   115  1.1400000000000E+00 -1.0796079595001E-01  1.1030492953038E-01
   116  1.1500000000000E+00 -9.5665497272158E-02  6.4144724503957E-02
   117  1.1600000000000E+00 -8.3977133720218E-02  2.3155178219721E-02
   118  1.1700000000000E+00 -7.2985626982042E-02 -1.2571660646934E-02
   119  1.1800000000000E+00 -6.2762702555128E-02 -4.3020520497464E-02
   120  1.1900000000000E+00 -5.3361264859935E-02 -6.8254126942181E-02
   121  1.2000000000000E+00 -4.4815028448500E-02 -8.8413409135880E-02
   122  1.2100000000000E+00 -3.7138481875484E-02 -1.0371626283731E-01
   123  1.2200000000000E+00 -3.0328711954227E-02 -1.1444646666831E-01
   124  1.2300000000000E+00 -2.4368261758571E-02 -1.2093804989591E-01
   125  1.2400000000000E+00 -1.9226651367039E-02 -1.2356812639211E-01
   126  1.2500000000000E+00 -1.4861846467902E-02 -1.2275043589241E-01
   127  1.2600000000000E+00 -1.1221899764544E-02 -1.1892824821546E-01
   128  1.2700000000000E+00 -8.2467348915366E-03 -1.1256675053294E-01
   129  1.2800000000000E+00 -5.8700407992630E-03 -1.0414504356148E-01
   130  1.2900000000000E+00 -4.0212420492896E-03 -9.4147882881535E-02
   131  1.3000000000000E+00 -2.6275090575366E-03 -8.3057306753471E-02
   132  1.3100000000000E+00 -1.6157675876688E-03 -7.1344305467942E-02
   133  1.3200000000000E+00 -9.1470832782837E-04 -5.9460575674705E-02
   134  1.3300000000000E+00 -4.5659828376881E-04 -4.7830936581050E-02
   135  1.3400000000000E+00 -1.8291111762628E-04 -3.6835559555655E-02
   136  1.3500000000000E+00 -4.6837340005404E-05 -2.6800160854316E-02
   137  1.3600000000000E+00  3.6614016391507E-06 -1.8040436008220E-02
   138  1.3700000000000E+00  1.0304808699262E-05 -1.0819218889235E-02
   139  1.3800000000000E+00  2.8554021712499E-06 -5.3411945480851E-03
   140  1.3900000000000E+00 -1.7680446935635E-06 -1.7359480350300E-03
   141  1.4000000000000E+00 -5.4844982142103E-07 -1.4075877695220E-04
   142  1.4100000000000E+00  7.8853092080622E-08  1.4819405142593E-05
   143  1.4200000000000E+00 -2.3677579173109E-09 -6.3414997343289E-07
   144  1.43  0.  0.
   145  1.44  0.  0.
   146  1.45  0.  0.
   147  1.46  0.  0.
   148  1.47  0.  0.
   149  1.48  0.  0.
   150  1.49  0.  0.
   151  1.50  0.  0.
   152  1.51  0.  0.
   153  1.52  0.  0.
   154  1.53  0.  0.
   155  1.54  0.  0.
   156  1.55  0.  0.
   157  1.56  0.  0.
   158  1.57  0.  0.
   159  1.58  0.  0.
   160  1.59  0.  0.
   161  1.60  0.  0.
   162  1.61  0.  0.
   163  1.62  0.  0.
   164  1.63  0.  0.
   165  1.64  0.  0.
   166  1.65  0.  0.
   167  1.66  0.  0.
   168  1.67  0.  0.
   169  1.68  0.  0.
   170  1.69  0.  0.
   171  1.70  0.  0.
   172  1.71  0.  0.
   173  1.72  0.  0.
   174  1.73  0.  0.
   175  1.74  0.  0.
   176  1.75  0.  0.
   177  1.76  0.  0.
   178  1.77  0.  0.
   179  1.78  0.  0.
   180  1.79  0.  0.
   181  1.80  0.  0.
   182  1.81  0.  0.
   183  1.82  0.  0.
   184  1.83  0.  0.
   185  1.84  0.  0.
   186  1.85  0.  0.
   187  1.86  0.  0.
   188  1.87  0.  0.
   189  1.88  0.  0.
   190  1.89  0.  0.
   191  1.90  0.  0.
   192  1.91  0.  0.
   193  1.92  0.  0.
   194  1.93  0.  0.
   195  1.94  0.  0.
   196  1.95  0.  0.
   197  1.96  0.  0.
   198  1.97  0.  0.
   199  1.98  0.  0.
   200  1.99  0.  0.
   201  2.00  0.  0.
   202  2.01  0.  0.
   203  2.02  0.  0.
   204  2.03  0.  0.
   205  2.04  0.  0.
   206  2.05  0.  0.
   207  2.06  0.  0.
   208  2.07  0.  0.
   209  2.08  0.  0.
   210  2.09  0.  0.
   211  2.10  0.  0.
   212  2.11  0.  0.
   213  2.12  0.  0.
   214  2.13  0.  0.
   215  2.14  0.  0.
   216  2.15  0.  0.
   217  2.16  0.  0.
   218  2.17  0.  0.
   219  2.18  0.  0.
   220  2.19  0.  0.
   221  2.20  0.  0.
   222  2.21  0.  0.
   223  2.22  0.  0.
   224  2.23  0.  0.
   225  2.24  0.  0.
   226  2.25  0.  0.
   227  2.26  0.  0.
   228  2.27  0.  0.
   229  2.28  0.  0.
   230  2.29  0.  0.
   231  2.30  0.  0.
   232  2.31  0.  0.
   233  2.32  0.  0.
   234  2.33  0.  0.
   235  2.34  0.  0.
   236  2.35  0.  0.
   237  2.36  0.  0.
   238  2.37  0.  0.
   239  2.38  0.  0.
   240  2.39  0.  0.
   241  2.40  0.  0.
   242  2.41  0.  0.
   243  2.42  0.  0.
   244  2.43  0.  0.
   245  2.44  0.  0.
   246  2.45  0.  0.
   247  2.46  0.  0.
   248  2.47  0.  0.
   249  2.48  0.  0.
   250  2.49  0.  0.
   251  2.50  0.  0.
   252  2.51  0.  0.
   253  2.52  0.  0.
   254  2.53  0.  0.
   255  2.54  0.  0.
   256  2.55  0.  0.
   257  2.56  0.  0.
   258  2.57  0.  0.
   259  2.58  0.  0.
   260  2.59  0.  0.
   261  2.60  0.  0.
   262  2.61  0.  0.
   263  2.62  0.  0.
   264  2.63  0.  0.
   265  2.64  0.  0.
   266  2.65  0.  0.
   267  2.66  0.  0.
   268  2.67  0.  0.
   269  2.68  0.  0.
   270  2.69  0.  0.
   271  2.70  0.  0.
   272  2.71  0.  0.
   273  2.72  0.  0.
   274  2.73  0.  0.
   275  2.74  0.  0.
   276  2.75  0.  0.
   277  2.76  0.  0.
   278  2.77  0.  0.
   279  2.78  0.  0.
   280  2.79  0.  0.
   281  2.80  0.  0.
   282  2.81  0.  0.
   283  2.82  0.  0.
   284  2.83  0.  0.
   285  2.84  0.  0.
   286  2.85  0.  0.
   287  2.86  0.  0.
   288  2.87  0.  0.
   289  2.88  0.  0.
   290  2.89  0.  0.
   291  2.90  0.  0.
   292  2.91  0.  0.
   293  2.92  0.  0.
   294  2.93  0.  0.
   295  2.94  0.  0.
   296  2.95  0.  0.
   297  2.96  0.  0.
   298  2.97  0.  0.
   299  2.98  0.  0.
   300  2.99  0.  0.
   301  3.00  0.  0.
   302  3.01  0.  0.
   303  3.02  0.  0.
   304  3.03  0.  0.
   305  3.04  0.  0.
   306  3.05  0.  0.
   307  3.06  0.  0.
   308  3.07  0.  0.
   309  3.08  0.  0.
   310  3.09  0.  0.
   311  3.10  0.  0.
   312  3.11  0.  0.
   313  3.12  0.  0.
   314  3.13  0.  0.
   315  3.14  0.  0.
   316  3.15  0.  0.
   317  3.16  0.  0.
   318  3.17  0.  0.
   319  3.18  0.  0.
   320  3.19  0.  0.
   321  3.20  0.  0.
   322  3.21  0.  0.
   323  3.22  0.  0.
   324  3.23  0.  0.
   325  3.24  0.  0.
   326  3.25  0.  0.
   327  3.26  0.  0.
   328  3.27  0.  0.
   329  3.28  0.  0.
   330  3.29  0.  0.
   331  3.30  0.  0.
   332  3.31  0.  0.
   333  3.32  0.  0.
   334  3.33  0.  0.
   335  3.34  0.  0.
   336  3.35  0.  0.
   337  3.36  0.  0.
   338  3.37  0.  0.
   339  3.38  0.  0.
   340  3.39  0.  0.
   341  3.40  0.  0.
   342  3.41  0.  0.
   343  3.42  0.  0.
   344  3.43  0.  0.
   345  3.44  0.  0.
   346  3.45  0.  0.
   347  3.46  0.  0.
   348  3.47  0.  0.
   349  3.48  0.  0.
   350  3.49  0.  0.
   351  3.50  0.  0.
   352  3.51  0.  0.
   353  3.52  0.  0.
   354  3.53  0.  0.
   355  3.54  0.  0.
   356  3.55  0.  0.
   357  3.56  0.  0.
   358  3.57  0.  0.
   359  3.58  0.  0.
   360  3.59  0.  0.
   361  3.60  0.  0.
   362  3.61  0.  0.
   363  3.62  0.  0.
   364  3.63  0.  0.
   365  3.64  0.  0.
   366  3.65  0.  0.
   367  3.66  0.  0.
   368  3.67  0.  0.
   369  3.68  0.  0.
   370  3.69  0.  0.
   371  3.70  0.  0.
   372  3.71  0.  0.
   373  3.72  0.  0.
   374  3.73  0.  0.
   375  3.74  0.  0.
   376  3.75  0.  0.
   377  3.76  0.  0.
   378  3.77  0.  0.
   379  3.78  0.  0.
   380  3.79  0.  0.
   381  3.80  0.  0.
   382  3.81  0.  0.
   383  3.82  0.  0.
   384  3.83  0.  0.
   385  3.84  0.  0.
   386  3.85  0.  0.
   387  3.86  0.  0.
   388  3.87  0.  0.
   389  3.88  0.  0.
   390  3.89  0.  0.
   391  3.90  0.  0.
   392  3.91  0.  0.
   393  3.92  0.  0.
   394  3.93  0.  0.
   395  3.94  0.  0.
   396  3.95  0.  0.
   397  3.96  0.  0.
   398  3.97  0.  0.
   399  3.98  0.  0.
   400  3.99  0.  0.
   401  4.00  0.  0.
   402  4.01  0.  0.
   403  4.02  0.  0.
   404  4.03  0.  0.
   405  4.04  0.  0.
   406  4.05  0.  0.
   407  4.06  0.  0.
   408  4.07  0.  0.
   409  4.08  0.  0.
   410  4.09  0.  0.
   411  4.10  0.  0.
   412  4.11  0.  0.
   413  4.12  0.  0.
   414  4.13  0.  0.
   415  4.14  0.  0.
   416  4.15  0.  0.
   417  4.16  0.  0.
   418  4.17  0.  0.
   419  4.18  0.  0.
   420  4.19  0.  0.
   421  4.20  0.  0.
   422  4.21  0.  0.
   423  4.22  0.  0.
   424  4.23  0.  0.
   425  4.24  0.  0.
   426  4.25  0.  0.
   427  4.26  0.  0.
   428  4.27  0.  0.
   429  4.28  0.  0.
   430  4.29  0.  0.
   431  4.30  0.  0.
   432  4.31  0.  0.
   433  4.32  0.  0.
   434  4.33  0.  0.
   435  4.34  0.  0.
   436  4.35  0.  0.
   437  4.36  0.  0.
   438  4.37  0.  0.
   439  4.38  0.  0.
   440  4.39  0.  0.
   441  4.40  0.  0.
   442  4.41  0.  0.
   443  4.42  0.  0.
   444  4.43  0.  0.
   445  4.44  0.  0.
   446  4.45  0.  0.
   447  4.46  0.  0.
   448  4.47  0.  0.
   449  4.48  0.  0.
   450  4.49  0.  0.
   451  4.50  0.  0.
   452  4.51  0.  0.
   453  4.52  0.  0.
   454  4.53  0.  0.
   455  4.54  0.  0.
   456  4.55  0.  0.
   457  4.56  0.  0.
   458  4.57  0.  0.
   459  4.58  0.  0.
   460  4.59  0.  0.
   461  4.60  0.  0.
   462  4.61  0.  0.
   463  4.62  0.  0.
   464  4.63  0.  0.
   465  4.64  0.  0.
   466  4.65  0.  0.
   467  4.66  0.  0.
   468  4.67  0.  0.
   469  4.68  0.  0.
   470  4.69  0.  0.
   471  4.70  0.  0.
   472  4.71  0.  0.
   473  4.72  0.  0.
   474  4.73  0.  0.
   475  4.74  0.  0.
   476  4.75  0.  0.
   477  4.76  0.  0.
   478  4.77  0.  0.
   479  4.78  0.  0.
   480  4.79  0.  0.
   481  4.80  0.  0.
   482  4.81  0.  0.
   483  4.82  0.  0.
   484  4.83  0.  0.
   485  4.84  0.  0.
   486  4.85  0.  0.
   487  4.86  0.  0.
   488  4.87  0.  0.
   489  4.88  0.  0.
   490  4.89  0.  0.
   491  4.90  0.  0.
   492  4.91  0.  0.
   493  4.92  0.  0.
   494  4.93  0.  0.
   495  4.94  0.  0.
   496  4.95  0.  0.
   497  4.96  0.  0.
   498  4.97  0.  0.
   499  4.98  0.  0.
   500  4.99  0.  0.
   501  5.00  0.  0.
   502  5.01  0.  0.
   503  5.02  0.  0.
   504  5.03  0.  0.
   505  5.04  0.  0.
   506  5.05  0.  0.
   507  5.06  0.  0.
   508  5.07  0.  0.
   509  5.08  0.  0.
   510  5.09  0.  0.
   511  5.10  0.  0.
   512  5.11  0.  0.
   513  5.12  0.  0.
   514  5.13  0.  0.
   515  5.14  0.  0.
   516  5.15  0.  0.
   517  5.16  0.  0.
   518  5.17  0.  0.
   519  5.18  0.  0.
   520  5.19  0.  0.
   521  5.20  0.  0.
   522  5.21  0.  0.
   523  5.22  0.  0.
   524  5.23  0.  0.
   525  5.24  0.  0.
   526  5.25  0.  0.
   527  5.26  0.  0.
   528  5.27  0.  0.
   529  5.28  0.  0.
   530  5.29  0.  0.
   531  5.30  0.  0.
   532  5.31  0.  0.
   533  5.32  0.  0.
   534  5.33  0.  0.
   535  5.34  0.  0.
   536  5.35  0.  0.
   537  5.36  0.  0.
   538  5.37  0.  0.
   539  5.38  0.  0.
   540  5.39  0.  0.
   541  5.40  0.  0.
   542  5.41  0.  0.
   543  5.42  0.  0.
   544  5.43  0.  0.
   545  5.44  0.  0.
   546  5.45  0.  0.
   547  5.46  0.  0.
   548  5.47  0.  0.
   549  5.48  0.  0.
   550  5.49  0.  0.
   551  5.50  0.  0.
   552  5.51  0.  0.
   553  5.52  0.  0.
   554  5.53  0.  0.
   555  5.54  0.  0.
   556  5.55  0.  0.
   557  5.56  0.  0.
   558  5.57  0.  0.
   559  5.58  0.  0.
   560  5.59  0.  0.
   561  5.60  0.  0.
   562  5.61  0.  0.
   563  5.62  0.  0.
   564  5.63  0.  0.
   565  5.64  0.  0.
   566  5.65  0.  0.
   567  5.66  0.  0.
   568  5.67  0.  0.
   569  5.68  0.  0.
   570  5.69  0.  0.
   571  5.70  0.  0.
   572  5.71  0.  0.
   573  5.72  0.  0.
   574  5.73  0.  0.
   575  5.74  0.  0.
   576  5.75  0.  0.
   577  5.76  0.  0.
   578  5.77  0.  0.
   579  5.78  0.  0.
   580  5.79  0.  0.
   581  5.80  0.  0.
   582  5.81  0.  0.
   583  5.82  0.  0.
   584  5.83  0.  0.
   585  5.84  0.  0.
   586  5.85  0.  0.
   587  5.86  0.  0.
   588  5.87  0.  0.
   589  5.88  0.  0.
   590  5.89  0.  0.
   591  5.90  0.  0.
   592  5.91  0.  0.
   593  5.92  0.  0.
   594  5.93  0.  0.
   595  5.94  0.  0.
   596  5.95  0.  0.
   597  5.96  0.  0.
   598  5.97  0.  0.
   599  5.98  0.  0.
   600  5.99  0.  0.
   1                         8.5589606230094E+00  1.2039723768319E+00
     1  0.0000000000000E+00 -2.3104461260859E-09  5.9626684076330E-09
     2  1.0000000000000E-02  1.6434526310173E-03 -9.1537141669010E-04
     3  2.0000000000000E-02  6.5688405819675E-03 -3.6580757349650E-03
     4  3.0000000000000E-02  1.4761224352233E-02 -8.2177899929954E-03
     5  4.0000000000000E-02  2.6195607341643E-02 -1.4577002569354E-02
     6  5.0000000000000E-02  4.0836794846388E-02 -2.2710566585358E-02
     7  6.0000000000000E-02  5.8639206791660E-02 -3.2585101117248E-02
     8  7.0000000000000E-02  7.9546653991580E-02 -4.4158265721018E-02
     9  8.0000000000000E-02  1.0349209003748E-01 -5.7377939735350E-02
    10  9.0000000000000E-02  1.3039735287876E-01 -7.2181342848804E-02
    11  1.0000000000000E-01  1.6017291171798E-01 -8.8494137338515E-02
    12  1.1000000000000E-01  1.9271763594615E-01 -1.0622955508474E-01
    13  1.2000000000000E-01  2.2791860345959E-01 -1.2528759384480E-01
    14  1.3000000000000E-01  2.6565096580389E-01 -1.4555432727654E-01
    15  1.4000000000000E-01  3.0577788717351E-01 -1.6690137181540E-01
    16  1.5000000000000E-01  3.4815057336329E-01 -1.8918555075288E-01
    17  1.6000000000000E-01  3.9260840533804E-01 -2.1224879179478E-01
    18  1.7000000000000E-01  4.3897919019106E-01 -2.3591828909236E-01
    19  1.8000000000000E-01  4.8707953994655E-01 -2.6000695436880E-01
    20  1.9000000000000E-01  5.3671538598027E-01 -2.8431417446994E-01
    21  2.0000000000000E-01  5.8768263385445E-01 -3.0862688464297E-01
    22  2.1000000000000E-01  6.3976796016179E-01 -3.3272095830171E-01
    23  2.2000000000000E-01  6.9274974963070E-01 -3.5636290520428E-01
    24  2.3000000000000E-01  7.4639916734726E-01 -3.7931186108920E-01
    25  2.4000000000000E-01  8.0048135758593E-01 -4.0132184313643E-01
    26  2.5000000000000E-01  8.5475675750163E-01 -4.2214423738695E-01
    27  2.6000000000000E-01  9.0898251090550E-01 -4.4153047670393E-01
    28  2.7000000000000E-01  9.6291396460910E-01 -4.5923486121516E-01
    29  2.8000000000000E-01  1.0163062274522E+00 -4.7501746764029E-01
    30  2.9000000000000E-01  1.0689157701947E+00 -4.8864708965534E-01
    31  3.0000000000000E-01  1.1205020430106E+00 -4.9990414862293E-01
    32  3.1000000000000E-01  1.1708290864145E+00 -5.0858351273052E-01
    33  3.2000000000000E-01  1.2196671111145E+00 -5.1449716289723E-01
    34  3.3000000000000E-01  1.2667940225265E+00 -5.1747664576226E-01
    35  3.4000000000000E-01  1.3119968665201E+00 -5.1737525763621E-01
    36  3.5000000000000E-01  1.3550731743674E+00 -5.1406990842365E-01
    37  3.6000000000000E-01  1.3958321868158E+00 -5.0746262110669E-01
    38  3.7000000000000E-01  1.4340959396558E+00 -4.9748163027355E-01
    39  3.8000000000000E-01  1.4697001960470E+00 -4.8408205220092E-01
    40  3.9000000000000E-01  1.5024952141427E+00 -4.6724610894132E-01
    41  4.0000000000000E-01  1.5323463421132E+00 -4.4698289948100E-01
    42  4.1000000000000E-01  1.5591344364521E+00 -4.2332772205579E-01
    43  4.2000000000000E-01  1.5827561033355E+00 -3.9634096285760E-01
    44  4.3000000000000E-01  1.6031237667098E+00 -3.6610657734168E-01
    45  4.4000000000000E-01  1.6201655706035E+00 -3.3273020085971E-01
    46  4.5000000000000E-01  1.6338251267877E+00 -2.9633693510858E-01
    47  4.6000000000000E-01  1.6440611222607E+00 -2.5706886562476E-01
    48  4.7000000000000E-01  1.6508468040061E+00 -2.1508237301541E-01
    49  4.8000000000000E-01  1.6541693609923E+00 -1.7054530657374E-01
    50  4.9000000000000E-01  1.6540292253727E+00 -1.2363409318773E-01
    51  5.0000000000000E-01  1.6504393162506E+00 -7.4530856864839E-02
    52  5.1000000000000E-01  1.6434242501465E+00 -2.3420624656351E-02
    53  5.2000000000000E-01  1.6330195424220E+00  2.9511306784465E-02
    54  5.3000000000000E-01  1.6192708233559E+00  8.4081773343150E-02
    55  5.4000000000000E-01  1.6022330913524E+00  1.4011184915335E-01
    56  5.5000000000000E-01  1.5819700238950E+00  1.9742859815272E-01
    57  5.6000000000000E-01  1.5585533644034E+00  2.5586642289363E-01
    58  5.7000000000000E-01  1.5320624001420E+00  3.1526797266956E-01
    59  5.8000000000000E-01  1.5025835428605E+00  3.7548458495101E-01
    60  5.9000000000000E-01  1.4702100199849E+00  4.3637624705496E-01
    61  6.0000000000000E-01  1.4350416800419E+00  4.9781107858500E-01
    62  6.1000000000000E-01  1.3971849116799E+00  5.5966434913402E-01
    63  6.2000000000000E-01  1.3567526712724E+00  6.2181705968091E-01
    64  6.3000000000000E-01  1.3138646097702E+00  6.8415412966881E-01
    65  6.4000000000000E-01  1.2686472853246E+00  7.4656224456108E-01
    66  6.5000000000000E-01  1.2212344443597E+00  8.0892743037517E-01
    67  6.6000000000000E-01  1.1717673503294E+00  8.7113243195722E-01
    68  6.7000000000000E-01  1.1203951364741E+00  9.3305398027395E-01
    69  6.8000000000000E-01  1.0672751565707E+00  9.9456004049120E-01
    70  6.9000000000000E-01  1.0125733060381E+00  1.0555071368530E+00
    71  7.0000000000000E-01  9.5646428488086E-01  1.1157378521969E+00
    72  7.1000000000000E-01  8.9913177386671E-01  1.1750785992219E+00
    73  7.2000000000000E-01  8.4076849607349E-01  1.2333377573051E+00
    74  7.3000000000000E-01  7.8157613750624E-01  1.2903042627567E+00
    75  7.4000000000000E-01  7.2176510286401E-01  1.3457467319730E+00
    76  7.5000000000000E-01  6.6155408569043E-01  1.3994131861430E+00
    77  7.6000000000000E-01  6.0116943601328E-01  1.4510314331791E+00
    78  7.7000000000000E-01  5.4084431308946E-01  1.5003101476454E+00
    79  7.8000000000000E-01  4.8081761592587E-01  1.5469406729579E+00
    80  7.9000000000000E-01  4.2133268973201E-01  1.5905995524041E+00
    81  8.0000000000000E-01  3.6263581224878E-01  1.6309517769666E+00
    82  8.1000000000000E-01  3.0497446985448E-01  1.6676547189864E+00
    83  8.2000000000000E-01  2.4859543932633E-01  1.7003627018142E+00
    84  8.3000000000000E-01  1.9374269698591E-01  1.7287321372415E+00
    85  8.4000000000000E-01  1.4065518252917E-01  1.7524271451460E+00
    86  8.5000000000000E-01  8.9564449988454E-02  1.7711255538761E+00
    87  8.6000000000000E-01  4.0692242856698E-02  1.7845251658694E+00
    88  8.7000000000000E-01 -5.7519657089334E-03  1.7923501612412E+00
    89  8.8000000000000E-01 -4.9573423609707E-02  1.7943575029408E+00
    90  8.9000000000000E-01 -9.0594495292275E-02  1.7903432008424E+00
    91  9.0000000000000E-01 -1.2865695465894E-01  1.7801482890543E+00
    92  9.1000000000000E-01 -1.6362412792554E-01  1.7636643709348E+00
    93  9.2000000000000E-01 -1.9538283989490E-01  1.7408385898973E+00
    94  9.3000000000000E-01 -2.2384511914182E-01  1.7116778910617E+00
    95  9.4000000000000E-01 -2.4894962070051E-01  1.6762524490855E+00
    96  9.5000000000000E-01 -2.7066272896122E-01  1.6346981509363E+00
    97  9.6000000000000E-01 -2.8897930855124E-01  1.5872180387044E+00
    98  9.7000000000000E-01 -3.0392307689843E-01  1.5340826364793E+00
    99  9.8000000000000E-01 -3.1554657884160E-01  1.4756291064718E+00
   100  9.9000000000000E-01 -3.2393075091907E-01  1.4122592024859E+00
   101  1.0000000000000E+00 -3.2918407068495E-01  1.3444360130623E+00
   102  1.0100000000000E+00 -3.3144129439863E-01  1.2726795115727E+00
   103  1.0200000000000E+00 -3.3086179454080E-01  1.1975609557257E+00
   104  1.0300000000000E+00 -3.2762751663334E-01  1.1196962037239E+00
   105  1.0400000000000E+00 -3.2194058259881E-01  1.0397380381356E+00
   106  1.0500000000000E+00 -3.1402057522040E-01  9.5836761088398E-01
   107  1.0600000000000E+00 -3.0410154495872E-01  8.7628514300044E-01
   108  1.0700000000000E+00 -2.9242878630008E-01  7.9420003049820E-01
   109  1.0800000000000E+00 -2.7925543580857E-01  7.1282052244178E-01
   110  1.0900000000000E+00 -2.6483894798398E-01  6.3284314858644E-01
   111  1.1000000000000E+00 -2.4943750781168E-01  5.5494208159790E-01
   112  1.1100000000000E+00 -2.3330644042513E-01  4.7975862253700E-01
   113  1.1200000000000E+00 -2.1669467855359E-01  4.0789099791358E-01
   114  1.1300000000000E+00 -1.9984134736071E-01  3.3988465208782E-01
   115  1.1400000000000E+00 -1.8297252391504E-01  2.7622321020747E-01
   116  1.1500000000000E+00 -1.6629822489260E-01  2.1732027430052E-01
   117  1.1600000000000E+00 -1.5000967128242E-01  1.6351219889178E-01
   118  1.1700000000000E+00 -1.3427687292370E-01  1.1505197282489E-01
   119  1.1800000000000E+00 -1.1924656877361E-01  7.2104311246079E-02
   120  1.1900000000000E+00 -1.0504055038018E-01  3.4742033185178E-02
   121  1.2000000000000E+00 -9.1754395122616E-02  2.9438103180872E-03
   122  1.2100000000000E+00 -7.9456709123092E-02 -2.3406234070344E-02
   123  1.2200000000000E+00 -6.8190631960638E-02 -4.4508411539188E-02
   124  1.2300000000000E+00 -5.7976740262139E-02 -6.0632182532725E-02
   125  1.2400000000000E+00 -4.8814654629886E-02 -7.2109053218112E-02
   126  1.2500000000000E+00 -4.0684754194000E-02 -7.9325750219655E-02
   127  1.2600000000000E+00 -3.3550242825426E-02 -8.2716313855990E-02
   128  1.2700000000000E+00 -2.7359522298835E-02 -8.2753259192955E-02
   129  1.2800000000000E+00 -2.2048822270738E-02 -7.9937969891233E-02
   130  1.2900000000000E+00 -1.7545030961477E-02 -7.4790509248103E-02
   131  1.3000000000000E+00 -1.3768666138489E-02 -6.7839045811706E-02
   132  1.3100000000000E+00 -1.0636918989793E-02 -5.9609108408371E-02
   133  1.3200000000000E+00 -8.0667430202968E-03 -5.0612805995073E-02
   134  1.3300000000000E+00 -5.9777625673886E-03 -4.1338551532995E-02
   135  1.3400000000000E+00 -4.2990158487687E-03 -3.2233076070628E-02
   136  1.3500000000000E+00 -2.9730006440410E-03 -2.3688773206902E-02
   137  1.3600000000000E+00 -1.9391946309347E-03 -1.6074667960399E-02
   138  1.3700000000000E+00 -1.1498958566195E-03 -9.7014380427718E-03
   139  1.3800000000000E+00 -5.7278944777961E-04 -4.8145633660990E-03
   140  1.3900000000000E+00 -1.9131247670084E-04 -1.5759837718003E-03
   141  1.4000000000000E+00 -1.5809070106555E-05 -1.3975615528909E-04