Os    ONCVPSP-4.0.1  r_core=   1.50588   1.55160   1.55160   2.26180
     76.0000     16.0000      250925    zatom,zion,pspd
     8   -1012   3     4   600     0    pspcod,pspxc,lmax,lloc,mmax,r2well
  5.99000000  5.00000000  0.00000000    rchrg fchrg qchrg
     2     3     2     3    nproj
     3     1           extension_switch
     4     4     4    nprojso
   0                         8.0937698263095E+00 -1.0976260133820E+00
     1  0.0000000000000E+00 -8.0012435565990E-10 -8.8117676488864E-09
     2  1.0000000000000E-02  6.0442945827820E-02 -3.3931203917550E-02
     3  2.0000000000000E-02  1.2076751860181E-01 -6.7984146450714E-02
     4  3.0000000000000E-02  1.8085602600753E-01 -1.0227513764879E-01
     5  4.0000000000000E-02  2.4059212649184E-01 -1.3690974741454E-01
     6  5.0000000000000E-02  2.9986147806008E-01 -1.7197772558333E-01
     7  6.0000000000000E-02  3.5855235575760E-01 -2.0754826375384E-01
     8  7.0000000000000E-02  4.1655622835852E-01 -2.4366570220117E-01
     9  8.0000000000000E-02  4.7376828558535E-01 -2.8034577639131E-01
    10  9.0000000000000E-02  5.3008790815281E-01 -3.1757248692349E-01
    11  1.0000000000000E-01  5.8541907405134E-01 -3.5529566435928E-01
    12  1.1000000000000E-01  6.3967069573661E-01 -3.9342928659304E-01
    13  1.2000000000000E-01  6.9275688424690E-01 -4.3185059144315E-01
    14  1.3000000000000E-01  7.4459713770421E-01 -4.7040001128740E-01
    15  1.4000000000000E-01  7.9511645313852E-01 -5.0888194013443E-01
    16  1.5000000000000E-01  8.4424536207893E-01 -5.4706632683579E-01
    17  1.6000000000000E-01  8.9191989185021E-01 -5.8469107152258E-01
    18  1.7000000000000E-01  9.3808145596977E-01 -6.2146518612191E-01
    19  1.8000000000000E-01  9.8267667842812E-01 -6.5707266428630E-01
    20  1.9000000000000E-01  1.0256571579283E+00 -6.9117699156001E-01
    21  2.0000000000000E-01  1.0669791793312E+00 -7.2342621339392E-01
    22  2.1000000000000E-01  1.1066033805778E+00 -7.5345846696712E-01
    23  2.2000000000000E-01  1.1444943842205E+00 -7.8090787291240E-01
    24  2.3000000000000E-01  1.1806204033666E+00 -8.0541067517106E-01
    25  2.4000000000000E-01  1.2149528323170E+00 -8.2661151148297E-01
    26  2.5000000000000E-01  1.2474658324472E+00 -8.4416969357118E-01
    27  2.6000000000000E-01  1.2781359239280E+00 -8.5776537498282E-01
    28  2.7000000000000E-01  1.3069415937192E+00 -8.6710548583247E-01
    29  2.8000000000000E-01  1.3338629298845E+00 -8.7192931734913E-01
    30  2.9000000000000E-01  1.3588812916831E+00 -8.7201364509085E-01
    31  3.0000000000000E-01  1.3819790241024E+00 -8.6717728786271E-01
    32  3.1000000000000E-01  1.4031392245183E+00 -8.5728500960358E-01
    33  3.2000000000000E-01  1.4223455680260E+00 -8.4225068360976E-01
    34  3.3000000000000E-01  1.4395821966956E+00 -8.2203965221557E-01
    35  3.4000000000000E-01  1.4548336765926E+00 -7.9667023019242E-01
    36  3.5000000000000E-01  1.4680850249065E+00 -7.6621431637464E-01
    37  3.6000000000000E-01  1.4793218079528E+00 -7.3079709506503E-01
    38  3.7000000000000E-01  1.4885303092207E+00 -6.9059582628541E-01
    39  3.8000000000000E-01  1.4956977650241E+00 -6.4583774158522E-01
    40  3.9000000000000E-01  1.5008126637478E+00 -5.9679707955790E-01
    41  4.0000000000000E-01  1.5038651031587E+00 -5.4379131210231E-01
    42  4.1000000000000E-01  1.5048471988369E+00 -4.8717662847279E-01
    43  4.2000000000000E-01  1.5037535354770E+00 -4.2734275896619E-01
    44  4.3000000000000E-01  1.5005816516632E+00 -3.6470723340402E-01
    45  4.4000000000000E-01  1.4953325477409E+00 -2.9970918111008E-01
    46  4.5000000000000E-01  1.4880112056292E+00 -2.3280278861974E-01
    47  4.6000000000000E-01  1.4786271088490E+00 -1.6445053868841E-01
    48  4.7000000000000E-01  1.4671947506989E+00 -9.5116359127938E-02
    49  4.8000000000000E-01  1.4537341184109E+00 -2.5258812479555E-02
    50  4.9000000000000E-01  1.4382711412553E+00  4.4675542542044E-02
    51  5.0000000000000E-01  1.4208380909459E+00  1.1425848954661E-01
    52  5.1000000000000E-01  1.4014739233214E+00  1.8308606981131E-01
    53  5.2000000000000E-01  1.3802245511311E+00  2.5078395903036E-01
    54  5.3000000000000E-01  1.3571430388222E+00  3.1701220002830E-01
    55  5.4000000000000E-01  1.3322897115006E+00  3.8146919815512E-01
    56  5.5000000000000E-01  1.3057321716836E+00  4.4389490019299E-01
    57  5.6000000000000E-01  1.2775452190672E+00  5.0407309340701E-01
    58  5.7000000000000E-01  1.2478106702584E+00  5.6183277857513E-01
    59  5.8000000000000E-01  1.2166170772419E+00  6.1704858911557E-01
    60  5.9000000000000E-01  1.1840593452317E+00  6.6964024744390E-01
    61  6.0000000000000E-01  1.1502382524622E+00  7.1957106907488E-01
    62  6.1000000000000E-01  1.1152598763650E+00  7.6684554436174E-01
    63  6.2000000000000E-01  1.0792349324216E+00  8.1150604675601E-01
    64  6.3000000000000E-01  1.0422780337445E+00  8.5362873470214E-01
    65  6.4000000000000E-01  1.0045068810735E+00  8.9331873138524E-01
    66  6.5000000000000E-01  9.6604139437047E-01  9.3070468218059E-01
    67  6.6000000000000E-01  9.2700279849250E-01  9.6593280348595E-01
    68  6.7000000000000E-01  8.8751267652476E-01  9.9916054836268E-01
    69  6.8000000000000E-01  8.4769200520928E-01  1.0305500238082E+00
    70  6.9000000000000E-01  8.0766018751364E-01  1.0602613013227E+00
    71  7.0000000000000E-01  7.6753409771782E-01  1.0884457665459E+00
    72  7.1000000000000E-01  7.2742715445240E-01  1.1152396550126E+00
    73  7.2000000000000E-01  6.8744843689020E-01  1.1407579194403E+00
    74  7.3000000000000E-01  6.4770185877671E-01  1.1650885694170E+00
    75  7.4000000000000E-01  6.0828541418722E-01  1.1882876169443E+00
    76  7.5000000000000E-01  5.6929050783193E-01  1.2103747511155E+00
    77  7.6000000000000E-01  5.3080138140904E-01  1.2313298524312E+00
    78  7.7000000000000E-01  4.9289464595295E-01  1.2510904420833E+00
    79  7.8000000000000E-01  4.5563892836334E-01  1.2695501442271E+00
    80  7.9000000000000E-01  4.1909463836321E-01  1.2865582201251E+00
    81  8.0000000000000E-01  3.8331386005187E-01  1.3019202124128E+00
    82  8.1000000000000E-01  3.4834037003008E-01  1.3153997159962E+00
    83  8.2000000000000E-01  3.1420978181772E-01  1.3267212696306E+00
    84  8.3000000000000E-01  2.8094981400118E-01  1.3355743394865E+00
    85  8.4000000000000E-01  2.4858067727951E-01  1.3416183434009E+00
    86  8.5000000000000E-01  2.1711557336813E-01  1.3444886424869E+00
    87  8.6000000000000E-01  1.8656129660888E-01  1.3438034057577E+00
    88  8.7000000000000E-01  1.5691892716432E-01  1.3391712338304E+00
    89  8.8000000000000E-01  1.2818460288381E-01  1.3301994100154E+00
    90  8.9000000000000E-01  1.0035035535148E-01  1.3165026315249E+00
    91  9.0000000000000E-01  7.3404994297027E-02  1.2977120604969E+00
    92  9.1000000000000E-01  4.7335023494906E-02  1.2734845243017E+00
    93  9.2000000000000E-01  2.2125570521178E-02  1.2435116874341E+00
    94  9.3000000000000E-01 -2.2386877033216E-03  1.2075290133672E+00
    95  9.4000000000000E-01 -2.5772621766282E-02  1.1653243341939E+00
    96  9.5000000000000E-01 -4.8489786972634E-02  1.1167458487687E+00
    97  9.6000000000000E-01 -7.0401618308174E-02  1.0617093763898E+00
    98  9.7000000000000E-01 -9.1516699667760E-02  1.0002047027764E+00
    99  9.8000000000000E-01 -1.1184012265072E-01  9.3230086805563E-01
   100  9.9000000000000E-01 -1.3137294871796E-01  8.5815026251346E-01
   101  1.0000000000000E+00 -1.5011178672159E-01  7.7799141471853E-01
   102  1.0100000000000E+00 -1.6804849578698E-01  6.9215037799887E-01
   103  1.0200000000000E+00 -1.8517002128352E-01  6.0104064478104E-01
   104  1.0300000000000E+00 -2.0145836920061E-01  5.0516154360952E-01
   105  1.0400000000000E+00 -2.1689072169532E-01  4.0509510027563E-01
   106  1.0500000000000E+00 -2.3143969393993E-01  3.0150137195538E-01
   107  1.0600000000000E+00 -2.4507372971671E-01  1.9511229111990E-01
   108  1.0700000000000E+00 -2.5775763053975E-01  8.6724083647585E-02
   109  1.0800000000000E+00 -2.6945321046839E-01 -2.2811647354017E-02
   110  1.0900000000000E+00 -2.8012006626978E-01 -1.3259805462250E-01
   111  1.1000000000000E+00 -2.8971645023580E-01 -2.4170425507679E-01
   112  1.1100000000000E+00 -2.9820023079904E-01 -3.4917744960115E-01
   113  1.1200000000000E+00 -3.0552992418138E-01 -4.5405577091103E-01
   114  1.1300000000000E+00 -3.1166577866360E-01 -5.5538165941257E-01
   115  1.1400000000000E+00 -3.1657089174201E-01 -6.5221555363438E-01
   116  1.1500000000000E+00 -3.2021233944450E-01 -7.4364967195010E-01
   117  1.1600000000000E+00 -3.2256229645351E-01 -8.2882165631783E-01
   118  1.1700000000000E+00 -3.2359912543160E-01 -9.0692784669305E-01
   119  1.1800000000000E+00 -3.2330841407987E-01 -9.7723595675233E-01
   120  1.1900000000000E+00 -3.2168393898620E-01 -1.0390969276518E+00
   121  1.2000000000000E+00 -3.1872853622549E-01 -1.0919557465995E+00
   122  1.2100000000000E+00 -3.1445485995582E-01 -1.1353610310023E+00
   123  1.2200000000000E+00 -3.0888601189154E-01 -1.1689731966539E+00
   124  1.2300000000000E+00 -3.0205602648915E-01 -1.1925710494375E+00
   125  1.2400000000000E+00 -2.9401019895411E-01 -1.2060566643421E+00
   126  1.2500000000000E+00 -2.8480524568836E-01 -1.2094584423956E+00
   127  1.2600000000000E+00 -2.7450928954093E-01 -1.2029322653229E+00
   128  1.2700000000000E+00 -2.6320166514351E-01 -1.1867606987662E+00
   129  1.2800000000000E+00 -2.5097254263789E-01 -1.1613502270116E+00
   130  1.2900000000000E+00 -2.3792237121605E-01 -1.1272265351718E+00
   131  1.3000000000000E+00 -2.2416114701825E-01 -1.0850278878661E+00
   132  1.3100000000000E+00 -2.0980751301380E-01 -1.0354966860073E+00
   133  1.3200000000000E+00 -1.9498770148412E-01 -9.7946931497721E-01
   134  1.3300000000000E+00 -1.7983433257820E-01 -9.1786442756982E-01
   135  1.3400000000000E+00 -1.6448508505791E-01 -8.5166983303529E-01
   136  1.3500000000000E+00 -1.4908125774953E-01 -7.8192818885714E-01
   137  1.3600000000000E+00 -1.3376624234491E-01 -7.0972171431802E-01
   138  1.3700000000000E+00 -1.1868392997533E-01 -6.3615616364997E-01
   139  1.3800000000000E+00 -1.0397707541036E-01 -5.6234431160269E-01
   140  1.3900000000000E+00 -8.9785643768919E-02 -4.8938921513189E-01
   141  1.4000000000000E+00 -7.6245165260939E-02 -4.1836752151120E-01
   142  1.4100000000000E+00 -6.3485123636101E-02 -3.5031309453887E-01
   143  1.4200000000000E+00 -5.1627399895999E-02 -2.8620118198169E-01
   144  1.4300000000000E+00 -4.0784799010127E-02 -2.2693326526029E-01
   145  1.4400000000000E+00 -3.1056390458956E-02 -1.7327322442409E-01
   146  1.4500000000000E+00 -2.2530090026391E-02 -1.2589720246822E-01
   147  1.4600000000000E+00 -1.5286694380179E-02 -8.5456433215131E-02
   148  1.4700000000000E+00 -9.3929103592863E-03 -5.2470862421992E-02
   149  1.4800000000000E+00 -4.9012081362925E-03 -2.7328647915057E-02
   150  1.4900000000000E+00 -1.8424255769760E-03 -1.0242870377113E-02
   151  1.5000000000000E+00 -2.7372457221983E-04 -1.5153645659629E-03
   152  1.5100000000000E+00  2.8493173636936E-05  1.5726833235420E-04
   153  1.5200000000000E+00 -8.3417582635612E-06 -4.6130685331466E-05
   154  1.53  0.  0.
   155  1.54  0.  0.
   156  1.55  0.  0.
   157  1.56  0.  0.
   158  1.57  0.  0.
   159  1.58  0.  0.
   160  1.59  0.  0.
   161  1.60  0.  0.
   162  1.61  0.  0.
   163  1.62  0.  0.
   164  1.63  0.  0.
   165  1.64  0.  0.
   166  1.65  0.  0.
   167  1.66  0.  0.
   168  1.67  0.  0.
   169  1.68  0.  0.
   170  1.69  0.  0.
   171  1.70  0.  0.
   172  1.71  0.  0.
   173  1.72  0.  0.
   174  1.73  0.  0.
   175  1.74  0.  0.
   176  1.75  0.  0.
   177  1.76  0.  0.
   178  1.77  0.  0.
   179  1.78  0.  0.
   180  1.79  0.  0.
   181  1.80  0.  0.
   182  1.81  0.  0.
   183  1.82  0.  0.
   184  1.83  0.  0.
   185  1.84  0.  0.
   186  1.85  0.  0.
   187  1.86  0.  0.
   188  1.87  0.  0.
   189  1.88  0.  0.
   190  1.89  0.  0.
   191  1.90  0.  0.
   192  1.91  0.  0.
   193  1.92  0.  0.
   194  1.93  0.  0.
   195  1.94  0.  0.
   196  1.95  0.  0.
   197  1.96  0.  0.
   198  1.97  0.  0.
   199  1.98  0.  0.
   200  1.99  0.  0.
   201  2.00  0.  0.
   202  2.01  0.  0.
   203  2.02  0.  0.
   204  2.03  0.  0.
   205  2.04  0.  0.
   206  2.05  0.  0.
   207  2.06  0.  0.
   208  2.07  0.  0.
   209  2.08  0.  0.
   210  2.09  0.  0.
   211  2.10  0.  0.
   212  2.11  0.  0.
   213  2.12  0.  0.
   214  2.13  0.  0.
   215  2.14  0.  0.
   216  2.15  0.  0.
   217  2.16  0.  0.
   218  2.17  0.  0.
   219  2.18  0.  0.
   220  2.19  0.  0.
   221  2.20  0.  0.
   222  2.21  0.  0.
   223  2.22  0.  0.
   224  2.23  0.  0.
   225  2.24  0.  0.
   226  2.25  0.  0.
   227  2.26  0.  0.
   228  2.27  0.  0.
   229  2.28  0.  0.
   230  2.29  0.  0.
   231  2.30  0.  0.
   232  2.31  0.  0.
   233  2.32  0.  0.
   234  2.33  0.  0.
   235  2.34  0.  0.
   236  2.35  0.  0.
   237  2.36  0.  0.
   238  2.37  0.  0.
   239  2.38  0.  0.
   240  2.39  0.  0.
   241  2.40  0.  0.
   242  2.41  0.  0.
   243  2.42  0.  0.
   244  2.43  0.  0.
   245  2.44  0.  0.
   246  2.45  0.  0.
   247  2.46  0.  0.
   248  2.47  0.  0.
   249  2.48  0.  0.
   250  2.49  0.  0.
   251  2.50  0.  0.
   252  2.51  0.  0.
   253  2.52  0.  0.
   254  2.53  0.  0.
   255  2.54  0.  0.
   256  2.55  0.  0.
   257  2.56  0.  0.
   258  2.57  0.  0.
   259  2.58  0.  0.
   260  2.59  0.  0.
   261  2.60  0.  0.
   262  2.61  0.  0.
   263  2.62  0.  0.
   264  2.63  0.  0.
   265  2.64  0.  0.
   266  2.65  0.  0.
   267  2.66  0.  0.
   268  2.67  0.  0.
   269  2.68  0.  0.
   270  2.69  0.  0.
   271  2.70  0.  0.
   272  2.71  0.  0.
   273  2.72  0.  0.
   274  2.73  0.  0.
   275  2.74  0.  0.
   276  2.75  0.  0.
   277  2.76  0.  0.
   278  2.77  0.  0.
   279  2.78  0.  0.
   280  2.79  0.  0.
   281  2.80  0.  0.
   282  2.81  0.  0.
   283  2.82  0.  0.
   284  2.83  0.  0.
   285  2.84  0.  0.
   286  2.85  0.  0.
   287  2.86  0.  0.
   288  2.87  0.  0.
   289  2.88  0.  0.
   290  2.89  0.  0.
   291  2.90  0.  0.
   292  2.91  0.  0.
   293  2.92  0.  0.
   294  2.93  0.  0.
   295  2.94  0.  0.
   296  2.95  0.  0.
   297  2.96  0.  0.
   298  2.97  0.  0.
   299  2.98  0.  0.
   300  2.99  0.  0.
   301  3.00  0.  0.
   302  3.01  0.  0.
   303  3.02  0.  0.
   304  3.03  0.  0.
   305  3.04  0.  0.
   306  3.05  0.  0.
   307  3.06  0.  0.
   308  3.07  0.  0.
   309  3.08  0.  0.
   310  3.09  0.  0.
   311  3.10  0.  0.
   312  3.11  0.  0.
   313  3.12  0.  0.
   314  3.13  0.  0.
   315  3.14  0.  0.
   316  3.15  0.  0.
   317  3.16  0.  0.
   318  3.17  0.  0.
   319  3.18  0.  0.
   320  3.19  0.  0.
   321  3.20  0.  0.
   322  3.21  0.  0.
   323  3.22  0.  0.
   324  3.23  0.  0.
   325  3.24  0.  0.
   326  3.25  0.  0.
   327  3.26  0.  0.
   328  3.27  0.  0.
   329  3.28  0.  0.
   330  3.29  0.  0.
   331  3.30  0.  0.
   332  3.31  0.  0.
   333  3.32  0.  0.
   334  3.33  0.  0.
   335  3.34  0.  0.
   336  3.35  0.  0.
   337  3.36  0.  0.
   338  3.37  0.  0.
   339  3.38  0.  0.
   340  3.39  0.  0.
   341  3.40  0.  0.
   342  3.41  0.  0.
   343  3.42  0.  0.
   344  3.43  0.  0.
   345  3.44  0.  0.
   346  3.45  0.  0.
   347  3.46  0.  0.
   348  3.47  0.  0.
   349  3.48  0.  0.
   350  3.49  0.  0.
   351  3.50  0.  0.
   352  3.51  0.  0.
   353  3.52  0.  0.
   354  3.53  0.  0.
   355  3.54  0.  0.
   356  3.55  0.  0.
   357  3.56  0.  0.
   358  3.57  0.  0.
   359  3.58  0.  0.
   360  3.59  0.  0.
   361  3.60  0.  0.
   362  3.61  0.  0.
   363  3.62  0.  0.
   364  3.63  0.  0.
   365  3.64  0.  0.
   366  3.65  0.  0.
   367  3.66  0.  0.
   368  3.67  0.  0.
   369  3.68  0.  0.
   370  3.69  0.  0.
   371  3.70  0.  0.
   372  3.71  0.  0.
   373  3.72  0.  0.
   374  3.73  0.  0.
   375  3.74  0.  0.
   376  3.75  0.  0.
   377  3.76  0.  0.
   378  3.77  0.  0.
   379  3.78  0.  0.
   380  3.79  0.  0.
   381  3.80  0.  0.
   382  3.81  0.  0.
   383  3.82  0.  0.
   384  3.83  0.  0.
   385  3.84  0.  0.
   386  3.85  0.  0.
   387  3.86  0.  0.
   388  3.87  0.  0.
   389  3.88  0.  0.
   390  3.89  0.  0.
   391  3.90  0.  0.
   392  3.91  0.  0.
   393  3.92  0.  0.
   394  3.93  0.  0.
   395  3.94  0.  0.
   396  3.95  0.  0.
   397  3.96  0.  0.
   398  3.97  0.  0.
   399  3.98  0.  0.
   400  3.99  0.  0.
   401  4.00  0.  0.
   402  4.01  0.  0.
   403  4.02  0.  0.
   404  4.03  0.  0.
   405  4.04  0.  0.
   406  4.05  0.  0.
   407  4.06  0.  0.
   408  4.07  0.  0.
   409  4.08  0.  0.
   410  4.09  0.  0.
   411  4.10  0.  0.
   412  4.11  0.  0.
   413  4.12  0.  0.
   414  4.13  0.  0.
   415  4.14  0.  0.
   416  4.15  0.  0.
   417  4.16  0.  0.
   418  4.17  0.  0.
   419  4.18  0.  0.
   420  4.19  0.  0.
   421  4.20  0.  0.
   422  4.21  0.  0.
   423  4.22  0.  0.
   424  4.23  0.  0.
   425  4.24  0.  0.
   426  4.25  0.  0.
   427  4.26  0.  0.
   428  4.27  0.  0.
   429  4.28  0.  0.
   430  4.29  0.  0.
   431  4.30  0.  0.
   432  4.31  0.  0.
   433  4.32  0.  0.
   434  4.33  0.  0.
   435  4.34  0.  0.
   436  4.35  0.  0.
   437  4.36  0.  0.
   438  4.37  0.  0.
   439  4.38  0.  0.
   440  4.39  0.  0.
   441  4.40  0.  0.
   442  4.41  0.  0.
   443  4.42  0.  0.
   444  4.43  0.  0.
   445  4.44  0.  0.
   446  4.45  0.  0.
   447  4.46  0.  0.
   448  4.47  0.  0.
   449  4.48  0.  0.
   450  4.49  0.  0.
   451  4.50  0.  0.
   452  4.51  0.  0.
   453  4.52  0.  0.
   454  4.53  0.  0.
   455  4.54  0.  0.
   456  4.55  0.  0.
   457  4.56  0.  0.
   458  4.57  0.  0.
   459  4.58  0.  0.
   460  4.59  0.  0.
   461  4.60  0.  0.
   462  4.61  0.  0.
   463  4.62  0.  0.
   464  4.63  0.  0.
   465  4.64  0.  0.
   466  4.65  0.  0.
   467  4.66  0.  0.
   468  4.67  0.  0.
   469  4.68  0.  0.
   470  4.69  0.  0.
   471  4.70  0.  0.
   472  4.71  0.  0.
   473  4.72  0.  0.
   474  4.73  0.  0.
   475  4.74  0.  0.
   476  4.75  0.  0.
   477  4.76  0.  0.
   478  4.77  0.  0.
   479  4.78  0.  0.
   480  4.79  0.  0.
   481  4.80  0.  0.
   482  4.81  0.  0.
   483  4.82  0.  0.
   484  4.83  0.  0.
   485  4.84  0.  0.
   486  4.85  0.  0.
   487  4.86  0.  0.
   488  4.87  0.  0.
   489  4.88  0.  0.
   490  4.89  0.  0.
   491  4.90  0.  0.
   492  4.91  0.  0.
   493  4.92  0.  0.
   494  4.93  0.  0.
   495  4.94  0.  0.
   496  4.95  0.  0.
   497  4.96  0.  0.
   498  4.97  0.  0.
   499  4.98  0.  0.
   500  4.99  0.  0.
   501  5.00  0.  0.
   502  5.01  0.  0.
   503  5.02  0.  0.
   504  5.03  0.  0.
   505  5.04  0.  0.
   506  5.05  0.  0.
   507  5.06  0.  0.
   508  5.07  0.  0.
   509  5.08  0.  0.
   510  5.09  0.  0.
   511  5.10  0.  0.
   512  5.11  0.  0.
   513  5.12  0.  0.
   514  5.13  0.  0.
   515  5.14  0.  0.
   516  5.15  0.  0.
   517  5.16  0.  0.
   518  5.17  0.  0.
   519  5.18  0.  0.
   520  5.19  0.  0.
   521  5.20  0.  0.
   522  5.21  0.  0.
   523  5.22  0.  0.
   524  5.23  0.  0.
   525  5.24  0.  0.
   526  5.25  0.  0.
   527  5.26  0.  0.
   528  5.27  0.  0.
   529  5.28  0.  0.
   530  5.29  0.  0.
   531  5.30  0.  0.
   532  5.31  0.  0.
   533  5.32  0.  0.
   534  5.33  0.  0.
   535  5.34  0.  0.
   536  5.35  0.  0.
   537  5.36  0.  0.
   538  5.37  0.  0.
   539  5.38  0.  0.
   540  5.39  0.  0.
   541  5.40  0.  0.
   542  5.41  0.  0.
   543  5.42  0.  0.
   544  5.43  0.  0.
   545  5.44  0.  0.
   546  5.45  0.  0.
   547  5.46  0.  0.
   548  5.47  0.  0.
   549  5.48  0.  0.
   550  5.49  0.  0.
   551  5.50  0.  0.
   552  5.51  0.  0.
   553  5.52  0.  0.
   554  5.53  0.  0.
   555  5.54  0.  0.
   556  5.55  0.  0.
   557  5.56  0.  0.
   558  5.57  0.  0.
   559  5.58  0.  0.
   560  5.59  0.  0.
   561  5.60  0.  0.
   562  5.61  0.  0.
   563  5.62  0.  0.
   564  5.63  0.  0.
   565  5.64  0.  0.
   566  5.65  0.  0.
   567  5.66  0.  0.
   568  5.67  0.  0.
   569  5.68  0.  0.
   570  5.69  0.  0.
   571  5.70  0.  0.
   572  5.71  0.  0.
   573  5.72  0.  0.
   574  5.73  0.  0.
   575  5.74  0.  0.
   576  5.75  0.  0.
   577  5.76  0.  0.
   578  5.77  0.  0.
   579  5.78  0.  0.
   580  5.79  0.  0.
   581  5.80  0.  0.
   582  5.81  0.  0.
   583  5.82  0.  0.
   584  5.83  0.  0.
   585  5.84  0.  0.
   586  5.85  0.  0.
   587  5.86  0.  0.
   588  5.87  0.  0.
   589  5.88  0.  0.
   590  5.89  0.  0.
   591  5.90  0.  0.
   592  5.91  0.  0.
   593  5.92  0.  0.
   594  5.93  0.  0.
   595  5.94  0.  0.
   596  5.95  0.  0.
   597  5.96  0.  0.
   598  5.97  0.  0.
   599  5.98  0.  0.
   600  5.99  0.  0.
   1                         5.7409687248345E+00  3.4212199667851E-01 -1.3420573739279E-01
     1  0.0000000000000E+00 -1.4514264373711E-09  4.9055757372907E-10 -2.4111910499475E-08
     2  1.0000000000000E-02  1.3913364889853E-03 -5.6173687665530E-04 -2.6493689370747E-06
     3  2.0000000000000E-02  5.5618241463940E-03 -2.2431551881657E-03  1.0396240042862E-05
     4  3.0000000000000E-02  1.2500874198103E-02 -5.0328867063873E-03  1.0149888026531E-04
     5  4.0000000000000E-02  2.2190761753900E-02 -8.9120138174520E-03  3.7254619291966E-04
     6  5.0000000000000E-02  3.4606513484346E-02 -1.3854114856685E-02  9.6192828279571E-04
     7  6.0000000000000E-02  4.9715756448966E-02 -1.9825329903719E-02  2.0404052996497E-03
     8  7.0000000000000E-02  6.7478533987070E-02 -2.6784449258472E-02  3.8059630569660E-03
     9  8.0000000000000E-02  8.7847096033960E-02 -3.4683027309172E-02  6.4777781317916E-03
    10  9.0000000000000E-02  1.1076567250527E-01 -4.3465524886957E-02  1.0289435349720E-02
    11  1.0000000000000E-01  1.3617023947063E-01 -5.3069483465775E-02  1.5481558876738E-02
    12  1.1000000000000E-01  1.6398828868837E-01 -6.3425734693482E-02  2.2294032917786E-02
    13  1.2000000000000E-01  1.9413861167456E-01 -7.4458648722069E-02  3.0957998920483E-02
    14  1.3000000000000E-01  2.2653110981607E-01 -8.6086424634587E-02  4.1687822952549E-02
    15  1.4000000000000E-01  2.6106664209850E-01 -9.8221425939757E-02  5.4673229402446E-02
    16  1.5000000000000E-01  2.9763692180202E-01 -1.1077056362885E-01  7.0071795263659E-02
    17  1.6000000000000E-01  3.3612447302138E-01 -1.2363572866312E-01  8.8001993037676E-02
    18  1.7000000000000E-01  3.7640265710142E-01 -1.3671427500146E-01  1.0853695982938E-01
    19  1.8000000000000E-01  4.1833577805648E-01 -1.4989955339652E-01  1.3169915572606E-01
    20  1.9000000000000E-01  4.6177927478364E-01 -1.6308149520319E-01  1.5745605633547E-01
    21  2.0000000000000E-01  5.0658000640836E-01 -1.7614724438126E-01  1.8571700277901E-01
    22  2.1000000000000E-01  5.5257663544700E-01 -1.8898183475281E-01  2.1633130794631E-01
    23  2.2000000000000E-01  5.9960011166731E-01 -2.0146890842753E-01  2.4908769092185E-01
    24  2.3000000000000E-01  6.4747425761216E-01 -2.1349147016149E-01  2.8371508276127E-01
    25  2.4000000000000E-01  6.9601645476364E-01 -2.2493267129743E-01  3.1988481683090E-01
    26  2.5000000000000E-01  7.4503842730537E-01 -2.3567661587858E-01  3.5721418636585E-01
    27  2.6000000000000E-01  7.9434711843331E-01 -2.4560918056277E-01  3.9527132140531E-01
    28  2.7000000000000E-01  8.4374565221294E-01 -2.5461883911739E-01  4.3358130748451E-01
    29  2.8000000000000E-01  8.9303437212423E-01 -2.6259748157864E-01  4.7163344004581E-01
    30  2.9000000000000E-01  9.4201194571727E-01 -2.6944121762997E-01  5.0888948210394E-01
    31  3.0000000000000E-01  9.9047652325733E-01 -2.7505115342205E-01  5.4479276883958E-01
    32  3.1000000000000E-01  1.0382269369044E+00 -2.7933413093254E-01  5.7877798204268E-01
    33  3.2000000000000E-01  1.0850639258782E+00 -2.8220341906447E-01  6.1028140014908E-01
    34  3.3000000000000E-01  1.1307913722318E+00 -2.8357934601525E-01  6.3875141641555E-01
    35  3.4000000000000E-01  1.1752175313165E+00 -2.8338986301607E-01  6.6365910887826E-01
    36  3.5000000000000E-01  1.2181562407795E+00 -2.8157103034475E-01  6.8450864136665E-01
    37  3.6000000000000E-01  1.2594280920069E+00 -2.7806741754262E-01  7.0084727514176E-01
    38  3.7000000000000E-01  1.2988615483048E+00 -2.7283241100845E-01  7.1227477573071E-01
    39  3.8000000000000E-01  1.3362939948016E+00 -2.6582842357966E-01  7.1845200918122E-01
    40  3.9000000000000E-01  1.3715727060403E+00 -2.5702700231885E-01  7.1910853610563E-01
    41  4.0000000000000E-01  1.4045557184942E+00 -2.4640883247679E-01  7.1404903026570E-01
    42  4.1000000000000E-01  1.4351125967628E+00 -2.3396363746592E-01  7.0315837072812E-01
    43  4.2000000000000E-01  1.4631250839544E+00 -2.1968997661633E-01  6.8640528236264E-01
    44  4.3000000000000E-01  1.4884876287060E+00 -2.0359494446133E-01  6.6384442815226E-01
    45  4.4000000000000E-01  1.5111077833932E+00 -1.8569377726741E-01  6.3561688786884E-01
    46  4.5000000000000E-01  1.5309064702982E+00 -1.6600937444518E-01  6.0194899050146E-01
    47  4.6000000000000E-01  1.5478181147897E+00 -1.4457174430610E-01  5.6314950174255E-01
    48  4.7000000000000E-01  1.5617906468814E+00 -1.2141738532609E-01  5.1960520213007E-01
    49  4.8000000000000E-01  1.5727853748214E+00 -9.6588615595677E-02  4.7177492540051E-01
    50  4.9000000000000E-01  1.5807767365848E+00 -7.0132864442520E-02  4.2018215950451E-01
    51  5.0000000000000E-01  1.5857519372441E+00 -4.2101941265814E-02  3.6540634387710E-01
    52  5.1000000000000E-01  1.5877104821317E+00 -1.2551297395241E-02  3.0807302525669E-01
    53  5.2000000000000E-01  1.5866636174543E+00  1.8460702750156E-02  2.4884305999048E-01
    54  5.3000000000000E-01  1.5826336915174E+00  5.0873484793227E-02  1.8840107276468E-01
    55  5.4000000000000E-01  1.5756534509540E+00  8.4624925623214E-02  1.2744339956531E-01
    56  5.5000000000000E-01  1.5657652872802E+00  1.1965195707987E-01  6.6665755975742E-02
    57  5.6000000000000E-01  1.5530204497195E+00  1.5589109738257E-01  6.7508803272531E-03
    58  5.7000000000000E-01  1.5374782405119E+00  1.9327889685557E-01 -5.1643595497579E-02
    59  5.8000000000000E-01  1.5192052088653E+00  2.3175228609837E-01 -1.0789679678302E-01
    60  5.9000000000000E-01  1.4982743592957E+00  2.7124881666162E-01 -1.6143553464051E-01
    61  6.0000000000000E-01  1.4747643893656E+00  3.1170678648034E-01 -2.1174428146898E-01
    62  6.1000000000000E-01  1.4487589707576E+00  3.5306524475692E-01 -2.5837397949690E-01
    63  6.2000000000000E-01  1.4203460862565E+00  3.9526387362971E-01 -3.0094949079715E-01
    64  6.3000000000000E-01  1.3896174335668E+00  4.3824274676474E-01 -3.3917552355567E-01
    65  6.4000000000000E-01  1.3566679050057E+00  4.8194196791210E-01 -3.7284089954502E-01
    66  6.5000000000000E-01  1.3215951500226E+00  5.2630119542303E-01 -4.0182106111995E-01
    67  6.6000000000000E-01  1.2844992252466E+00  5.7125906166099E-01 -4.2607875196352E-01
    68  6.7000000000000E-01  1.2454823343993E+00  6.1675249911056E-01 -4.4566284353775E-01
    69  6.8000000000000E-01  1.2046486579860E+00  6.6271598771550E-01 -4.6070531798876E-01
    70  6.9000000000000E-01  1.1621042702457E+00  7.0908074051518E-01 -4.7141645730333E-01
    71  7.0000000000000E-01  1.1179571384436E+00  7.5577384692486E-01 -4.7807832702530E-01
    72  7.1000000000000E-01  1.0723171972991E+00  8.0271739497269E-01 -4.8103667998556E-01
    73  7.2000000000000E-01  1.0252964891904E+00  8.4982759540798E-01 -4.8069144050685E-01
    74  7.3000000000000E-01  9.7700935882741E-01  8.9701393178863E-01 -4.7748596163830E-01
    75  7.4000000000000E-01  9.2757268937340E-01  9.4417836139649E-01 -4.7189527646938E-01
    76  7.5000000000000E-01  8.7710616557086E-01  9.9121459209317E-01 -4.6441358880927E-01
    77  7.6000000000000E-01  8.2573254832026E-01  1.0380074599842E+00 -4.5554126794906E-01
    78  7.7000000000000E-01  7.7357794440080E-01  1.0844324320001E+00 -4.4577162637570E-01
    79  7.8000000000000E-01  7.2077205463555E-01  1.1303552562171E+00 -4.3557776781814E-01
    80  7.9000000000000E-01  6.6744838380143E-01  1.1756317809455E+00 -4.2539979561554E-01
    81  8.0000000000000E-01  6.1374439597618E-01  1.2201079613072E+00 -4.1563266798487E-01
    82  8.1000000000000E-01  5.5980159979742E-01  1.2636200692616E+00 -4.0661497729950E-01
    83  8.2000000000000E-01  5.0576554927530E-01  1.3059951198225E+00 -3.9861891510331E-01
    84  8.3000000000000E-01  4.5178574733011E-01  1.3470515226201E+00 -3.9184166349414E-01
    85  8.4000000000000E-01  3.9801544109675E-01  1.3865999640271E+00 -3.8639842708517E-01
    86  8.5000000000000E-01  3.4461130021274E-01  1.4244445208733E+00 -3.8231728845669E-01
    87  8.6000000000000E-01  2.9173297174877E-01  1.4603840023757E+00 -3.7953603441955E-01
    88  8.7000000000000E-01  2.3954250810058E-01  1.4942135123935E+00 -3.7790106120500E-01
    89  8.8000000000000E-01  1.8820366698939E-01  1.5257262195636E+00 -3.7716842461645E-01
    90  8.9000000000000E-01  1.3788108565681E-01  1.5547153183637E+00 -3.7700705706358E-01
    91  9.0000000000000E-01  8.8739334330297E-02  1.5809761597750E+00 -3.7700412811828E-01
    92  9.1000000000000E-01  4.0941857015021E-02  1.6043085260622E+00 -3.7667247969573E-01
    93  9.2000000000000E-01 -5.3501894259067E-03  1.6245190203428E+00 -3.7546002210863E-01
    94  9.3000000000000E-01 -4.9979184170386E-02  1.6414235381567E+00 -3.7276093399063E-01
    95  9.4000000000000E-01 -9.2792363008807E-02  1.6548497852542E+00 -3.6792846834552E-01
    96  9.5000000000000E-01 -1.3364319196251E-01  1.6646398033636E+00 -3.6028912962181E-01
    97  9.6000000000000E-01 -1.7239277331223E-01  1.6706524638413E+00 -3.4915795354890E-01
    98  9.7000000000000E-01 -2.0891126174570E-01  1.6727658879016E+00 -3.3385459323525E-01
    99  9.8000000000000E-01 -2.4307926707856E-01  1.6708797516120E+00 -3.1371989237562E-01
   100  9.9000000000000E-01 -2.7478921918127E-01  1.6649174340538E+00 -2.8813260987135E-01
   101  1.0000000000000E+00 -3.0394667038492E-01  1.6548279680092E+00 -2.5652595017508E-01
   102  1.0100000000000E+00 -3.3047151075677E-01  1.6405877542368E+00 -2.1840355052656E-01
   103  1.0200000000000E+00 -3.5429907224200E-01  1.6222020028497E+00 -1.7335458008943E-01