Os    ONCVPSP-4.0.1  r_core=   1.50588   1.55160   1.55160   2.26180
     76.0000     16.0000      250217    zatom,zion,pspd
     8       2   3     4   600     0    pspcod,pspxc,lmax,lloc,mmax,r2well
  5.99000000  5.00000000  0.00000000    rchrg fchrg qchrg
     2     3     2     3    nproj
     3     1           extension_switch
     4     4     4    nprojso
   0                         8.0934171258150E+00 -1.0981973161165E+00
     1  0.0000000000000E+00 -8.0059436857738E-10 -8.8111068996533E-09
     2  1.0000000000000E-02  6.0438664373653E-02 -3.3957005061991E-02
     3  2.0000000000000E-02  1.2075895945246E-01 -6.8035627485509E-02
     4  3.0000000000000E-02  1.8084319696128E-01 -1.0235205673278E-01
     5  4.0000000000000E-02  2.4057503994033E-01 -1.3701174344519E-01
     6  5.0000000000000E-02  2.9984015180303E-01 -1.7210432016478E-01
     7  6.0000000000000E-02  3.5852681405868E-01 -2.0769886378315E-01
     8  7.0000000000000E-02  4.1652650321746E-01 -2.4383960304163E-01
     9  8.0000000000000E-02  4.7373441819536E-01 -2.8054216559531E-01
    10  9.0000000000000E-02  5.3004995050811E-01 -3.1779044846210E-01
    11  1.0000000000000E-01  5.8537709066523E-01 -3.5553418331137E-01
    12  1.1000000000000E-01  6.3962476542698E-01 -3.9368725424354E-01
    13  1.2000000000000E-01  6.9270710194393E-01 -4.3212681073832E-01
    14  1.3000000000000E-01  7.4454361623289E-01 -4.7069320259410E-01
    15  1.4000000000000E-01  7.9505932492823E-01 -5.0919074725136E-01
    16  1.5000000000000E-01  8.4418478075211E-01 -5.4738932320632E-01
    17  1.6000000000000E-01  8.9185603364366E-01 -5.8502676660210E-01
    18  1.7000000000000E-01  9.3801452094376E-01 -6.2181203185677E-01
    19  1.8000000000000E-01  9.8260689142161E-01 -6.5742906166688E-01
    20  1.9000000000000E-01  1.0255847692223E+00 -6.9154129721623E-01
    21  2.0000000000000E-01  1.0669044649868E+00 -7.2379674620827E-01
    22  2.1000000000000E-01  1.1065266424207E+00 -7.5383351468788E-01
    23  2.2000000000000E-01  1.1444159494489E+00 -7.8128569875641E-01
    24  2.3000000000000E-01  1.1805406237682E+00 -8.0578952441334E-01
    25  2.4000000000000E-01  1.2148720830840E+00 -8.2698961803763E-01
    26  2.5000000000000E-01  1.2473845105874E+00 -8.4454528657452E-01
    27  2.6000000000000E-01  1.2780544462779E+00 -8.5813668539552E-01
    28  2.7000000000000E-01  1.3068603945705E+00 -8.6747075308318E-01
    29  2.8000000000000E-01  1.3337824582432E+00 -8.7228679604535E-01
    30  2.9000000000000E-01  1.3588020081877E+00 -8.7236161182574E-01
    31  3.0000000000000E-01  1.3819013976335E+00 -8.6751404814778E-01
    32  3.1000000000000E-01  1.4030637285388E+00 -8.5760890495644E-01
    33  3.2000000000000E-01  1.4222726766963E+00 -8.4256009882462E-01
    34  3.3000000000000E-01  1.4395123808113E+00 -8.2233302283958E-01
    35  3.4000000000000E-01  1.4547673993999E+00 -7.9694605022616E-01
    36  3.5000000000000E-01  1.4680227378493E+00 -7.6647114620749E-01
    37  3.6000000000000E-01  1.4792639464125E+00 -7.3103356964732E-01
    38  3.7000000000000E-01  1.4884772883045E+00 -6.9081066352928E-01
    39  3.8000000000000E-01  1.4956499754665E+00 -6.4602975097412E-01
    40  3.9000000000000E-01  1.5007704679801E+00 -5.9696517093254E-01
    41  4.0000000000000E-01  1.5038288316072E+00 -5.4393450457694E-01
    42  4.1000000000000E-01  1.5048171465029E+00 -4.8729405942205E-01
    43  4.2000000000000E-01  1.5037299588505E+00 -4.2743369300814E-01
    44  4.3000000000000E-01  1.5005647660168E+00 -3.6477107129130E-01
    45  4.4000000000000E-01  1.4953225248451E+00 -2.9974546842684E-01
    46  4.5000000000000E-01  1.4880081719255E+00 -2.3281122416984E-01
    47  4.6000000000000E-01  1.4786311441076E+00 -1.6443098244789E-01
    48  4.7000000000000E-01  1.4672058871847E+00 -9.5068839625244E-02
    49  4.8000000000000E-01  1.4537523405709E+00 -2.5183533458546E-02
    50  4.9000000000000E-01  1.4382963859332E+00  4.4778196327747E-02
    51  5.0000000000000E-01  1.4208702481233E+00  1.1438794756221E-01
    52  5.1000000000000E-01  1.4015128373754E+00  1.8324157214834E-01
    53  5.2000000000000E-01  1.3802700225913E+00  2.5096455414616E-01
    54  5.3000000000000E-01  1.3571948266022E+00  3.1721674396571E-01
    55  5.4000000000000E-01  1.3323475355720E+00  3.8169635538200E-01
    56  5.5000000000000E-01  1.3057957161542E+00  4.4414314618935E-01
    57  5.6000000000000E-01  1.2776141356194E+00  5.0434071911259E-01
    58  5.7000000000000E-01  1.2478845818974E+00  5.6211789679150E-01
    59  5.8000000000000E-01  1.2166955823004E+00  6.1734914293629E-01
    60  5.9000000000000E-01  1.1841420215740E+00  6.6995402076128E-01
    61  6.0000000000000E-01  1.1503246618265E+00  7.1989569918568E-01
    62  6.1000000000000E-01  1.1153495687839E+00  7.6717853666470E-01
    63  6.2000000000000E-01  1.0793274506589E+00  8.1184479150370E-01
    64  6.3000000000000E-01  1.0423729176847E+00  8.5397052573726E-01
    65  6.4000000000000E-01  1.0046036720077E+00  8.9366078675818E-01
    66  6.5000000000000E-01  9.6613963911802E-01  9.3104416651150E-01
    67  6.6000000000000E-01  9.2710205330674E-01  9.6626685190240E-01
    68  6.7000000000000E-01  8.8761251073225E-01  9.9948629180964E-01
    69  6.8000000000000E-01  8.4779200453843E-01  1.0308646154978E+00
    70  6.9000000000000E-01  8.0775995707405E-01  1.0605619440612E+00
    71  7.0000000000000E-01  7.6763326459817E-01  1.0887297406487E+00
    72  7.1000000000000E-01  7.2752536991142E-01  1.1155043464955E+00
    73  7.2000000000000E-01  6.8754537812268E-01  1.1410008481549E+00
    74  7.3000000000000E-01  6.4779723024378E-01  1.1653074167836E+00
    75  7.4000000000000E-01  6.0837894850777E-01  1.1884802529221E+00
    76  7.5000000000000E-01  5.6938196623929E-01  1.2105392600481E+00
    77  7.6000000000000E-01  5.3089055378467E-01  1.2314645574020E+00
    78  7.7000000000000E-01  4.9298135045546E-01  1.2511939274201E+00
    79  7.8000000000000E-01  4.5572301067802E-01  1.2696212758079E+00
    80  7.9000000000000E-01  4.1917597060294E-01  1.2865961631507E+00
    81  8.0000000000000E-01  3.8339233934586E-01  1.3019244463367E+00
    82  8.1000000000000E-01  3.4841591684119E-01  1.3153700463269E+00
    83  8.2000000000000E-01  3.1428233803307E-01  1.3266578363555E+00
    84  8.3000000000000E-01  2.8101934084349E-01  1.3354776219045E+00
    85  8.4000000000000E-01  2.4864715308852E-01  1.3414891611923E+00
    86  8.5000000000000E-01  2.1717899130253E-01  1.3443281528952E+00
    87  8.6000000000000E-01  1.8662166231895E-01  1.3436130968078E+00
    88  8.7000000000000E-01  1.5697625648477E-01  1.3389529135601E+00
    89  8.8000000000000E-01  1.2823891959411E-01  1.3299551917506E+00
    90  8.9000000000000E-01  1.0040168904846E-01  1.3162349152849E+00
    91  9.0000000000000E-01  7.3453378420701E-02  1.2974235106716E+00
    92  9.1000000000000E-01  4.7380493544176E-02  1.2731780437978E+00
    93  9.2000000000000E-01  2.2168162491013E-02  1.2431903885413E+00
    94  9.3000000000000E-01 -2.1989386372070E-03  1.2071961856471E+00
    95  9.4000000000000E-01 -2.5735682295266E-02  1.1649834097431E+00
    96  9.5000000000000E-01 -4.8455626421948E-02  1.1164003652505E+00
    97  9.6000000000000E-01 -7.0370209115507E-02  1.0613629382712E+00
    98  9.7000000000000E-01 -9.1488017573258E-02  9.9986094124029E-01
    99  9.8000000000000E-01 -1.1181414660450E-01  9.3196340008502E-01
   100  9.9000000000000E-01 -1.3134966051757E-01  8.5782264966880E-01
   101  1.0000000000000E+00 -1.5009117039795E-01  7.7767712214167E-01
   102  1.0100000000000E+00 -1.6803053676284E-01  6.9185273418437E-01
   103  1.0200000000000E+00 -1.8515470533348E-01  6.0076280265510E-01
   104  1.0300000000000E+00 -2.0144568124635E-01  5.0490644344749E-01
   105  1.0400000000000E+00 -2.1688064447302E-01  4.0486543497222E-01
   106  1.0500000000000E+00 -2.3143220657992E-01  3.0129955513711E-01
   107  1.0600000000000E+00 -2.4506880627718E-01  1.9494042855671E-01
   108  1.0700000000000E+00 -2.5775523853769E-01  8.6583948381166E-02
   109  1.0800000000000E+00 -2.6945330945071E-01 -2.2918635794456E-02
   110  1.0900000000000E+00 -2.8012260646706E-01 -1.3267084659831E-01
   111  1.1000000000000E+00 -2.8972137133925E-01 -2.4174218255197E-01
   112  1.1100000000000E+00 -2.9820746089878E-01 -3.4918023299045E-01
   113  1.1200000000000E+00 -3.0553937890063E-01 -4.5402352093369E-01
   114  1.1300000000000E+00 -3.1167736051938E-01 -5.5531487388984E-01
   115  1.1400000000000E+00 -3.1658448975796E-01 -6.5211510924061E-01
   116  1.1500000000000E+00 -3.2022782903607E-01 -7.4351681099898E-01
   117  1.1600000000000E+00 -3.2257953959998E-01 -8.2865796873684E-01
   118  1.1700000000000E+00 -3.2361797114298E-01 -9.0673524740970E-01
   119  1.1800000000000E+00 -3.2332869916055E-01 -9.7701665878265E-01
   120  1.1900000000000E+00 -3.2170548909039E-01 -1.0388534112462E+00
   121  1.2000000000000E+00 -3.1875116719317E-01 -1.0916907248595E+00
   122  1.2100000000000E+00 -3.1447837941159E-01 -1.1350774124370E+00
   123  1.2200000000000E+00 -3.0891022108263E-01 -1.1686740451900E+00
   124  1.2300000000000E+00 -3.0208072233333E-01 -1.1922595424386E+00
   125  1.2400000000000E+00 -2.9403517626328E-01 -1.2057360492244E+00
   126  1.2500000000000E+00 -2.8483029952883E-01 -1.2091319924494E+00
   127  1.2600000000000E+00 -2.7453421768833E-01 -1.2026032353668E+00
   128  1.2700000000000E+00 -2.6322627058685E-01 -1.1864322812631E+00
   129  1.2800000000000E+00 -2.5099663608573E-01 -1.1610255092726E+00
   130  1.2900000000000E+00 -2.3794577355660E-01 -1.1269084582624E+00
   131  1.3000000000000E+00 -2.2418369168515E-01 -1.0847192078027E+00
   132  1.3100000000000E+00 -2.0982904821034E-01 -1.0351999378046E+00
   133  1.3200000000000E+00 -1.9500809222055E-01 -9.7918678006249E-01
   134  1.3300000000000E+00 -1.7985346247963E-01 -9.1759810503610E-01
   135  1.3400000000000E+00 -1.6450285790394E-01 -8.5142141514612E-01
   136  1.3500000000000E+00 -1.4909759871155E-01 -7.8169904115654E-01
   137  1.3600000000000E+00 -1.3378109889216E-01 -7.0951286063033E-01
   138  1.3700000000000E+00 -1.1869727242685E-01 -6.3596827618283E-01
   139  1.3800000000000E+00 -1.0398889711656E-01 -5.6217770629074E-01
   140  1.3900000000000E+00 -8.9795960913464E-02 -4.8924385228182E-01
   141  1.4000000000000E+00 -7.6254016280822E-02 -4.1824301172925E-01
   142  1.4100000000000E+00 -6.3492568265417E-02 -3.5020870984435E-01
   143  1.4200000000000E+00 -5.1633517844706E-02 -2.8611587194877E-01
   144  1.4300000000000E+00 -4.0789688291139E-02 -2.2686567796242E-01
   145  1.4400000000000E+00 -3.1060163635481E-02 -1.7322174639479E-01
   146  1.4500000000000E+00 -2.2532872407749E-02 -1.2585998535160E-01
   147  1.4600000000000E+00 -1.5288624555399E-02 -8.5431401900841E-02
   148  1.4700000000000E+00 -9.3941370715016E-03 -5.2455753673326E-02
   149  1.4800000000000E+00 -4.9018871965527E-03 -2.7321049590080E-02
   150  1.4900000000000E+00 -1.8427166160800E-03 -1.0240279827796E-02
   151  1.5000000000000E+00 -2.7378719028263E-04 -1.5151218002056E-03
   152  1.5100000000000E+00  2.8498583411595E-05  1.5723517419790E-04
   153  1.5200000000000E+00 -8.3433020163487E-06 -4.6120660347408E-05
   154  1.53  0.  0.
   155  1.54  0.  0.
   156  1.55  0.  0.
   157  1.56  0.  0.
   158  1.57  0.  0.
   159  1.58  0.  0.
   160  1.59  0.  0.
   161  1.60  0.  0.
   162  1.61  0.  0.
   163  1.62  0.  0.
   164  1.63  0.  0.
   165  1.64  0.  0.
   166  1.65  0.  0.
   167  1.66  0.  0.
   168  1.67  0.  0.
   169  1.68  0.  0.
   170  1.69  0.  0.
   171  1.70  0.  0.
   172  1.71  0.  0.
   173  1.72  0.  0.
   174  1.73  0.  0.
   175  1.74  0.  0.
   176  1.75  0.  0.
   177  1.76  0.  0.
   178  1.77  0.  0.
   179  1.78  0.  0.
   180  1.79  0.  0.
   181  1.80  0.  0.
   182  1.81  0.  0.
   183  1.82  0.  0.
   184  1.83  0.  0.
   185  1.84  0.  0.
   186  1.85  0.  0.
   187  1.86  0.  0.
   188  1.87  0.  0.
   189  1.88  0.  0.
   190  1.89  0.  0.
   191  1.90  0.  0.
   192  1.91  0.  0.
   193  1.92  0.  0.
   194  1.93  0.  0.
   195  1.94  0.  0.
   196  1.95  0.  0.
   197  1.96  0.  0.
   198  1.97  0.  0.
   199  1.98  0.  0.
   200  1.99  0.  0.
   201  2.00  0.  0.
   202  2.01  0.  0.
   203  2.02  0.  0.
   204  2.03  0.  0.
   205  2.04  0.  0.
   206  2.05  0.  0.
   207  2.06  0.  0.
   208  2.07  0.  0.
   209  2.08  0.  0.
   210  2.09  0.  0.
   211  2.10  0.  0.
   212  2.11  0.  0.
   213  2.12  0.  0.
   214  2.13  0.  0.
   215  2.14  0.  0.
   216  2.15  0.  0.
   217  2.16  0.  0.
   218  2.17  0.  0.
   219  2.18  0.  0.
   220  2.19  0.  0.
   221  2.20  0.  0.
   222  2.21  0.  0.
   223  2.22  0.  0.
   224  2.23  0.  0.
   225  2.24  0.  0.
   226  2.25  0.  0.
   227  2.26  0.  0.
   228  2.27  0.  0.
   229  2.28  0.  0.
   230  2.29  0.  0.
   231  2.30  0.  0.
   232  2.31  0.  0.
   233  2.32  0.  0.
   234  2.33  0.  0.
   235  2.34  0.  0.
   236  2.35  0.  0.
   237  2.36  0.  0.
   238  2.37  0.  0.
   239  2.38  0.  0.
   240  2.39  0.  0.
   241  2.40  0.  0.
   242  2.41  0.  0.
   243  2.42  0.  0.
   244  2.43  0.  0.
   245  2.44  0.  0.
   246  2.45  0.  0.
   247  2.46  0.  0.
   248  2.47  0.  0.
   249  2.48  0.  0.
   250  2.49  0.  0.
   251  2.50  0.  0.
   252  2.51  0.  0.
   253  2.52  0.  0.
   254  2.53  0.  0.
   255  2.54  0.  0.
   256  2.55  0.  0.
   257  2.56  0.  0.
   258  2.57  0.  0.
   259  2.58  0.  0.
   260  2.59  0.  0.
   261  2.60  0.  0.
   262  2.61  0.  0.
   263  2.62  0.  0.
   264  2.63  0.  0.
   265  2.64  0.  0.
   266  2.65  0.  0.
   267  2.66  0.  0.
   268  2.67  0.  0.
   269  2.68  0.  0.
   270  2.69  0.  0.
   271  2.70  0.  0.
   272  2.71  0.  0.
   273  2.72  0.  0.
   274  2.73  0.  0.
   275  2.74  0.  0.
   276  2.75  0.  0.
   277  2.76  0.  0.
   278  2.77  0.  0.
   279  2.78  0.  0.
   280  2.79  0.  0.
   281  2.80  0.  0.
   282  2.81  0.  0.
   283  2.82  0.  0.
   284  2.83  0.  0.
   285  2.84  0.  0.
   286  2.85  0.  0.
   287  2.86  0.  0.
   288  2.87  0.  0.
   289  2.88  0.  0.
   290  2.89  0.  0.
   291  2.90  0.  0.
   292  2.91  0.  0.
   293  2.92  0.  0.
   294  2.93  0.  0.
   295  2.94  0.  0.
   296  2.95  0.  0.
   297  2.96  0.  0.
   298  2.97  0.  0.
   299  2.98  0.  0.
   300  2.99  0.  0.
   301  3.00  0.  0.
   302  3.01  0.  0.
   303  3.02  0.  0.
   304  3.03  0.  0.
   305  3.04  0.  0.
   306  3.05  0.  0.
   307  3.06  0.  0.
   308  3.07  0.  0.
   309  3.08  0.  0.
   310  3.09  0.  0.
   311  3.10  0.  0.
   312  3.11  0.  0.
   313  3.12  0.  0.
   314  3.13  0.  0.
   315  3.14  0.  0.
   316  3.15  0.  0.
   317  3.16  0.  0.
   318  3.17  0.  0.
   319  3.18  0.  0.
   320  3.19  0.  0.
   321  3.20  0.  0.
   322  3.21  0.  0.
   323  3.22  0.  0.
   324  3.23  0.  0.
   325  3.24  0.  0.
   326  3.25  0.  0.
   327  3.26  0.  0.
   328  3.27  0.  0.
   329  3.28  0.  0.
   330  3.29  0.  0.
   331  3.30  0.  0.
   332  3.31  0.  0.
   333  3.32  0.  0.
   334  3.33  0.  0.
   335  3.34  0.  0.
   336  3.35  0.  0.
   337  3.36  0.  0.
   338  3.37  0.  0.
   339  3.38  0.  0.
   340  3.39  0.  0.
   341  3.40  0.  0.
   342  3.41  0.  0.
   343  3.42  0.  0.
   344  3.43  0.  0.
   345  3.44  0.  0.
   346  3.45  0.  0.
   347  3.46  0.  0.
   348  3.47  0.  0.
   349  3.48  0.  0.
   350  3.49  0.  0.
   351  3.50  0.  0.
   352  3.51  0.  0.
   353  3.52  0.  0.
   354  3.53  0.  0.
   355  3.54  0.  0.
   356  3.55  0.  0.
   357  3.56  0.  0.
   358  3.57  0.  0.
   359  3.58  0.  0.
   360  3.59  0.  0.
   361  3.60  0.  0.
   362  3.61  0.  0.
   363  3.62  0.  0.
   364  3.63  0.  0.
   365  3.64  0.  0.
   366  3.65  0.  0.
   367  3.66  0.  0.
   368  3.67  0.  0.
   369  3.68  0.  0.
   370  3.69  0.  0.
   371  3.70  0.  0.
   372  3.71  0.  0.
   373  3.72  0.  0.
   374  3.73  0.  0.
   375  3.74  0.  0.
   376  3.75  0.  0.
   377  3.76  0.  0.
   378  3.77  0.  0.
   379  3.78  0.  0.
   380  3.79  0.  0.
   381  3.80  0.  0.
   382  3.81  0.  0.
   383  3.82  0.  0.
   384  3.83  0.  0.
   385  3.84  0.  0.
   386  3.85  0.  0.
   387  3.86  0.  0.
   388  3.87  0.  0.
   389  3.88  0.  0.
   390  3.89  0.  0.
   391  3.90  0.  0.
   392  3.91  0.  0.
   393  3.92  0.  0.
   394  3.93  0.  0.
   395  3.94  0.  0.
   396  3.95  0.  0.
   397  3.96  0.  0.
   398  3.97  0.  0.
   399  3.98  0.  0.
   400  3.99  0.  0.
   401  4.00  0.  0.
   402  4.01  0.  0.
   403  4.02  0.  0.
   404  4.03  0.  0.
   405  4.04  0.  0.
   406  4.05  0.  0.
   407  4.06  0.  0.
   408  4.07  0.  0.
   409  4.08  0.  0.
   410  4.09  0.  0.
   411  4.10  0.  0.
   412  4.11  0.  0.
   413  4.12  0.  0.
   414  4.13  0.  0.
   415  4.14  0.  0.
   416  4.15  0.  0.
   417  4.16  0.  0.
   418  4.17  0.  0.
   419  4.18  0.  0.
   420  4.19  0.  0.
   421  4.20  0.  0.
   422  4.21  0.  0.
   423  4.22  0.  0.
   424  4.23  0.  0.
   425  4.24  0.  0.
   426  4.25  0.  0.
   427  4.26  0.  0.
   428  4.27  0.  0.
   429  4.28  0.  0.
   430  4.29  0.  0.
   431  4.30  0.  0.
   432  4.31  0.  0.
   433  4.32  0.  0.
   434  4.33  0.  0.
   435  4.34  0.  0.
   436  4.35  0.  0.
   437  4.36  0.  0.
   438  4.37  0.  0.
   439  4.38  0.  0.
   440  4.39  0.  0.
   441  4.40  0.  0.
   442  4.41  0.  0.
   443  4.42  0.  0.
   444  4.43  0.  0.
   445  4.44  0.  0.
   446  4.45  0.  0.
   447  4.46  0.  0.
   448  4.47  0.  0.
   449  4.48  0.  0.
   450  4.49  0.  0.
   451  4.50  0.  0.
   452  4.51  0.  0.
   453  4.52  0.  0.
   454  4.53  0.  0.
   455  4.54  0.  0.
   456  4.55  0.  0.
   457  4.56  0.  0.
   458  4.57  0.  0.
   459  4.58  0.  0.
   460  4.59  0.  0.
   461  4.60  0.  0.
   462  4.61  0.  0.
   463  4.62  0.  0.
   464  4.63  0.  0.
   465  4.64  0.  0.
   466  4.65  0.  0.
   467  4.66  0.  0.
   468  4.67  0.  0.
   469  4.68  0.  0.
   470  4.69  0.  0.
   471  4.70  0.  0.
   472  4.71  0.  0.
   473  4.72  0.  0.
   474  4.73  0.  0.
   475  4.74  0.  0.
   476  4.75  0.  0.
   477  4.76  0.  0.
   478  4.77  0.  0.
   479  4.78  0.  0.
   480  4.79  0.  0.
   481  4.80  0.  0.
   482  4.81  0.  0.
   483  4.82  0.  0.
   484  4.83  0.  0.
   485  4.84  0.  0.
   486  4.85  0.  0.
   487  4.86  0.  0.
   488  4.87  0.  0.
   489  4.88  0.  0.
   490  4.89  0.  0.
   491  4.90  0.  0.
   492  4.91  0.  0.
   493  4.92  0.  0.
   494  4.93  0.  0.
   495  4.94  0.  0.
   496  4.95  0.  0.
   497  4.96  0.  0.
   498  4.97  0.  0.
   499  4.98  0.  0.
   500  4.99  0.  0.
   501  5.00  0.  0.
   502  5.01  0.  0.
   503  5.02  0.  0.
   504  5.03  0.  0.
   505  5.04  0.  0.
   506  5.05  0.  0.
   507  5.06  0.  0.
   508  5.07  0.  0.
   509  5.08  0.  0.
   510  5.09  0.  0.
   511  5.10  0.  0.
   512  5.11  0.  0.
   513  5.12  0.  0.
   514  5.13  0.  0.
   515  5.14  0.  0.
   516  5.15  0.  0.
   517  5.16  0.  0.
   518  5.17  0.  0.
   519  5.18  0.  0.
   520  5.19  0.  0.
   521  5.20  0.  0.
   522  5.21  0.  0.
   523  5.22  0.  0.
   524  5.23  0.  0.
   525  5.24  0.  0.
   526  5.25  0.  0.
   527  5.26  0.  0.
   528  5.27  0.  0.
   529  5.28  0.  0.
   530  5.29  0.  0.
   531  5.30  0.  0.
   532  5.31  0.  0.
   533  5.32  0.  0.
   534  5.33  0.  0.
   535  5.34  0.  0.
   536  5.35  0.  0.
   537  5.36  0.  0.
   538  5.37  0.  0.
   539  5.38  0.  0.
   540  5.39  0.  0.
   541  5.40  0.  0.
   542  5.41  0.  0.
   543  5.42  0.  0.
   544  5.43  0.  0.
   545  5.44  0.  0.
   546  5.45  0.  0.
   547  5.46  0.  0.
   548  5.47  0.  0.
   549  5.48  0.  0.
   550  5.49  0.  0.
   551  5.50  0.  0.
   552  5.51  0.  0.
   553  5.52  0.  0.
   554  5.53  0.  0.
   555  5.54  0.  0.
   556  5.55  0.  0.
   557  5.56  0.  0.
   558  5.57  0.  0.
   559  5.58  0.  0.
   560  5.59  0.  0.
   561  5.60  0.  0.
   562  5.61  0.  0.
   563  5.62  0.  0.
   564  5.63  0.  0.
   565  5.64  0.  0.
   566  5.65  0.  0.
   567  5.66  0.  0.
   568  5.67  0.  0.
   569  5.68  0.  0.
   570  5.69  0.  0.
   571  5.70  0.  0.
   572  5.71  0.  0.
   573  5.72  0.  0.
   574  5.73  0.  0.
   575  5.74  0.  0.
   576  5.75  0.  0.
   577  5.76  0.  0.
   578  5.77  0.  0.
   579  5.78  0.  0.
   580  5.79  0.  0.
   581  5.80  0.  0.
   582  5.81  0.  0.
   583  5.82  0.  0.
   584  5.83  0.  0.
   585  5.84  0.  0.
   586  5.85  0.  0.
   587  5.86  0.  0.
   588  5.87  0.  0.
   589  5.88  0.  0.
   590  5.89  0.  0.
   591  5.90  0.  0.
   592  5.91  0.  0.
   593  5.92  0.  0.
   594  5.93  0.  0.
   595  5.94  0.  0.
   596  5.95  0.  0.
   597  5.96  0.  0.
   598  5.97  0.  0.
   599  5.98  0.  0.
   600  5.99  0.  0.
   1                         5.7403930826296E+00  3.4185917818311E-01 -1.3433430906820E-01
     1  0.0000000000000E+00 -1.4510759538400E-09  4.8470873842410E-10 -2.4128889668414E-08
     2  1.0000000000000E-02  1.3912289714402E-03 -5.6149272993432E-04 -2.9065339451630E-06
     3  2.0000000000000E-02  5.5613947339767E-03 -2.2421775835944E-03  9.3806897770845E-06
     4  3.0000000000000E-02  1.2499910488303E-02 -5.0306833734369E-03  9.9262716494089E-05
     5  4.0000000000000E-02  2.2189054640501E-02 -8.9080878626225E-03  3.6869105840175E-04
     6  5.0000000000000E-02  3.4603858485606E-02 -1.3847963554111E-02  9.5614292217603E-04
     7  6.0000000000000E-02  4.9711955043874E-02 -1.9816444102065E-02  2.0324865351688E-03
     8  7.0000000000000E-02  6.7473394959799E-02 -2.6772313547869E-02  3.7958339499375E-03
     9  8.0000000000000E-02  8.7840436825043E-02 -3.4667121067794E-02  6.4655028357468E-03
    10  9.0000000000000E-02  1.1075732056628E-01 -4.3445324300360E-02  1.0275230232363E-02
    11  1.0000000000000E-01  1.3616003361713E-01 -5.3044464580580E-02  1.5465799572902E-02
    12  1.1000000000000E-01  1.6397608044383E-01 -6.3395377534693E-02  2.2277257065309E-02
    13  1.2000000000000E-01  1.9412426659591E-01 -7.4422442468069E-02  3.0940904428744E-02
    14  1.3000000000000E-01  2.2651450878924E-01 -8.6043873808212E-02  4.1671261754467E-02
    15  1.4000000000000E-01  2.6104768259074E-01 -9.8172057539089E-02  5.4658196742485E-02
    16  1.5000000000000E-01  2.9761551905543E-01 -1.1071393508645E-01  7.0059414677717E-02
    17  1.6000000000000E-01  3.3610056117129E-01 -1.2357143649060E-01  8.7993497279923E-02
    18  1.7000000000000E-01  3.7637619020137E-01 -1.3664196394702E-01  1.0853366809568E-01
    19  1.8000000000000E-01  4.1830673099132E-01 -1.4981892591688E-01  1.3170244761291E-01
    20  1.9000000000000E-01  4.6174764405157E-01 -1.6299232103107E-01  1.5746734305136E-01
    21  2.0000000000000E-01  5.0654581075308E-01 -1.7604936995263E-01  1.8573769619532E-01
    22  2.1000000000000E-01  5.5253991632174E-01 -1.8887519224807E-01  2.1636278813146E-01
    23  2.2000000000000E-01  5.9956093351359E-01 -2.0135352417626E-01  2.4913127284634E-01
    24  2.3000000000000E-01  6.4743270793810E-01 -2.1336747216207E-01  2.8377198289075E-01
    25  2.4000000000000E-01  6.9597264400874E-01 -2.2480029561118E-01  3.1995612033843E-01
    26  2.5000000000000E-01  7.4499248848131E-01 -2.3553621167242E-01  3.5730081569471E-01
    27  2.6000000000000E-01  7.9429920653391E-01 -2.4546121359499E-01  3.9537400689611E-01
    28  2.7000000000000E-01  8.4369594338961E-01 -2.5446389348795E-01  4.3370056074880E-01
    29  2.8000000000000E-01  8.9298306262750E-01 -2.6243625959660E-01  4.7176953072212E-01
    30  2.9000000000000E-01  9.4195925060898E-01 -2.6927453768769E-01  5.0904241857092E-01
    31  3.0000000000000E-01  9.9042267490268E-01 -2.7487994580591E-01  5.4496228338776E-01
    32  3.1000000000000E-01  1.0381721832572E+00 -2.7915943154339E-01  5.7896352092136E-01
    33  3.2000000000000E-01  1.0850085285775E+00 -2.8202636106692E-01  6.1048211881001E-01
    34  3.3000000000000E-01  1.1307356045318E+00 -2.8340114948138E-01  6.3896618017252E-01
    35  3.4000000000000E-01  1.1751616758762E+00 -2.8321182267632E-01  6.6388649909308E-01
    36  3.5000000000000E-01  1.2181005873421E+00 -2.8139450160430E-01  6.8474696715976E-01
    37  3.6000000000000E-01  1.2593729350019E+00 -2.7789380096510E-01  7.0109459051251E-01
    38  3.7000000000000E-01  1.2988071844089E+00 -2.7266313551009E-01  7.1252890185879E-01
    39  3.8000000000000E-01  1.3362407204960E+00 -2.6566492861205E-01  7.1871056157244E-01
    40  3.9000000000000E-01  1.3715208152040E+00 -2.5687071935080E-01  7.1936895613975E-01
    41  4.0000000000000E-01  1.4045055000728E+00 -2.4626116611015E-01  7.1430862060951E-01
    42  4.1000000000000E-01  1.4350643325524E+00 -2.3382594653868E-01  7.0341433398951E-01
    43  4.2000000000000E-01  1.4630790465388E+00 -2.1956355565765E-01  6.8665476228659E-01
    44  4.3000000000000E-01  1.4884440795837E+00 -2.0348100586598E-01  6.6408455259871E-01
    45  4.4000000000000E-01  1.5110669713280E+00 -1.8559343455257E-01  6.3584481276493E-01
    46  4.5000000000000E-01  1.5308686299223E+00 -1.6592362693908E-01  6.0216194393068E-01
    47  4.6000000000000E-01  1.5477834654858E+00 -1.4450146359731E-01  5.6334482731753E-01
    48  4.7000000000000E-01  1.5617593919626E+00 -1.2136330377279E-01  5.1978040079960E-01
    49  4.8000000000000E-01  1.5727577010245E+00 -9.6551317158105E-02  4.7192769486069E-01
    50  4.9000000000000E-01  1.5807528138842E+00 -7.0112778058248E-02  4.2031043042105E-01
    51  5.0000000000000E-01  1.5857319189866E+00 -4.2099336938441E-02  3.6550831217862E-01
    52  5.1000000000000E-01  1.5876945054882E+00 -1.2566285112341E-02  3.0814717982895E-01
    53  5.2000000000000E-01  1.5866518041733E+00  1.8428171211889E-02  2.4888820518279E-01
    54  5.3000000000000E-01  1.5826261489614E+00  5.0823611179475E-02  1.8841634521696E-01
    55  5.4000000000000E-01  1.5756502733902E+00  8.4558057696752E-02  1.2742827897117E-01
    56  5.5000000000000E-01  1.5657665573924E+00  1.1956857842798E-01  6.6620069512030E-02
    57  5.6000000000000E-01  1.5530262403005E+00  1.5579181472886E-01  6.6748006040249E-03
    58  5.7000000000000E-01  1.5374886162907E+00  1.9316442512697E-01 -5.1749558986501E-02
    59  5.8000000000000E-01  1.5192202284184E+00  2.3162343155386E-01 -1.0803181259959E-01
    60  5.9000000000000E-01  1.4982940769887E+00  2.7110645843920E-01 -1.6159847049487E-01
    61  6.0000000000000E-01  1.4747888572667E+00  3.1155185696276E-01 -2.1193373110250E-01
    62  6.1000000000000E-01  1.4487882404657E+00  3.5289870919262E-01 -2.5858829487506E-01
    63  6.2000000000000E-01  1.4203802105840E+00  3.9508670947282E-01 -3.0118681902094E-01
    64  6.3000000000000E-01  1.3896564680182E+00  4.3805592321650E-01 -3.3943384779909E-01
    65  6.4000000000000E-01  1.3567119089973E+00  4.8174642615355E-01 -3.7311808324032E-01
    66  6.5000000000000E-01  1.3216441877893E+00  5.2609783002615E-01 -4.0211489453808E-01
    67  6.6000000000000E-01  1.2845533663892E+00  5.7104870365254E-01 -4.2638700028101E-01
    68  6.7000000000000E-01  1.2455416540296E+00  6.1653590113775E-01 -4.4598329544238E-01
    69  6.8000000000000E-01  1.2047132364370E+00  6.6249381172846E-01 -4.6103583385428E-01
    70  6.9000000000000E-01  1.1621741923187E+00  7.0885354833585E-01 -4.7175501596250E-01
    71  7.0000000000000E-01  1.1180324921779E+00  7.5554209401685E-01 -4.7842307018737E-01
    72  7.1000000000000E-01  1.0723980722556E+00  8.0248142766433E-01 -4.8138595338081E-01
    73  7.2000000000000E-01  1.0253829742551E+00  8.4958765174923E-01 -4.8104383089510E-01
    74  7.3000000000000E-01  9.7710153954834E-01  8.9677014614579E-01 -4.7784032889174E-01
    75  7.4000000000000E-01  9.2767064485905E-01  9.4393077280731E-01 -4.7225078002772E-01
    76  7.5000000000000E-01  8.7720996498707E-01  9.9096315631923E-01 -4.6476970790967E-01
    77  7.6000000000000E-01  8.2584224703490E-01  1.0377520651120E+00 -4.5589781514851E-01
    78  7.7000000000000E-01  7.7369357983573E-01  1.0841729173549E+00 -4.4612875401282E-01
    79  7.8000000000000E-01  7.2089364189518E-01  1.1300914342716E+00 -4.3593596719306E-01
    80  7.9000000000000E-01  6.6757591115631E-01  1.1753634618220E+00 -4.2575988881172E-01
    81  8.0000000000000E-01  6.1387782028754E-01  1.2198349794018E+00 -4.1599579239659E-01
    82  8.1000000000000E-01  5.5994084197530E-01  1.2633423114489E+00 -4.0698256307597E-01
    83  8.2000000000000E-01  5.0591048986728E-01  1.3057125546425E+00 -3.9899265585929E-01
    84  8.3000000000000E-01  4.5193622234148E-01  1.3467642298024E+00 -3.9222348077410E-01
    85  8.4000000000000E-01  3.9817123814346E-01  1.3863081636716E+00 -3.8679042919542E-01
    86  8.5000000000000E-01  3.4477215510865E-01  1.4241486015844E+00 -3.8272172439547E-01
    87  8.6000000000000E-01  2.9189856562558E-01  1.4600845476381E+00 -3.7995524374137E-01
    88  8.7000000000000E-01  2.3971246515442E-01  1.4939113244843E+00 -3.7833742074031E-01
    89  8.8000000000000E-01  1.8837755294145E-01  1.5254223403156E+00 -3.7762429304152E-01
    90  8.9000000000000E-01  1.3805840700682E-01  1.5544110461306E+00 -3.7748471836758E-01
    91  9.0000000000000E-01  8.8919538471124E-02  1.5806730619984E+00 -3.7750573504543E-01
    92  9.1000000000000E-01  4.1124333264590E-02  1.6040084469056E+00 -3.7719999825492E-01
    93  9.2000000000000E-01 -5.1661078328771E-03  1.6242240829334E+00 -3.7601517823185E-01
    94  9.3000000000000E-01 -4.9794217103487E-02  1.6411361410664E+00 -3.7334516339329E-01
    95  9.4000000000000E-01 -9.2607279464905E-02  1.6545725929499E+00 -3.6854287058947E-01
    96  9.5000000000000E-01 -1.3345880509640E-01  1.6643757304657E+00 -3.6093442731408E-01
    97  9.6000000000000E-01 -1.7220993449892E-01  1.6704046531455E+00 -3.4983445751807E-01
    98  9.7000000000000E-01 -2.0873085371589E-01  1.6725376822398E+00 -3.3456217442402E-01
    99  9.8000000000000E-01 -2.4290219618706E-01  1.6706746597508E+00 -3.1445796106797E-01
   100  9.9000000000000E-01 -2.7461640688568E-01  1.6647390909552E+00 -2.8890010273708E-01
   101  1.0000000000000E+00 -3.0377904402867E-01  1.6546800898968E+00 -2.5732132547713E-01
   102  1.0100000000000E+00 -3.3030999376665E-01  1.6404740890336E+00 -2.1922479167986E-01
   103  1.0200000000000E+00 -3.5414457386480E-01  1.6221262766605E+00 -1.7419920761115E-01