Os    ONCVPSP-4.0.1  r_core=   1.50588   1.55160   1.55160   2.26180
     76.0000     16.0000      231019    zatom,zion,pspd
     8       2   3     4   600     0    pspcod,pspxc,lmax,lloc,mmax,r2well
  5.99000000  5.00000000  0.00000000    rchrg fchrg qchrg
     2     2     2     2     0    nproj
     1     1           extension_switch
   0                         8.1223244079121E+00 -1.0627778977552E+00
     1  0.0000000000000E+00 -7.6459116815641E-10 -8.8440993417649E-09
     2  1.0000000000000E-02  6.0659101744288E-02 -3.3722519597706E-02
     3  2.0000000000000E-02  1.2120003124647E-01 -6.7567397537211E-02
     4  3.0000000000000E-02  1.8150527583463E-01 -1.0165154619166E-01
     5  4.0000000000000E-02  2.4145863173007E-01 -1.3608110339976E-01
     6  5.0000000000000E-02  3.0094583307658E-01 -1.7094633638441E-01
     7  6.0000000000000E-02  3.5985515102757E-01 -2.0631688863924E-01
     8  7.0000000000000E-02  4.1807795382924E-01 -2.4223747348037E-01
     9  8.0000000000000E-02  4.7550921960278E-01 -2.7872410911607E-01
    10  9.0000000000000E-02  5.3204799445570E-01 -3.1576097935537E-01
    11  1.0000000000000E-01  5.8759778962453E-01 -3.5329799166332E-01
    12  1.1000000000000E-01  6.4206691254596E-01 -3.9124909041503E-01
    13  1.2000000000000E-01  6.9536872804936E-01 -4.2949136817101E-01
    14  1.3000000000000E-01  7.4742184723316E-01 -4.6786500188085E-01
    15  1.4000000000000E-01  7.9815024300509E-01 -5.0617402443115E-01
    16  1.5000000000000E-01  8.4748329270336E-01 -5.4418792520392E-01
    17  1.6000000000000E-01  8.9535574964377E-01 -5.8164405663070E-01
    18  1.7000000000000E-01  9.4170764682860E-01 -6.1825080743853E-01
    19  1.8000000000000E-01  9.8648413737878E-01 -6.5369148770514E-01
    20  1.9000000000000E-01  1.0296352774850E+00 -6.8762885627830E-01
    21  2.0000000000000E-01  1.0711157587908E+00 -7.1971020785325E-01
    22  2.1000000000000E-01  1.1108845981000E+00 -7.4957292530652E-01
    23  2.2000000000000E-01  1.1489047931181E+00 -7.7685039298736E-01
    24  2.3000000000000E-01  1.1851429535823E+00 -8.0117815876775E-01
    25  2.4000000000000E-01  1.2195689175863E+00 -8.2220022691286E-01
    26  2.5000000000000E-01  1.2521553631586E+00 -8.3957536037436E-01
    27  2.6000000000000E-01  1.2828774252012E+00 -8.5298327000897E-01
    28  2.7000000000000E-01  1.3117123277316E+00 -8.6213056951566E-01
    29  2.8000000000000E-01  1.3386390410046E+00 -8.6675637855331E-01
    30  2.9000000000000E-01  1.3636379725211E+00 -8.6663746248876E-01
    31  3.0000000000000E-01  1.3866907001727E+00 -8.6159280542725E-01
    32  3.1000000000000E-01  1.4077797548324E+00 -8.5148752344783E-01
    33  3.2000000000000E-01  1.4268884586114E+00 -8.3623603711538E-01
    34  3.3000000000000E-01  1.4440008237630E+00 -8.1580443614575E-01
    35  3.4000000000000E-01  1.4591015158681E+00 -7.9021198430017E-01
    36  3.5000000000000E-01  1.4721758834978E+00 -7.5953172889584E-01
    37  3.6000000000000E-01  1.4832100550482E+00 -7.2389019642779E-01
    38  3.7000000000000E-01  1.4921911019106E+00 -6.8346617337957E-01
    39  3.8000000000000E-01  1.4991072656060E+00 -6.3848858901374E-01
    40  3.9000000000000E-01  1.5039482450091E+00 -5.8923353444021E-01
    41  4.0000000000000E-01  1.5067055383402E+00 -5.3602046921117E-01
    42  4.1000000000000E-01  1.5073728332466E+00 -4.7920768276131E-01
    43  4.2000000000000E-01  1.5059464370557E+00 -4.1918709287539E-01
    44  4.3000000000000E-01  1.5024257381847E+00 -3.5637847672607E-01
    45  4.4000000000000E-01  1.4968136887605E+00 -2.9122324161379E-01
    46  4.5000000000000E-01  1.4891172977608E+00 -2.2417785211526E-01
    47  4.6000000000000E-01  1.4793481234494E+00 -1.5570703770747E-01
    48  4.7000000000000E-01  1.4675227535559E+00 -8.6276909917141E-02
    49  4.8000000000000E-01  1.4536632615585E+00 -1.6348120537365E-02
    50  4.9000000000000E-01  1.4377976275664E+00  5.3630807619676E-02
    51  5.0000000000000E-01  1.4199601126701E+00  1.2322984861907E-01
    52  5.1000000000000E-01  1.4001915762321E+00  1.9204341634328E-01
    53  5.2000000000000E-01  1.3785397264077E+00  2.5969576655447E-01
    54  5.3000000000000E-01  1.3550592952223E+00  3.2584575218978E-01
    55  5.4000000000000E-01  1.3298121307498E+00  3.9019083820686E-01
    56  5.5000000000000E-01  1.3028672003299E+00  4.5247029646043E-01
    57  5.6000000000000E-01  1.2743005003043E+00  5.1246751695160E-01
    58  5.7000000000000E-01  1.2441948694059E+00  5.7001138906187E-01
    59  5.8000000000000E-01  1.2126397046846E+00  6.2497672473428E-01
    60  5.9000000000000E-01  1.1797305806577E+00  6.7728371465199E-01
    61  6.0000000000000E-01  1.1455687741944E+00  7.2689642792256E-01
    62  6.1000000000000E-01  1.1102606994653E+00  7.7382038522921E-01
    63  6.2000000000000E-01  1.0739172590489E+00  8.1809925447496E-01
    64  6.3000000000000E-01  1.0366531189791E+00  8.5981073625066E-01
    65  6.4000000000000E-01  9.9858591708411E-01  8.9906172362913E-01
    66  6.5000000000000E-01  9.5983541539877E-01  9.3598283648321E-01
    67  6.6000000000000E-01  9.2052260867567E-01  9.7072244441610E-01
    68  6.7000000000000E-01  8.8076880207301E-01  1.0034403041863E+00
    69  6.8000000000000E-01  8.4069467191637E-01  1.0343009469498E+00
    70  6.9000000000000E-01  8.0041932401078E-01  1.0634669575157E+00
    71  7.0000000000000E-01  7.6005936429818E-01  1.0910922919459E+00
    72  7.1000000000000E-01  7.1972799670540E-01  1.1173157811188E+00
    73  7.2000000000000E-01  6.7953416280372E-01  1.1422549662390E+00
    74  7.3000000000000E-01  6.3958173740302E-01  1.1660004077275E+00
    75  7.4000000000000E-01  5.9996879343625E-01  1.1886106014878E+00
    76  7.5000000000000E-01  5.6078694846462E-01  1.2101076263452E+00
    77  7.6000000000000E-01  5.2212080386479E-01  1.2304736336356E+00
    78  7.7000000000000E-01  4.8404748626726E-01  1.2496482747006E+00
    79  7.8000000000000E-01  4.4663629912434E-01  1.2675271446787E+00
    80  7.9000000000000E-01  4.0994849042555E-01  1.2839613017815E+00
    81  8.0000000000000E-01  3.7403714057929E-01  1.2987579005397E+00
    82  8.1000000000000E-01  3.3894717237883E-01  1.3116819556882E+00
    83  8.2000000000000E-01  3.0471548280431E-01  1.3224592308203E+00
    84  8.3000000000000E-01  2.7137119422071E-01  1.3307802231169E+00
    85  8.4000000000000E-01  2.3893602035481E-01  1.3363051927691E+00
    86  8.5000000000000E-01  2.0742474031267E-01  1.3386701636053E+00
    87  8.6000000000000E-01  1.7684577187294E-01  1.3374938003398E+00
    88  8.7000000000000E-01  1.4720183340013E-01  1.3323850482002E+00
    89  8.8000000000000E-01  1.1849068200165E-01  1.3229514028576E+00
    90  8.9000000000000E-01  9.0705914038400E-02  1.3088076629573E+00
    91  9.0000000000000E-01  6.3837812820554E-02  1.2895850044527E+00
    92  9.1000000000000E-01  3.7874227306329E-02  1.2649402056780E+00
    93  9.2000000000000E-01  1.2801464892715E-02  1.2345648448950E+00
    94  9.3000000000000E-01 -1.1394819037911E-02  1.1981942881026E+00
    95  9.4000000000000E-01 -3.4728752261476E-02  1.1556162843363E+00
    96  9.5000000000000E-01 -5.7213414781148E-02  1.1066789885740E+00
    97  9.6000000000000E-01 -7.8860062523295E-02  1.0512982387041E+00
    98  9.7000000000000E-01 -9.9677421512495E-02  9.8946392275241E-01
    99  9.8000000000000E-01 -1.1967106722384E-01  9.2124528556081E-01
   100  9.9000000000000E-01 -1.3884290236824E-01  8.4679504019662E-01
   101  1.0000000000000E+00 -1.5719074465986E-01  7.6635216828355E-01
   102  1.0100000000000E+00 -1.7470803417086E-01  6.8024331488253E-01
   103  1.0200000000000E+00 -1.9138366773111E-01  5.8888270715329E-01
   104  1.0300000000000E+00 -2.0720196551359E-01  4.9277055141710E-01
   105  1.0400000000000E+00 -2.2214277250450E-01  3.9248988993573E-01
   106  1.0500000000000E+00 -2.3618169503041E-01  2.8870192628233E-01
   107  1.0600000000000E+00 -2.4929046994733E-01  1.8213985613253E-01
   108  1.0700000000000E+00 -2.6143746154125E-01  7.3601268060684E-02
   109  1.0800000000000E+00 -2.7258827868436E-01 -3.6060793907365E-02
   110  1.0900000000000E+00 -2.8270650238949E-01 -1.4594798826201E-01
   111  1.1000000000000E+00 -2.9175451165072E-01 -2.5512791245612E-01
   112  1.1100000000000E+00 -2.9969439338836E-01 -3.6264625353409E-01
   113  1.1200000000000E+00 -3.0648892048368E-01 -4.6753966903250E-01
   114  1.1300000000000E+00 -3.1210258031208E-01 -5.6884919746182E-01
   115  1.1400000000000E+00 -3.1650263491448E-01 -6.6563398430378E-01
   116  1.1500000000000E+00 -3.1966019299291E-01 -7.5698509956214E-01
   117  1.1600000000000E+00 -3.2155127331576E-01 -8.4203921689556E-01
   118  1.1700000000000E+00 -3.2215783887398E-01 -9.1999192228099E-01
   119  1.1800000000000E+00 -3.2146878125622E-01 -9.9011042214451E-01
   120  1.1900000000000E+00 -3.1948083521199E-01 -1.0517454270003E+00
   121  1.2000000000000E+00 -3.1619940423660E-01 -1.1043419967277E+00
   122  1.2100000000000E+00 -3.1163927923551E-01 -1.1474491476394E+00
   123  1.2200000000000E+00 -3.0582523389108E-01 -1.1807280392600E+00
   124  1.2300000000000E+00 -2.9879248222341E-01 -1.2039585798044E+00
   125  1.2400000000000E+00 -2.9058698601006E-01 -1.2170443137519E+00
   126  1.2500000000000E+00 -2.8126560213171E-01 -1.2200154817992E+00
   127  1.2600000000000E+00 -2.7089606253443E-01 -1.2130301727754E+00
   128  1.2700000000000E+00 -2.5955678229165E-01 -1.1963735182275E+00
   129  1.2800000000000E+00 -2.4733649414337E-01 -1.1704549125949E+00
   130  1.2900000000000E+00 -2.3433371086903E-01 -1.1358032750001E+00
   131  1.3000000000000E+00 -2.2065601984008E-01 -1.0930604018768E+00
   132  1.3100000000000E+00 -2.0641921704419E-01 -1.0429724923291E+00
   133  1.3200000000000E+00 -1.9174629073929E-01 -9.8637995988092E-01
   134  1.3300000000000E+00 -1.7676626762207E-01 -9.2420567446774E-01
   135  1.3400000000000E+00 -1.6161293692935E-01 -8.5744180655843E-01
   136  1.3500000000000E+00 -1.4642347018556E-01 -7.8713547067108E-01
   137  1.3600000000000E+00 -1.3133695634481E-01 -7.1437338803325E-01
   138  1.3700000000000E+00 -1.1649287377852E-01 -6.4026580693142E-01
   139  1.3800000000000E+00 -1.0202952192706E-01 -5.6592993437161E-01
   140  1.3900000000000E+00 -8.8082436423635E-02 -4.9247314356854E-01
   141  1.4000000000000E+00 -7.4782812102028E-02 -4.2097622839441E-01
   142  1.4100000000000E+00 -6.2255958452024E-02 -3.5247697728389E-01
   143  1.4200000000000E+00 -5.0619808172337E-02 -2.8795429061607E-01
   144  1.4300000000000E+00 -3.9983505964862E-02 -2.2831298260451E-01
   145  1.4400000000000E+00 -3.0443017047457E-02 -1.7431991257498E-01
   146  1.4500000000000E+00 -2.2083497740856E-02 -1.2665381942217E-01
   147  1.4600000000000E+00 -1.4983062622296E-02 -8.5968083405299E-02
   148  1.4700000000000E+00 -9.2062610296032E-03 -5.2784312428330E-02
   149  1.4800000000000E+00 -4.8039332141298E-03 -2.7491839280764E-02
   150  1.4900000000000E+00 -1.8059736090775E-03 -1.0304206235764E-02
   151  1.5000000000000E+00 -2.6834166682233E-04 -1.5245295117264E-03
   152  1.5100000000000E+00  2.7938074604486E-05  1.5824459454489E-04
   153  1.5200000000000E+00 -8.1784264265172E-06 -4.6413383858842E-05
   154  1.53  0.  0.
   155  1.54 -0.  0.
   156  1.55  0.  0.
   157  1.56  0.  0.
   158  1.57  0.  0.
   159  1.58  0.  0.
   160  1.59  0.  0.
   161  1.60  0.  0.
   162  1.61  0.  0.
   163  1.62  0.  0.
   164  1.63  0.  0.
   165  1.64  0.  0.
   166  1.65  0.  0.
   167  1.66  0.  0.
   168  1.67  0.  0.
   169  1.68  0.  0.
   170  1.69  0.  0.
   171  1.70  0.  0.
   172  1.71  0.  0.
   173  1.72  0.  0.
   174  1.73  0.  0.
   175  1.74  0.  0.
   176  1.75  0.  0.
   177  1.76  0.  0.
   178  1.77  0.  0.
   179  1.78  0.  0.
   180  1.79  0.  0.
   181  1.80  0.  0.
   182  1.81  0.  0.
   183  1.82  0.  0.
   184  1.83  0.  0.
   185  1.84  0.  0.
   186  1.85  0.  0.
   187  1.86  0.  0.
   188  1.87  0.  0.
   189  1.88  0.  0.
   190  1.89  0.  0.
   191  1.90  0.  0.
   192  1.91  0.  0.
   193  1.92  0.  0.
   194  1.93  0.  0.
   195  1.94  0.  0.
   196  1.95  0.  0.
   197  1.96  0.  0.
   198  1.97  0.  0.
   199  1.98  0.  0.
   200  1.99  0.  0.
   201  2.00  0.  0.
   202  2.01  0.  0.
   203  2.02  0.  0.
   204  2.03  0.  0.
   205  2.04  0.  0.
   206  2.05  0.  0.
   207  2.06  0.  0.
   208  2.07  0.  0.
   209  2.08  0.  0.
   210  2.09  0.  0.
   211  2.10  0.  0.
   212  2.11  0.  0.
   213  2.12  0.  0.
   214  2.13  0.  0.
   215  2.14  0.  0.
   216  2.15  0.  0.
   217  2.16  0.  0.
   218  2.17  0.  0.
   219  2.18  0.  0.
   220  2.19  0.  0.
   221  2.20  0.  0.
   222  2.21  0.  0.
   223  2.22  0.  0.
   224  2.23  0.  0.
   225  2.24  0.  0.
   226  2.25  0.  0.
   227  2.26  0.  0.
   228  2.27  0.  0.
   229  2.28  0.  0.
   230  2.29  0.  0.
   231  2.30  0.  0.
   232  2.31  0.  0.
   233  2.32  0.  0.
   234  2.33  0.  0.
   235  2.34  0.  0.
   236  2.35  0.  0.
   237  2.36  0.  0.
   238  2.37  0.  0.
   239  2.38  0.  0.
   240  2.39  0.  0.
   241  2.40  0.  0.
   242  2.41  0.  0.
   243  2.42  0.  0.
   244  2.43  0.  0.
   245  2.44  0.  0.
   246  2.45  0.  0.
   247  2.46  0.  0.
   248  2.47  0.  0.
   249  2.48  0.  0.
   250  2.49  0.  0.
   251  2.50  0.  0.
   252  2.51  0.  0.
   253  2.52  0.  0.
   254  2.53  0.  0.
   255  2.54  0.  0.
   256  2.55  0.  0.
   257  2.56  0.  0.
   258  2.57  0.  0.
   259  2.58  0.  0.
   260  2.59  0.  0.
   261  2.60  0.  0.
   262  2.61  0.  0.
   263  2.62  0.  0.
   264  2.63  0.  0.
   265  2.64  0.  0.
   266  2.65  0.  0.
   267  2.66  0.  0.
   268  2.67  0.  0.
   269  2.68  0.  0.
   270  2.69  0.  0.
   271  2.70  0.  0.
   272  2.71  0.  0.
   273  2.72  0.  0.
   274  2.73  0.  0.
   275  2.74  0.  0.
   276  2.75  0.  0.
   277  2.76  0.  0.
   278  2.77  0.  0.
   279  2.78  0.  0.
   280  2.79  0.  0.
   281  2.80  0.  0.
   282  2.81  0.  0.
   283  2.82  0.  0.
   284  2.83  0.  0.
   285  2.84  0.  0.
   286  2.85  0.  0.
   287  2.86  0.  0.
   288  2.87  0.  0.
   289  2.88  0.  0.
   290  2.89  0.  0.
   291  2.90  0.  0.
   292  2.91  0.  0.
   293  2.92  0.  0.
   294  2.93  0.  0.
   295  2.94  0.  0.
   296  2.95  0.  0.
   297  2.96  0.  0.
   298  2.97  0.  0.
   299  2.98  0.  0.
   300  2.99  0.  0.
   301  3.00  0.  0.
   302  3.01  0.  0.
   303  3.02  0.  0.
   304  3.03  0.  0.
   305  3.04  0.  0.
   306  3.05  0.  0.
   307  3.06  0.  0.
   308  3.07  0.  0.
   309  3.08  0.  0.
   310  3.09  0.  0.
   311  3.10  0.  0.
   312  3.11  0.  0.
   313  3.12  0.  0.
   314  3.13  0.  0.
   315  3.14  0.  0.
   316  3.15  0.  0.
   317  3.16  0.  0.
   318  3.17  0.  0.
   319  3.18  0.  0.
   320  3.19  0.  0.
   321  3.20  0.  0.
   322  3.21  0.  0.
   323  3.22  0.  0.
   324  3.23  0.  0.
   325  3.24  0.  0.
   326  3.25  0.  0.
   327  3.26  0.  0.
   328  3.27  0.  0.
   329  3.28  0.  0.
   330  3.29  0.  0.
   331  3.30  0.  0.
   332  3.31  0.  0.
   333  3.32  0.  0.
   334  3.33  0.  0.
   335  3.34  0.  0.
   336  3.35  0.  0.
   337  3.36  0.  0.
   338  3.37  0.  0.
   339  3.38  0.  0.
   340  3.39  0.  0.
   341  3.40  0.  0.
   342  3.41  0.  0.
   343  3.42  0.  0.
   344  3.43  0.  0.
   345  3.44  0.  0.
   346  3.45  0.  0.
   347  3.46  0.  0.
   348  3.47  0.  0.
   349  3.48  0.  0.
   350  3.49  0.  0.
   351  3.50  0.  0.
   352  3.51  0.  0.
   353  3.52  0.  0.
   354  3.53  0.  0.
   355  3.54  0.  0.
   356  3.55  0.  0.
   357  3.56  0.  0.
   358  3.57  0.  0.
   359  3.58  0.  0.
   360  3.59  0.  0.
   361  3.60  0.  0.
   362  3.61  0.  0.
   363  3.62  0.  0.
   364  3.63  0.  0.
   365  3.64  0.  0.
   366  3.65  0.  0.
   367  3.66  0.  0.
   368  3.67  0.  0.
   369  3.68  0.  0.
   370  3.69  0.  0.
   371  3.70  0.  0.
   372  3.71  0.  0.
   373  3.72  0.  0.
   374  3.73  0.  0.
   375  3.74  0.  0.
   376  3.75  0.  0.
   377  3.76  0.  0.
   378  3.77  0.  0.
   379  3.78  0.  0.
   380  3.79  0.  0.
   381  3.80  0.  0.
   382  3.81  0.  0.
   383  3.82  0.  0.
   384  3.83  0.  0.
   385  3.84  0.  0.
   386  3.85  0.  0.
   387  3.86  0.  0.
   388  3.87  0.  0.
   389  3.88  0.  0.
   390  3.89  0.  0.
   391  3.90  0.  0.
   392  3.91  0.  0.
   393  3.92  0.  0.
   394  3.93  0.  0.
   395  3.94  0.  0.
   396  3.95  0.  0.
   397  3.96  0.  0.
   398  3.97  0.  0.
   399  3.98  0.  0.
   400  3.99  0.  0.
   401  4.00  0.  0.
   402  4.01  0.  0.
   403  4.02  0.  0.
   404  4.03  0.  0.
   405  4.04  0.  0.
   406  4.05  0.  0.
   407  4.06  0.  0.
   408  4.07  0.  0.
   409  4.08  0.  0.
   410  4.09  0.  0.
   411  4.10  0.  0.
   412  4.11  0.  0.
   413  4.12  0.  0.
   414  4.13  0.  0.
   415  4.14  0.  0.
   416  4.15  0.  0.
   417  4.16  0.  0.
   418  4.17  0.  0.
   419  4.18  0.  0.
   420  4.19  0.  0.
   421  4.20  0.  0.
   422  4.21  0.  0.
   423  4.22  0.  0.
   424  4.23  0.  0.
   425  4.24  0.  0.
   426  4.25  0.  0.
   427  4.26  0.  0.
   428  4.27  0.  0.
   429  4.28  0.  0.
   430  4.29  0.  0.
   431  4.30  0.  0.
   432  4.31  0.  0.
   433  4.32  0.  0.
   434  4.33  0.  0.
   435  4.34  0.  0.
   436  4.35  0.  0.
   437  4.36  0.  0.
   438  4.37  0.  0.
   439  4.38  0.  0.
   440  4.39  0.  0.
   441  4.40  0.  0.
   442  4.41  0.  0.
   443  4.42  0.  0.
   444  4.43  0.  0.
   445  4.44  0.  0.
   446  4.45  0.  0.
   447  4.46  0.  0.
   448  4.47  0.  0.
   449  4.48  0.  0.
   450  4.49  0.  0.
   451  4.50  0.  0.
   452  4.51  0.  0.
   453  4.52  0.  0.
   454  4.53  0.  0.
   455  4.54  0.  0.
   456  4.55  0.  0.
   457  4.56  0.  0.
   458  4.57  0.  0.
   459  4.58  0.  0.
   460  4.59  0.  0.
   461  4.60  0.  0.
   462  4.61  0.  0.
   463  4.62  0.  0.
   464  4.63  0.  0.
   465  4.64  0.  0.
   466  4.65  0.  0.
   467  4.66  0.  0.
   468  4.67  0.  0.
   469  4.68  0.  0.
   470  4.69  0.  0.
   471  4.70  0.  0.
   472  4.71  0.  0.
   473  4.72  0.  0.
   474  4.73  0.  0.
   475  4.74  0.  0.
   476  4.75  0.  0.
   477  4.76  0.  0.
   478  4.77  0.  0.
   479  4.78  0.  0.
   480  4.79  0.  0.
   481  4.80  0.  0.
   482  4.81  0.  0.
   483  4.82  0.  0.
   484  4.83  0.  0.
   485  4.84  0.  0.
   486  4.85  0.  0.
   487  4.86  0.  0.
   488  4.87  0.  0.
   489  4.88  0.  0.
   490  4.89  0.  0.
   491  4.90  0.  0.
   492  4.91  0.  0.
   493  4.92  0.  0.
   494  4.93  0.  0.
   495  4.94  0.  0.
   496  4.95  0.  0.
   497  4.96  0.  0.
   498  4.97  0.  0.
   499  4.98  0.  0.
   500  4.99  0.  0.
   501  5.00  0.  0.
   502  5.01  0.  0.
   503  5.02  0.  0.
   504  5.03  0.  0.
   505  5.04  0.  0.
   506  5.05  0.  0.
   507  5.06  0.  0.
   508  5.07  0.  0.
   509  5.08  0.  0.
   510  5.09  0.  0.
   511  5.10  0.  0.
   512  5.11  0.  0.
   513  5.12  0.  0.
   514  5.13  0.  0.
   515  5.14  0.  0.
   516  5.15  0.  0.
   517  5.16  0.  0.
   518  5.17  0.  0.
   519  5.18  0.  0.
   520  5.19  0.  0.
   521  5.20  0.  0.
   522  5.21  0.  0.
   523  5.22  0.  0.
   524  5.23  0.  0.
   525  5.24  0.  0.
   526  5.25  0.  0.
   527  5.26  0.  0.
   528  5.27  0.  0.
   529  5.28  0.  0.
   530  5.29  0.  0.
   531  5.30  0.  0.
   532  5.31  0.  0.
   533  5.32  0.  0.
   534  5.33  0.  0.
   535  5.34  0.  0.
   536  5.35  0.  0.
   537  5.36  0.  0.
   538  5.37  0.  0.
   539  5.38  0.  0.
   540  5.39  0.  0.
   541  5.40  0.  0.
   542  5.41  0.  0.
   543  5.42  0.  0.
   544  5.43  0.  0.
   545  5.44  0.  0.
   546  5.45  0.  0.
   547  5.46  0.  0.
   548  5.47  0.  0.
   549  5.48  0.  0.
   550  5.49  0.  0.
   551  5.50  0.  0.
   552  5.51  0.  0.
   553  5.52  0.  0.
   554  5.53  0.  0.
   555  5.54  0.  0.
   556  5.55  0.  0.
   557  5.56  0.  0.
   558  5.57  0.  0.
   559  5.58  0.  0.
   560  5.59  0.  0.
   561  5.60  0.  0.
   562  5.61  0.  0.
   563  5.62  0.  0.
   564  5.63  0.  0.
   565  5.64  0.  0.
   566  5.65  0.  0.
   567  5.66  0.  0.
   568  5.67  0.  0.
   569  5.68  0.  0.
   570  5.69  0.  0.
   571  5.70  0.  0.
   572  5.71  0.  0.
   573  5.72  0.  0.
   574  5.73  0.  0.
   575  5.74  0.  0.
   576  5.75  0.  0.
   577  5.76  0.  0.
   578  5.77  0.  0.
   579  5.78  0.  0.
   580  5.79  0.  0.
   581  5.80  0.  0.
   582  5.81  0.  0.
   583  5.82  0.  0.
   584  5.83  0.  0.
   585  5.84  0.  0.
   586  5.85  0.  0.
   587  5.86  0.  0.
   588  5.87  0.  0.
   589  5.88  0.  0.
   590  5.89  0.  0.
   591  5.90  0.  0.
   592  5.91  0.  0.
   593  5.92  0.  0.
   594  5.93  0.  0.
   595  5.94  0.  0.
   596  5.95  0.  0.
   597  5.96  0.  0.
   598  5.97  0.  0.
   599  5.98  0.  0.
   600  5.99  0.  0.
   1                         7.5048197159307E+00  9.9789638256401E-01
     1  0.0000000000000E+00 -4.1562358971126E-09  9.8979157266144E-09
     2  1.0000000000000E-02  1.4576163861753E-03 -2.5759906415179E-04
     3  2.0000000000000E-02  5.8286836346554E-03 -1.0359770232255E-03
     4  3.0000000000000E-02  1.3107766648654E-02 -2.3516397278292E-03
     5  4.0000000000000E-02  2.3285511567840E-02 -4.2313147735121E-03
     6  5.0000000000000E-02  3.6348211494416E-02 -6.7107991640029E-03
     7  6.0000000000000E-02  5.2277215854006E-02 -9.8333873445827E-03
     8  7.0000000000000E-02  7.1048200263005E-02 -1.3647919784618E-02
     9  8.0000000000000E-02  9.2630317930314E-02 -1.8206502186196E-02
    10  9.0000000000000E-02  1.1698525729900E-01 -2.3561954154368E-02
    11  1.0000000000000E-01  1.4406623374788E-01 -2.9765053582867E-02
    12  1.1000000000000E-01  1.7381694565053E-01 -3.6861648912466E-02
    13  1.2000000000000E-01  2.0617052687133E-01 -4.4889715668931E-02
    14  1.3000000000000E-01  2.4104852881988E-01 -5.3876436178409E-02
    15  1.4000000000000E-01  2.7835996545845E-01 -6.3835382024500E-02
    16  1.5000000000000E-01  3.1800045415041E-01 -7.4763877627230E-02
    17  1.6000000000000E-01  3.5985148395559E-01 -8.6640620303546E-02
    18  1.7000000000000E-01  4.0377984094378E-01 -9.9423627366779E-02
    19  1.8000000000000E-01  4.4963721734835E-01 -1.1304857433338E-01
    20  1.9000000000000E-01  4.9726002797298E-01 -1.2742758025992E-01
    21  2.0000000000000E-01  5.4646945326371E-01 -1.4244848679947E-01
    22  2.1000000000000E-01  5.9707172394990E-01 -1.5797466694176E-01
    23  2.2000000000000E-01  6.4885865723295E-01 -1.7384538781139E-01
    24  2.3000000000000E-01  7.0160844926626E-01 -1.8987673959240E-01
    25  2.4000000000000E-01  7.5508672323366E-01 -2.0586312989033E-01
    26  2.5000000000000E-01  8.0904782681271E-01 -2.2157932991356E-01
    27  2.6000000000000E-01  8.6323636732400E-01 -2.3678304603868E-01
    28  2.7000000000000E-01  9.1738896753559E-01 -2.5121797790309E-01
    29  2.8000000000000E-01  9.7123622003120E-01 -2.6461731242202E-01
    30  2.9000000000000E-01  1.0245048133737E+00 -2.7670759232139E-01
    31  3.0000000000000E-01  1.0769197991066E+00 -2.8721288816243E-01
    32  3.1000000000000E-01  1.1282069650325E+00 -2.9585919463315E-01
    33  3.2000000000000E-01  1.1780952772696E+00 -3.0237896529344E-01
    34  3.3000000000000E-01  1.2263193513944E+00 -3.0651569514807E-01
    35  3.4000000000000E-01  1.2726219115710E+00 -3.0802845751481E-01
    36  3.5000000000000E-01  1.3167561960063E+00 -3.0669630073908E-01
    37  3.6000000000000E-01  1.3584882673529E+00 -3.0232241143059E-01
    38  3.7000000000000E-01  1.3975991878356E+00 -2.9473795406297E-01
    39  3.8000000000000E-01  1.4338870208703E+00 -2.8380550194386E-01
    40  3.9000000000000E-01  1.4671686237548E+00 -2.6942198164634E-01
    41  4.0000000000000E-01  1.4972811995870E+00 -2.5152106186705E-01
    42  4.1000000000000E-01  1.5240835808387E+00 -2.3007492817422E-01
    43  4.2000000000000E-01  1.5474572219032E+00 -2.0509539702933E-01
    44  4.3000000000000E-01  1.5673068833489E+00 -1.7663433557104E-01
    45  4.4000000000000E-01  1.5835609964315E+00 -1.4478336767733E-01
    46  4.5000000000000E-01  1.5961717025448E+00 -1.0967286148248E-01
    47  4.6000000000000E-01  1.6051145685744E+00 -7.1470208516064E-02
    48  4.7000000000000E-01  1.6103879854594E+00 -3.0377419636028E-02
    49  4.8000000000000E-01  1.6120122635006E+00  1.3371922374072E-02
    50  4.9000000000000E-01  1.6100284439777E+00  5.9516299598340E-02
    51  5.0000000000000E-01  1.6044968522985E+00  1.0777041808595E-01
    52  5.1000000000000E-01  1.5954954230966E+00  1.5782981025090E-01
    53  5.2000000000000E-01  1.5831178322930E+00  2.0937579115575E-01
    54  5.3000000000000E-01  1.5674714750471E+00  2.6208067058556E-01
    55  5.4000000000000E-01  1.5486753316471E+00  3.1561311609619E-01
    56  5.5000000000000E-01  1.5268577656606E+00  3.6964355762280E-01
    57  5.6000000000000E-01  1.5021543000198E+00  4.2384952189079E-01
    58  5.7000000000000E-01  1.4747054171194E+00  4.7792078486689E-01
    59  5.8000000000000E-01  1.4446544284340E+00  5.3156423285748E-01
    60  5.9000000000000E-01  1.4121454576203E+00  5.8450832759321E-01
    61  6.0000000000000E-01  1.3773215785779E+00  6.3650707766876E-01
    62  6.1000000000000E-01  1.3403231465415E+00  6.8734342792291E-01
    63  6.2000000000000E-01  1.3012863560303E+00  7.3683198958628E-01
    64  6.3000000000000E-01  1.2603420544629E+00  7.8482104708750E-01
    65  6.4000000000000E-01  1.2176148345615E+00  8.3119379204785E-01
    66  6.5000000000000E-01  1.1732224224225E+00  8.7586875092418E-01
    67  6.6000000000000E-01  1.1272753714506E+00  9.1879938966919E-01
    68  6.7000000000000E-01  1.0798770653825E+00  9.5997289632346E-01
    69  6.8000000000000E-01  1.0311240264915E+00  9.9940816027956E-01
    70  6.9000000000000E-01  9.8110651793939E-01  1.0371529846930E+00
    71  7.0000000000000E-01  9.2990942225401E-01  1.0732805857851E+00
    72  7.1000000000000E-01  8.7761337123072E-01  1.1078854492167E+00
    73  7.2000000000000E-01  8.2429609631666E-01  1.1410786289552E+00
    74  7.3000000000000E-01  7.7003396288519E-01  1.1729825877591E+00
    75  7.4000000000000E-01  7.1490364686986E-01  1.2037256902704E+00
    76  7.5000000000000E-01  6.5898390812063E-01  1.2334364694282E+00
    77  7.6000000000000E-01  6.0235741166953E-01  1.2622377942852E+00
    78  7.7000000000000E-01  5.4511254593124E-01  1.2902410720993E+00
    79  7.8000000000000E-01  4.8734518577991E-01  1.3175406196621E+00
    80  7.9000000000000E-01  4.2916034847698E-01  1.3442083381005E+00
    81  8.0000000000000E-01  3.7067369159520E-01  1.3702888218337E+00
    82  8.1000000000000E-01  3.1201280438702E-01  1.3957950259807E+00
    83  8.2000000000000E-01  2.5331824745242E-01  1.4207046073996E+00
    84  8.3000000000000E-01  1.9474430002041E-01  1.4449570428158E+00
    85  8.4000000000000E-01  1.3645937959613E-01  1.4684516133637E+00
    86  8.5000000000000E-01  7.8646105045465E-02  1.4910463285748E+00
    87  8.6000000000000E-01  2.1500981276559E-02  1.5125578446808E+00
    88  8.7000000000000E-01 -3.4766308601782E-02  1.5327624124027E+00
    89  8.8000000000000E-01 -8.9934009557857E-02  1.5513978685474E+00
    90  8.9000000000000E-01 -1.4376979673350E-01  1.5681666641220E+00
    91  9.0000000000000E-01 -1.9603266205640E-01  1.5827398997478E+00
    92  9.1000000000000E-01 -2.4647516540295E-01  1.5947623173318E+00
    93  9.2000000000000E-01 -2.9484602188372E-01  1.6038581756937E+00
    94  9.3000000000000E-01 -3.4089298874157E-01  1.6096379175890E+00
    95  9.4000000000000E-01 -3.8436600781984E-01  1.6117055167331E+00
    96  9.5000000000000E-01 -4.2502055274395E-01  1.6096663764427E+00
    97  9.6000000000000E-01 -4.6262112401414E-01  1.6031356367301E+00
    98  9.7000000000000E-01 -4.9694483026899E-01  1.5917467344601E+00
    99  9.8000000000000E-01 -5.2778499016890E-01  1.5751600518053E+00
   100  9.9000000000000E-01 -5.5495468676386E-01  1.5530714819393E+00
   101  1.0000000000000E+00 -5.7829020492858E-01  1.5252207378958E+00
   102  1.0100000000000E+00 -5.9765428251989E-01  1.4913992308953E+00
   103  1.0200000000000E+00 -6.1293910736082E-01  1.4514573482614E+00
   104  1.0300000000000E+00 -6.2406899498405E-01  1.4053109683153E+00
   105  1.0400000000000E+00 -6.3100268623988E-01  1.3529470602507E+00
   106  1.0500000000000E+00 -6.3373520933374E-01  1.2944282308084E+00
   107  1.0600000000000E+00 -6.3229925753259E-01  1.2298960964019E+00
   108  1.0700000000000E+00 -6.2676604153512E-01  1.1595733788567E+00
   109  1.0800000000000E+00 -6.1724558423609E-01  1.0837646448529E+00
   110  1.0900000000000E+00 -6.0388643515352E-01  1.0028556330721E+00
   111  1.1000000000000E+00 -5.8687479195503E-01  9.1731113848704E-01
   112  1.1100000000000E+00 -5.6643302716950E-01  8.2767144985329E-01
   113  1.1200000000000E+00 -5.4281762901940E-01  7.3454736353533E-01
   114  1.1300000000000E+00 -5.1631657627640E-01  6.3861382413745E-01
   115  1.1400000000000E+00 -4.8724617775828E-01  5.4060226908173E-01
   116  1.1500000000000E+00 -4.5594741752140E-01  4.4129178021659E-01
   117  1.1600000000000E+00 -4.2278185655657E-01  3.4149916974504E-01
   118  1.1700000000000E+00 -3.8812715087040E-01  2.4206815023901E-01
   119  1.1800000000000E+00 -3.5237225385175E-01  1.4385775832227E-01
   120  1.1900000000000E+00 -3.1591237778330E-01  4.7730218753598E-02
   121  1.2000000000000E+00 -2.7914379498034E-01 -4.5461550566511E-02
   122  1.2100000000000E+00 -2.4245856328418E-01 -1.3488658180472E-01
   123  1.2200000000000E+00 -2.0623926335859E-01 -2.1974843123887E-01
   124  1.2300000000000E+00 -1.7085383638032E-01 -2.9929746418006E-01
   125  1.2400000000000E+00 -1.3665061022687E-01 -3.7284263231854E-01
   126  1.2500000000000E+00 -1.0395360014363E-01 -4.3976253061035E-01
   127  1.2600000000000E+00 -7.3058166132990E-02 -4.9951553043164E-01
   128  1.2700000000000E+00 -4.4227103977125E-02 -5.5164879929850E-01
   129  1.2800000000000E+00 -1.7687240027635E-02 -5.9580603461996E-01
   130  1.2900000000000E+00  6.3734083006132E-03 -6.3173375964368E-01
   131  1.3000000000000E+00  2.7807853827262E-02 -6.5928605351315E-01
   132  1.3100000000000E+00  4.6511700672955E-02 -6.7842761370787E-01
   133  1.3200000000000E+00  6.2424014472668E-02 -6.8923507776112E-01
   134  1.3300000000000E+00  7.5527483217255E-02 -6.9189656149911E-01