Al    ONCVPSP-4.0.1  r_core=   1.75068   1.75068   1.70928
     13.0000      3.0000      231019    zatom,zion,pspd
     8       2   2     4   600     0    pspcod,pspxc,lmax,lloc,mmax,r2well
  5.99000000  5.00000000  0.00000000    rchrg fchrg qchrg
     2     2     2     0     0    nproj
     1     1           extension_switch
   0                        -4.3594203337947E+00  2.3388805481452E+00
     1  0.0000000000000E+00 -5.9652435768776E-09  2.1360693144845E-09
     2  1.0000000000000E-02  5.3173278768337E-02  1.1516091313918E-03
     3  2.0000000000000E-02  1.0608617646507E-01  2.4039755046331E-03
     4  3.0000000000000E-02  1.5848264656414E-01  3.8562046560242E-03
     5  4.0000000000000E-02  2.1011522858611E-01  5.6041291020351E-03
     6  5.0000000000000E-02  2.6074913507334E-01  7.7387472483579E-03
     7  6.0000000000000E-02  3.1016609565426E-01  1.0344751246175E-02
     8  7.0000000000000E-02  3.5816788438525E-01  1.3499170882429E-02
     9  8.0000000000000E-02  4.0457946252419E-01  1.7270158454811E-02
    10  9.0000000000000E-02  4.4925167613659E-01  2.1715936985831E-02
    11  1.0000000000000E-01  4.9206345633020E-01  2.6883931121193E-02
    12  1.1000000000000E-01  5.3292347930043E-01  3.2810096690388E-02
    13  1.2000000000000E-01  5.7177125357426E-01  3.9518461243408E-02
    14  1.3000000000000E-01  6.0857761267378E-01  4.7020883983548E-02
    15  1.4000000000000E-01  6.4334460268219E-01  5.5317039463544E-02
    16  1.5000000000000E-01  6.7610476567579E-01  6.4394625274485E-02
    17  1.6000000000000E-01  7.0691983146990E-01  7.4229789810206E-02
    18  1.7000000000000E-01  7.3587884140357E-01  8.4787772109401E-02
    19  1.8000000000000E-01  7.6309573874418E-01  9.6023741838933E-02
    20  1.9000000000000E-01  7.8870647052727E-01  1.0788382375641E-01
    21  2.0000000000000E-01  8.1286565506637E-01  1.2030628754702E-01
    22  2.1000000000000E-01  8.3574287779497E-01  1.3322288083204E-01
    23  2.2000000000000E-01  8.5751868537971E-01  1.4656028045155E-01
    24  2.3000000000000E-01  8.7838035402931E-01  1.6024163488220E-01
    25  2.4000000000000E-01  8.9851751250718E-01  1.7418816890329E-01
    26  2.5000000000000E-01  9.1811770344241E-01  1.8832082040537E-01
    27  2.6000000000000E-01  9.3736196806730E-01  2.0256187856644E-01
    28  2.7000000000000E-01  9.5642053945185E-01  2.1683659251718E-01
    29  2.8000000000000E-01  9.7544872765675E-01  2.3107472008003E-01
    30  2.9000000000000E-01  9.9458307700762E-01  2.4521198719086E-01
    31  3.0000000000000E-01  1.0139378709635E+00  2.5919143017921E-01
    32  3.1000000000000E-01  1.0336020538893E+00  2.7296459516594E-01
    33  3.2000000000000E-01  1.0536366315598E+00  2.8649257139923E-01
    34  3.3000000000000E-01  1.0740726035501E+00  2.9974683834531E-01
    35  3.4000000000000E-01  1.0949094709654E+00  3.1270990972604E-01
    36  3.5000000000000E-01  1.1161143524062E+00  3.2537576139040E-01
    37  3.6000000000000E-01  1.1376217298408E+00  3.3775003385471E-01
    38  3.7000000000000E-01  1.1593338343816E+00  3.4985000447595E-01
    39  3.8000000000000E-01  1.1811216700380E+00  3.6170432845846E-01
    40  3.9000000000000E-01  1.2028266615731E+00  3.7335255215998E-01
    41  4.0000000000000E-01  1.2242629008456E+00  3.8484440638078E-01
    42  4.1000000000000E-01  1.2452199546868E+00  3.9623889141188E-01
    43  4.2000000000000E-01  1.2654661866585E+00  4.0760316951060E-01
    44  4.3000000000000E-01  1.2847525351670E+00  4.1901128409188E-01
    45  4.4000000000000E-01  1.3028166815468E+00  4.3054272820522E-01
    46  4.5000000000000E-01  1.3193875340572E+00  4.4228088774838E-01
    47  4.6000000000000E-01  1.3341899473920E+00  4.5431138729704E-01
    48  4.7000000000000E-01  1.3469495924162E+00  4.6672036835721E-01
    49  4.8000000000000E-01  1.3573978875146E+00  4.7959273123912E-01
    50  4.9000000000000E-01  1.3652769012229E+00  4.9301037257890E-01
    51  5.0000000000000E-01  1.3703441357707E+00  5.0705045078079E-01
    52  5.1000000000000E-01  1.3723771027860E+00  5.2178371131241E-01
    53  5.2000000000000E-01  1.3711776056893E+00  5.3727290286059E-01
    54  5.3000000000000E-01  1.3665756481807E+00  5.5357131386247E-01
    55  5.4000000000000E-01  1.3584328946119E+00  5.7072145688913E-01
    56  5.5000000000000E-01  1.3466456158381E+00  5.8875392581359E-01
    57  5.6000000000000E-01  1.3311470632124E+00  6.0768644768417E-01
    58  5.7000000000000E-01  1.3119092235671E+00  6.2752314780317E-01
    59  5.8000000000000E-01  1.2889439191345E+00  6.4825404273801E-01
    60  5.9000000000000E-01  1.2623032282004E+00  6.6985477193682E-01
    61  6.0000000000000E-01  1.2320792146342E+00  6.9228657435371E-01
    62  6.1000000000000E-01  1.1984029670817E+00  7.1549651208911E-01
    63  6.2000000000000E-01  1.1614429613112E+00  7.3941793859591E-01
    64  6.3000000000000E-01  1.1214027717218E+00  7.6397120457445E-01
    65  6.4000000000000E-01  1.0785181701463E+00  7.8906459035852E-01
    66  6.5000000000000E-01  1.0330536615600E+00  8.1459544945997E-01
    67  6.6000000000000E-01  9.8529851694288E-01  8.4045154406786E-01
    68  6.7000000000000E-01  9.3556237312645E-01  8.6651254975879E-01
    69  6.8000000000000E-01  8.8417047780837E-01  8.9265170353648E-01
    70  6.9000000000000E-01  8.3145866487338E-01  9.1873756663765E-01
    71  7.0000000000000E-01  7.7776815058652E-01  9.4463587136850E-01
    72  7.1000000000000E-01  7.2344024500841E-01  9.7021141961495E-01
    73  7.2000000000000E-01  6.6881107504929E-01  9.9532999962873E-01
    74  7.3000000000000E-01  6.1420641587246E-01  1.0198602872559E+00
    75  7.4000000000000E-01  5.5993672587164E-01  1.0436756979498E+00
    76  7.5000000000000E-01  5.0629247718516E-01  1.0666561567017E+00
    77  7.6000000000000E-01  4.5353986873396E-01  1.0886897544114E+00
    78  7.7000000000000E-01  4.0191700215011E-01  1.1096742611898E+00
    79  7.8000000000000E-01  3.5163059281731E-01  1.1295184695975E+00
    80  7.9000000000000E-01  3.0285327870905E-01  1.1481433438384E+00
    81  8.0000000000000E-01  2.5572157895491E-01  1.1654829543878E+00
    82  8.1000000000000E-01  2.1033454227631E-01  1.1814851813838E+00
    83  8.2000000000000E-01  1.6675311282606E-01  1.1961121742779E+00
    84  8.3000000000000E-01  1.2500022776007E-01  1.2093405596486E+00
    85  8.4000000000000E-01  8.5061647311827E-02  1.2211613936586E+00
    86  8.5000000000000E-01  4.6887504472673E-02  1.2315798602892E+00
    87  8.6000000000000E-01  1.0394547854407E-02  1.2406147211388E+00
    88  8.7000000000000E-01 -2.4530961819888E-02  1.2482975271359E+00
    89  8.8000000000000E-01 -5.8029753649096E-02  1.2546716069081E+00
    90  8.9000000000000E-01 -9.0265510587359E-02  1.2597908506898E+00
    91  9.0000000000000E-01 -1.2142036978785E-01  1.2637183124581E+00
    92  9.1000000000000E-01 -1.5169004270824E-01  1.2665246563989E+00
    93  9.2000000000000E-01 -1.8127864619956E-01  1.2682864767485E+00
    94  9.3000000000000E-01 -2.1039334194339E-01  1.2690845224813E+00
    95  9.4000000000000E-01 -2.3923888599646E-01  1.2690018601736E+00
    96  9.5000000000000E-01 -2.6801219275219E-01  1.2681220096273E+00
    97  9.6000000000000E-01 -2.9689701827317E-01  1.2665270874645E+00
    98  9.7000000000000E-01 -3.2605886666456E-01  1.2642959938877E+00
    99  9.8000000000000E-01 -3.5564021994915E-01  1.2615026771373E+00
   100  9.9000000000000E-01 -3.8575618682163E-01  1.2582145088799E+00
   101  1.0000000000000E+00 -4.1649065877017E-01  1.2544908018454E+00
   102  1.0100000000000E+00 -4.4789305348744E-01  1.2503814985339E+00
   103  1.0200000000000E+00 -4.7997571537035E-01  1.2459260567729E+00
   104  1.0300000000000E+00 -5.1271203141857E-01  1.2411525543773E+00
   105  1.0400000000000E+00 -5.4603530818988E-01  1.2360770312138E+00
   106  1.0500000000000E+00 -5.7983844184616E-01  1.2307030826592E+00
   107  1.0600000000000E+00 -6.1397439900452E-01  1.2250217138531E+00
   108  1.0700000000000E+00 -6.4825751133866E-01  1.2190114593634E+00
   109  1.0800000000000E+00 -6.8246557188385E-01  1.2126387679811E+00
   110  1.0900000000000E+00 -7.1634270613406E-01  1.2058586474460E+00
   111  1.1000000000000E+00 -7.4960297645803E-01  1.1986155590507E+00
   112  1.1100000000000E+00 -7.8193466445049E-01  1.1908445473751E+00
   113  1.1200000000000E+00 -8.1300516278167E-01  1.1824725859491E+00
   114  1.1300000000000E+00 -8.4246639616979E-01  1.1734201155085E+00
   115  1.1400000000000E+00 -8.6996068051976E-01  1.1636027477816E+00
   116  1.1500000000000E+00 -8.9512692020868E-01  1.1529331044804E+00
   117  1.1600000000000E+00 -9.1760703617767E-01  1.1413227584429E+00
   118  1.1700000000000E+00 -9.3705251201391E-01  1.1286842417269E+00
   119  1.1800000000000E+00 -9.5313094171603E-01  1.1149330839326E+00
   120  1.1900000000000E+00 -9.6553246139426E-01  1.0999898431685E+00
   121  1.2000000000000E+00 -9.7397594781822E-01  1.0837820918824E+00
   122  1.2100000000000E+00 -9.7821486946196E-01  1.0662463202667E+00
   123  1.2200000000000E+00 -9.7804268054123E-01  1.0473297211157E+00
   124  1.2300000000000E+00 -9.7329765531964E-01  1.0269918218301E+00
   125  1.2400000000000E+00 -9.6386706867433E-01  1.0052059317127E+00
   126  1.2500000000000E+00 -9.4969063937100E-01  9.8196037574237E-01
   127  1.2600000000000E+00 -9.3076316445500E-01  9.5725948956390E-01
   128  1.2700000000000E+00 -9.0713628660920E-01  9.3112435449059E-01
   129  1.2800000000000E+00 -8.7891935082314E-01  9.0359325575314E-01
   130  1.2900000000000E+00 -8.4627932207842E-01  8.7472185197696E-01
   131  1.3000000000000E+00 -8.0943975185621E-01  8.4458304889878E-01
   132  1.3100000000000E+00 -7.6867879759966E-01  8.1326657547491E-01
   133  1.3200000000000E+00 -7.2432631564444E-01  7.8087826573401E-01
   134  1.3300000000000E+00 -6.7676006437422E-01  7.4753905492514E-01
   135  1.3400000000000E+00 -6.2640106996736E-01  7.1338370354765E-01
   136  1.3500000000000E+00 -5.7370822195748E-01  6.7855926768374E-01
   137  1.3600000000000E+00 -5.1917217957690E-01  6.4322333857003E-01
   138  1.3700000000000E+00 -4.6330868235058E-01  6.0754207849770E-01
   139  1.3800000000000E+00 -4.0665136925115E-01  5.7168808375770E-01
   140  1.3900000000000E+00 -3.4974421985004E-01  5.3583810843046E-01
   141  1.4000000000000E+00 -2.9313373971367E-01  5.0017068844571E-01
   142  1.4100000000000E+00 -2.3736101296971E-01  4.6486369874344E-01
   143  1.4200000000000E+00 -1.8295392675954E-01  4.3009223463155E-01
   144  1.4300000000000E+00 -1.3041974166110E-01  3.9602682777347E-01
   145  1.4400000000000E+00 -8.0237790903325E-02  3.6283130784314E-01
   146  1.4500000000000E+00 -3.2852509089473E-02  3.3066061732584E-01
   147  1.4600000000000E+00  1.1333028497437E-02  2.9965876625742E-01
   148  1.4700000000000E+00  5.1962948802960E-02  2.6995695573336E-01
   149  1.4800000000000E+00  8.8733705739507E-02  2.4167190301516E-01
   150  1.4900000000000E+00  1.2139839830445E-01  2.1490439692591E-01
   151  1.5000000000000E+00  1.4977020682704E-01  1.8973810830921E-01
   152  1.5100000000000E+00  1.7372488662526E-01  1.6623867596746E-01
   153  1.5200000000000E+00  1.9320227399180E-01  1.4445308376844E-01
   154  1.5300000000000E+00  2.0820677595445E-01  1.2440933957956E-01
   155  1.5400000000000E+00  2.1880683226148E-01  1.0611646148562E-01
   156  1.5500000000000E+00  2.2513335536786E-01  8.9564771417505E-02
   157  1.5600000000000E+00  2.2737717146879E-01  7.4726490984410E-02
   158  1.5700000000000E+00  2.2578550256981E-01  6.1556629046388E-02
   159  1.5800000000000E+00  2.2065754589791E-01  4.9994145482622E-02
   160  1.5900000000000E+00  2.1233922236766E-01  3.9963370791191E-02
   161  1.6000000000000E+00  2.0121718004421E-01  3.1375656690518E-02
   162  1.6100000000000E+00  1.8771215136163E-01  2.4131228839394E-02
   163  1.6200000000000E+00  1.7227177399873E-01  1.8121209267956E-02
   164  1.6300000000000E+00  1.5536299448604E-01  1.3229773108745E-02
   165  1.6400000000000E+00  1.3746418332150E-01  9.3364017918879E-03
   166  1.6500000000000E+00  1.1905708006369E-01  6.3181947983206E-03
   167  1.6600000000000E+00  1.0061874966842E-01  4.0521889990286E-03
   168  1.6700000000000E+00  8.2614111662176E-02  2.4177097708039E-03
   169  1.6800000000000E+00  6.5487523979063E-02  1.2988713646276E-03
   170  1.6900000000000E+00  4.9653154575080E-02  5.8647042959106E-04
   171  1.7000000000000E+00  3.5491581250170E-02  1.7964453145954E-04
   172  1.7100000000000E+00  2.3343460030409E-02 -1.2253903588571E-05
   173  1.7200000000000E+00  1.3504330631162E-02 -6.8008163975471E-05
   174  1.7300000000000E+00  6.2165136624713E-03 -5.3070789206518E-05
   175  1.7400000000000E+00  1.6718551443931E-03 -1.8493069354981E-05
   176  1.7500000000000E+00  3.3191769507985E-05 -3.7136034403930E-07
   177  1.7600000000000E+00 -1.8944541164598E-05  2.7468538645778E-07
   178  1.7700000000000E+00  1.0525200471361E-05 -1.4081952620729E-07
   179  1.78 -0.  0.
   180  1.79  0. -0.
   181  1.80  0.  0.
   182  1.81  0.  0.
   183  1.82  0.  0.
   184  1.83  0.  0.
   185  1.84  0.  0.
   186  1.85  0.  0.
   187  1.86  0.  0.
   188  1.87  0.  0.
   189  1.88  0.  0.
   190  1.89  0.  0.
   191  1.90  0.  0.
   192  1.91  0.  0.
   193  1.92  0.  0.
   194  1.93  0.  0.
   195  1.94  0.  0.
   196  1.95  0.  0.
   197  1.96  0.  0.
   198  1.97  0.  0.
   199  1.98  0.  0.
   200  1.99  0.  0.
   201  2.00  0.  0.
   202  2.01  0.  0.
   203  2.02  0.  0.
   204  2.03  0.  0.
   205  2.04  0.  0.
   206  2.05  0.  0.
   207  2.06  0.  0.
   208  2.07  0.  0.
   209  2.08  0.  0.
   210  2.09  0.  0.
   211  2.10  0.  0.
   212  2.11  0.  0.
   213  2.12  0.  0.
   214  2.13  0.  0.
   215  2.14  0.  0.
   216  2.15  0.  0.
   217  2.16  0.  0.
   218  2.17  0.  0.
   219  2.18  0.  0.
   220  2.19  0.  0.
   221  2.20  0.  0.
   222  2.21  0.  0.
   223  2.22  0.  0.
   224  2.23  0.  0.
   225  2.24  0.  0.
   226  2.25  0.  0.
   227  2.26  0.  0.
   228  2.27  0.  0.
   229  2.28  0.  0.
   230  2.29  0.  0.
   231  2.30  0.  0.
   232  2.31  0.  0.
   233  2.32  0.  0.
   234  2.33  0.  0.
   235  2.34  0.  0.
   236  2.35  0.  0.
   237  2.36  0.  0.
   238  2.37  0.  0.
   239  2.38  0.  0.
   240  2.39  0.  0.
   241  2.40  0.  0.
   242  2.41  0.  0.
   243  2.42  0.  0.
   244  2.43  0.  0.
   245  2.44  0.  0.
   246  2.45  0.  0.
   247  2.46  0.  0.
   248  2.47  0.  0.
   249  2.48  0.  0.
   250  2.49  0.  0.
   251  2.50  0.  0.
   252  2.51  0.  0.
   253  2.52  0.  0.
   254  2.53  0.  0.
   255  2.54  0.  0.
   256  2.55  0.  0.
   257  2.56  0.  0.
   258  2.57  0.  0.
   259  2.58  0.  0.
   260  2.59  0.  0.
   261  2.60  0.  0.
   262  2.61  0.  0.
   263  2.62  0.  0.
   264  2.63  0.  0.
   265  2.64  0.  0.
   266  2.65  0.  0.
   267  2.66  0.  0.
   268  2.67  0.  0.
   269  2.68  0.  0.
   270  2.69  0.  0.
   271  2.70  0.  0.
   272  2.71  0.  0.
   273  2.72  0.  0.
   274  2.73  0.  0.
   275  2.74  0.  0.
   276  2.75  0.  0.
   277  2.76  0.  0.
   278  2.77  0.  0.
   279  2.78  0.  0.
   280  2.79  0.  0.
   281  2.80  0.  0.
   282  2.81  0.  0.
   283  2.82  0.  0.
   284  2.83  0.  0.
   285  2.84  0.  0.
   286  2.85  0.  0.
   287  2.86  0.  0.
   288  2.87  0.  0.
   289  2.88  0.  0.
   290  2.89  0.  0.
   291  2.90  0.  0.
   292  2.91  0.  0.
   293  2.92  0.  0.
   294  2.93  0.  0.
   295  2.94  0.  0.
   296  2.95  0.  0.
   297  2.96  0.  0.
   298  2.97  0.  0.
   299  2.98  0.  0.
   300  2.99  0.  0.
   301  3.00  0.  0.
   302  3.01  0.  0.
   303  3.02  0.  0.
   304  3.03  0.  0.
   305  3.04  0.  0.
   306  3.05  0.  0.
   307  3.06  0.  0.
   308  3.07  0.  0.
   309  3.08  0.  0.
   310  3.09  0.  0.
   311  3.10  0.  0.
   312  3.11  0.  0.
   313  3.12  0.  0.
   314  3.13  0.  0.
   315  3.14  0.  0.
   316  3.15  0.  0.
   317  3.16  0.  0.
   318  3.17  0.  0.
   319  3.18  0.  0.
   320  3.19  0.  0.
   321  3.20  0.  0.
   322  3.21  0.  0.
   323  3.22  0.  0.
   324  3.23  0.  0.
   325  3.24  0.  0.
   326  3.25  0.  0.
   327  3.26  0.  0.
   328  3.27  0.  0.
   329  3.28  0.  0.
   330  3.29  0.  0.
   331  3.30  0.  0.
   332  3.31  0.  0.
   333  3.32  0.  0.
   334  3.33  0.  0.
   335  3.34  0.  0.
   336  3.35  0.  0.
   337  3.36  0.  0.
   338  3.37  0.  0.
   339  3.38  0.  0.
   340  3.39  0.  0.
   341  3.40  0.  0.
   342  3.41  0.  0.
   343  3.42  0.  0.
   344  3.43  0.  0.
   345  3.44  0.  0.
   346  3.45  0.  0.
   347  3.46  0.  0.
   348  3.47  0.  0.
   349  3.48  0.  0.
   350  3.49  0.  0.
   351  3.50  0.  0.
   352  3.51  0.  0.
   353  3.52  0.  0.
   354  3.53  0.  0.
   355  3.54  0.  0.
   356  3.55  0.  0.
   357  3.56  0.  0.
   358  3.57  0.  0.
   359  3.58  0.  0.
   360  3.59  0.  0.
   361  3.60  0.  0.
   362  3.61  0.  0.
   363  3.62  0.  0.
   364  3.63  0.  0.
   365  3.64  0.  0.
   366  3.65  0.  0.
   367  3.66  0.  0.
   368  3.67  0.  0.
   369  3.68  0.  0.
   370  3.69  0.  0.
   371  3.70  0.  0.
   372  3.71  0.  0.
   373  3.72  0.  0.
   374  3.73  0.  0.
   375  3.74  0.  0.
   376  3.75  0.  0.
   377  3.76  0.  0.
   378  3.77  0.  0.
   379  3.78  0.  0.
   380  3.79  0.  0.
   381  3.80  0.  0.
   382  3.81  0.  0.
   383  3.82  0.  0.
   384  3.83  0.  0.
   385  3.84  0.  0.
   386  3.85  0.  0.
   387  3.86  0.  0.
   388  3.87  0.  0.
   389  3.88  0.  0.
   390  3.89  0.  0.
   391  3.90  0.  0.
   392  3.91  0.  0.
   393  3.92  0.  0.
   394  3.93  0.  0.
   395  3.94  0.  0.
   396  3.95  0.  0.
   397  3.96  0.  0.
   398  3.97  0.  0.
   399  3.98  0.  0.
   400  3.99  0.  0.
   401  4.00  0.  0.
   402  4.01  0.  0.
   403  4.02  0.  0.
   404  4.03  0.  0.
   405  4.04  0.  0.
   406  4.05  0.  0.
   407  4.06  0.  0.
   408  4.07  0.  0.
   409  4.08  0.  0.
   410  4.09  0.  0.
   411  4.10  0.  0.
   412  4.11  0.  0.
   413  4.12  0.  0.
   414  4.13  0.  0.
   415  4.14  0.  0.
   416  4.15  0.  0.
   417  4.16  0.  0.
   418  4.17  0.  0.
   419  4.18  0.  0.
   420  4.19  0.  0.
   421  4.20  0.  0.
   422  4.21  0.  0.
   423  4.22  0.  0.
   424  4.23  0.  0.
   425  4.24  0.  0.
   426  4.25  0.  0.
   427  4.26  0.  0.
   428  4.27  0.  0.
   429  4.28  0.  0.
   430  4.29  0.  0.
   431  4.30  0.  0.
   432  4.31  0.  0.
   433  4.32  0.  0.
   434  4.33  0.  0.
   435  4.34  0.  0.
   436  4.35  0.  0.
   437  4.36  0.  0.
   438  4.37  0.  0.
   439  4.38  0.  0.
   440  4.39  0.  0.
   441  4.40  0.  0.
   442  4.41  0.  0.
   443  4.42  0.  0.
   444  4.43  0.  0.
   445  4.44  0.  0.
   446  4.45  0.  0.
   447  4.46  0.  0.
   448  4.47  0.  0.
   449  4.48  0.  0.
   450  4.49  0.  0.
   451  4.50  0.  0.
   452  4.51  0.  0.
   453  4.52  0.  0.
   454  4.53  0.  0.
   455  4.54  0.  0.
   456  4.55  0.  0.
   457  4.56  0.  0.
   458  4.57  0.  0.
   459  4.58  0.  0.
   460  4.59  0.  0.
   461  4.60  0.  0.
   462  4.61  0.  0.
   463  4.62  0.  0.
   464  4.63  0.  0.
   465  4.64  0.  0.
   466  4.65  0.  0.
   467  4.66  0.  0.
   468  4.67  0.  0.
   469  4.68  0.  0.
   470  4.69  0.  0.
   471  4.70  0.  0.
   472  4.71  0.  0.
   473  4.72  0.  0.
   474  4.73  0.  0.
   475  4.74  0.  0.
   476  4.75  0.  0.
   477  4.76  0.  0.
   478  4.77  0.  0.
   479  4.78  0.  0.
   480  4.79  0.  0.
   481  4.80  0.  0.
   482  4.81  0.  0.
   483  4.82  0.  0.
   484  4.83  0.  0.
   485  4.84  0.  0.
   486  4.85  0.  0.
   487  4.86  0.  0.
   488  4.87  0.  0.
   489  4.88  0.  0.
   490  4.89  0.  0.
   491  4.90  0.  0.
   492  4.91  0.  0.
   493  4.92  0.  0.
   494  4.93  0.  0.
   495  4.94  0.  0.
   496  4.95  0.  0.
   497  4.96  0.  0.
   498  4.97  0.  0.
   499  4.98  0.  0.
   500  4.99  0.  0.
   501  5.00  0.  0.
   502  5.01  0.  0.
   503  5.02  0.  0.
   504  5.03  0.  0.
   505  5.04  0.  0.
   506  5.05  0.  0.
   507  5.06  0.  0.
   508  5.07  0.  0.
   509  5.08  0.  0.
   510  5.09  0.  0.
   511  5.10  0.  0.
   512  5.11  0.  0.
   513  5.12  0.  0.
   514  5.13  0.  0.
   515  5.14  0.  0.
   516  5.15  0.  0.
   517  5.16  0.  0.
   518  5.17  0.  0.
   519  5.18  0.  0.
   520  5.19  0.  0.
   521  5.20  0.  0.
   522  5.21  0.  0.
   523  5.22  0.  0.
   524  5.23  0.  0.
   525  5.24  0.  0.
   526  5.25  0.  0.
   527  5.26  0.  0.
   528  5.27  0.  0.
   529  5.28  0.  0.
   530  5.29  0.  0.
   531  5.30  0.  0.
   532  5.31  0.  0.
   533  5.32  0.  0.
   534  5.33  0.  0.
   535  5.34  0.  0.
   536  5.35  0.  0.
   537  5.36  0.  0.
   538  5.37  0.  0.
   539  5.38  0.  0.
   540  5.39  0.  0.
   541  5.40  0.  0.
   542  5.41  0.  0.
   543  5.42  0.  0.
   544  5.43  0.  0.
   545  5.44  0.  0.
   546  5.45  0.  0.
   547  5.46  0.  0.
   548  5.47  0.  0.
   549  5.48  0.  0.
   550  5.49  0.  0.
   551  5.50  0.  0.
   552  5.51  0.  0.
   553  5.52  0.  0.
   554  5.53  0.  0.
   555  5.54  0.  0.
   556  5.55  0.  0.
   557  5.56  0.  0.
   558  5.57  0.  0.
   559  5.58  0.  0.
   560  5.59  0.  0.
   561  5.60  0.  0.
   562  5.61  0.  0.
   563  5.62  0.  0.
   564  5.63  0.  0.
   565  5.64  0.  0.
   566  5.65  0.  0.
   567  5.66  0.  0.
   568  5.67  0.  0.
   569  5.68  0.  0.
   570  5.69  0.  0.
   571  5.70  0.  0.
   572  5.71  0.  0.
   573  5.72  0.  0.
   574  5.73  0.  0.
   575  5.74  0.  0.
   576  5.75  0.  0.
   577  5.76  0.  0.
   578  5.77  0.  0.
   579  5.78  0.  0.
   580  5.79  0.  0.
   581  5.80  0.  0.
   582  5.81  0.  0.
   583  5.82  0.  0.
   584  5.83  0.  0.
   585  5.84  0.  0.
   586  5.85  0.  0.
   587  5.86  0.  0.
   588  5.87  0.  0.
   589  5.88  0.  0.
   590  5.89  0.  0.
   591  5.90  0.  0.
   592  5.91  0.  0.
   593  5.92  0.  0.
   594  5.93  0.  0.
   595  5.94  0.  0.
   596  5.95  0.  0.
   597  5.96  0.  0.
   598  5.97  0.  0.
   599  5.98  0.  0.
   600  5.99  0.  0.
   1                         6.1578216004179E+00  9.1926936568826E-01
     1  0.0000000000000E+00  4.6305389037049E-08  2.7638693944620E-08
     2  1.0000000000000E-02  2.0491813064361E-03  1.2341753384486E-03
     3  2.0000000000000E-02  8.1432352064460E-03  4.9065028520434E-03
     4  3.0000000000000E-02  1.8122936285314E-02  1.0927115378688E-02
     5  4.0000000000000E-02  3.1727029772012E-02  1.9148645420844E-02
     6  5.0000000000000E-02  4.8598315911407E-02  2.9369783709162E-02
     7  6.0000000000000E-02  6.8291976246166E-02  4.1340146327030E-02
     8  7.0000000000000E-02  9.0285955001513E-02  5.4766338596637E-02
     9  8.0000000000000E-02  1.1399316246061E-01  6.9319076288429E-02
    10  9.0000000000000E-02  1.3877522600541E-01  8.4641200176572E-02
    11  1.0000000000000E-01  1.6395747928229E-01  1.0035639907194E-01
    12  1.1000000000000E-01  1.8884485151063E-01  1.1607843969127E-01
    13  1.2000000000000E-01  2.1273829791703E-01  1.3142068944678E-01
    14  1.3000000000000E-01  2.3495139912112E-01  1.4600571074760E-01
    15  1.4000000000000E-01  2.5482675232469E-01  1.5947470287091E-01
    16  1.5000000000000E-01  2.7175178049096E-01  1.7149656995748E-01
    17  1.6000000000000E-01  2.8517359729534E-01  1.8177640117360E-01
    18  1.7000000000000E-01  2.9461258525201E-01  1.9006316141015E-01
    19  1.8000000000000E-01  2.9967437166958E-01  1.9615640780448E-01
    20  1.9000000000000E-01  3.0005992139489E-01  1.9991186851538E-01
    21  2.0000000000000E-01  2.9557350594396E-01  2.0124574510535E-01
    22  2.1000000000000E-01  2.8612835473166E-01  2.0013762805266E-01
    23  2.2000000000000E-01  2.7174984471446E-01  1.9663194572086E-01
    24  2.3000000000000E-01  2.5257613877150E-01  1.9083789988741E-01
    25  2.4000000000000E-01  2.2885623940765E-01  1.8292787496159E-01
    26  2.5000000000000E-01  2.0094548165563E-01  1.7313434256054E-01
    27  2.6000000000000E-01  1.6929854614264E-01  1.6174531740088E-01
    28  2.7000000000000E-01  1.3446012892902E-01  1.4909845374496E-01
    29  2.8000000000000E-01  9.7053457706447E-02  1.3557390317332E-01
    30  2.9000000000000E-01  5.7766893098627E-02  1.2158608353470E-01
    31  3.0000000000000E-01  1.7338898048844E-02  1.0757453489260E-01
    32  3.1000000000000E-01 -2.3458303378438E-02  9.3994060551854E-02
    33  3.2000000000000E-01 -6.3836024877935E-02  8.1304369292905E-02
    34  3.3000000000000E-01 -1.0300699747464E-01  6.9959448337996E-02
    35  3.4000000000000E-01 -1.4020343676540E-01  6.0396904993523E-02
    36  3.5000000000000E-01 -1.7469489723792E-01  5.3027518132142E-02
    37  3.6000000000000E-01 -2.0580551417722E-01  4.8225238585499E-02
    38  3.7000000000000E-01 -2.3293024348307E-01  4.6317870115744E-02
    39  3.8000000000000E-01 -2.5554972809436E-01  4.7578650039066E-02
    40  3.9000000000000E-01 -2.7324344631190E-01  5.2218931018511E-02
    41  4.0000000000000E-01 -2.8570083161593E-01  6.0382143366383E-02
    42  4.1000000000000E-01 -2.9273009490674E-01  7.2139190841970E-02
    43  4.2000000000000E-01 -2.9426452761867E-01  8.7485402934866E-02
    44  4.3000000000000E-01 -2.9036611689598E-01  1.0633913360796E-01
    45  4.4000000000000E-01 -2.8122636087891E-01  1.2854206112784E-01
    46  4.5000000000000E-01 -2.6716423194292E-01  1.5386120668031E-01
    47  4.6000000000000E-01 -2.4862129720249E-01  1.8199265174291E-01
    48  4.7000000000000E-01 -2.2615406742914E-01  2.1256689647501E-01
    49  4.8000000000000E-01 -2.0042370641915E-01  2.4515576450925E-01
    50  4.9000000000000E-01 -1.7218329146767E-01  2.7928072429191E-01
    51  5.0000000000000E-01 -1.4226287068923E-01  3.1442246430570E-01
    52  5.1000000000000E-01 -1.1155261326163E-01  3.5003152985070E-01
    53  5.2000000000000E-01 -8.0984393143052E-02  3.8553980323334E-01
    54  5.3000000000000E-01 -5.1512184421013E-02  4.2037258781673E-01
    55  5.4000000000000E-01 -2.4091676331183E-02  4.5396103992975E-01
    56  5.5000000000000E-01  3.4046257174649E-04  4.8575468152453E-01
    57  5.6000000000000E-01  2.0887229134343E-02  5.1523372101153E-01
    58  5.7000000000000E-01  3.6711394102385E-02  5.4192091006900E-01
    59  5.8000000000000E-01  4.7054635598248E-02  5.6539267047757E-01
    60  5.9000000000000E-01  5.1255274521465E-02  5.8528923710309E-01
    61  6.0000000000000E-01  4.8764213740484E-02  6.0132358085140E-01
    62  6.1000000000000E-01  3.9158716608983E-02  6.1328889843262E-01
    63  6.2000000000000E-01  2.2153702117582E-02  6.2106448366996E-01
    64  6.3000000000000E-01 -2.3897169253863E-03  6.2461982733041E-01
    65  6.4000000000000E-01 -3.4458670868313E-02  6.2401682840569E-01
    66  6.5000000000000E-01 -7.3886102879442E-02  6.1941003870794E-01
    67  6.6000000000000E-01 -1.2035156418257E-01  6.1104490377326E-01
    68  6.7000000000000E-01 -1.7338526042457E-01  5.9925400553814E-01
    69  6.8000000000000E-01 -2.3237530612791E-01  5.8445135518253E-01
    70  6.9000000000000E-01 -2.9657807573041E-01  5.6712482701136E-01
    71  7.0000000000000E-01 -3.6513147285363E-01  5.4782686537010E-01
    72  7.1000000000000E-01 -4.3707087560573E-01  5.2716363546581E-01
    73  7.2000000000000E-01 -5.1134745627438E-01  5.0578282474802E-01
    74  7.3000000000000E-01 -5.8684852000516E-01  4.8436033339294E-01
    75  7.4000000000000E-01 -6.6241946017268E-01  4.6358611971009E-01
    76  7.5000000000000E-01 -7.3688688918860E-01  4.4414948831866E-01
    77  7.6000000000000E-01 -8.0908247335784E-01  4.2672412518873E-01
    78  7.7000000000000E-01 -8.7786697980736E-01  4.1195319369697E-01
    79  7.8000000000000E-01 -9.4215403300594E-01  4.0043480941515E-01
    80  7.9000000000000E-01 -1.0009330782924E+00  3.9270820827573E-01
    81  8.0000000000000E-01 -1.0532910602438E+00  3.8924091302087E-01
    82  8.1000000000000E-01 -1.0984323445406E+00  3.9041718655793E-01
    83  8.2000000000000E-01 -1.1356964428919E+00  3.9652803827365E-01
    84  8.3000000000000E-01 -1.1645731410427E+00  4.0776302088890E-01
    85  8.4000000000000E-01 -1.1847146791457E+00  4.2420402158841E-01
    86  8.5000000000000E-01 -1.1959446909158E+00  4.4582121256871E-01
    87  8.6000000000000E-01 -1.1982636718937E+00  4.7247128355806E-01
    88  8.7000000000000E-01 -1.1918508165651E+00  5.0389803310715E-01
    89  8.8000000000000E-01 -1.1770621376397E+00  5.3973534744124E-01
    90  8.9000000000000E-01 -1.1544248569994E+00  5.7951254636962E-01
    91  9.0000000000000E-01 -1.1246281351383E+00  6.2266202617263E-01
    92  9.1000000000000E-01 -1.0885102827373E+00  6.6852908055746E-01
    93  9.2000000000000E-01 -1.0470426727674E+00  7.1638373370366E-01
    94  9.3000000000000E-01 -1.0013106426097E+00  7.6543437511300E-01
    95  9.4000000000000E-01 -9.5249174163457E-01  8.1484294537967E-01
    96  9.5000000000000E-01 -9.0183173906110E-01  8.6374138599464E-01
    97  9.6000000000000E-01 -8.5061885844897E-01  9.1124903568918E-01
    98  9.7000000000000E-01 -8.0015674768892E-01  9.5649063131441E-01
    99  9.8000000000000E-01 -7.5173672592170E-01  9.9861455341280E-01
   100  9.9000000000000E-01 -7.0660987061673E-01  1.0368109459328E+00
   101  1.0000000000000E+00 -6.6595951854221E-01  1.0703293362715E+00
   102  1.0100000000000E+00 -6.3087475323116E-01  1.0984953861518E+00
   103  1.0200000000000E+00 -6.0232543867148E-01  1.1207264157866E+00
   104  1.0300000000000E+00 -5.8113933446670E-01  1.1365453631817E+00
   105  1.0400000000000E+00 -5.6798179206400E-01  1.1455928669674E+00
   106  1.0500000000000E+00 -5.6333848532775E-01  1.1476371944270E+00
   107  1.0600000000000E+00 -5.6750157267812E-01  1.1425817757708E+00
   108  1.0700000000000E+00 -5.8055962330613E-01  1.1304701504172E+00
   109  1.0800000000000E+00 -6.0239156758048E-01  1.1114881804344E+00
   110  1.0900000000000E+00 -6.3266485353242E-01  1.0859634391124E+00
   111  1.1000000000000E+00 -6.7083790824503E-01  1.0543617381991E+00
   112  1.1100000000000E+00 -7.1616691716856E-01  1.0172808142597E+00
   113  1.1200000000000E+00 -7.6771684729102E-01  9.7544125194391E-01
   114  1.1300000000000E+00 -8.2437655348126E-01  9.2967477850375E-01
   115  1.1400000000000E+00 -8.8487772315535E-01  8.8091011841472E-01
   116  1.1500000000000E+00 -9.4781733404959E-01  8.3015664853623E-01
   117  1.1600000000000E+00 -1.0116832254269E+00  7.7848614154066E-01