Al    ONCVPSP-4.0.1  r_core=   1.75068   1.75068   1.70928
     13.0000      3.0000      250217    zatom,zion,pspd
     8       2   2     4   600     0    pspcod,pspxc,lmax,lloc,mmax,r2well
  5.99000000  5.00000000  0.00000000    rchrg fchrg qchrg
     2     2     2     0    nproj
     3     1           extension_switch
     3     4     0    nprojso
   0                        -4.3595065374966E+00  2.3388746578487E+00
     1  0.0000000000000E+00 -5.9648447292560E-09  2.1357344434647E-09
     2  1.0000000000000E-02  5.3171168683333E-02  1.1503887455927E-03
     3  2.0000000000000E-02  1.0608198180839E-01  2.4015241001231E-03
     4  3.0000000000000E-02  1.5847641791261E-01  3.8525012279982E-03
     5  4.0000000000000E-02  2.1010704068948E-01  5.5991427903871E-03
     6  5.0000000000000E-02  2.6073908554085E-01  7.7324380990822E-03
     7  6.0000000000000E-02  3.1015430324474E-01  1.0337071201672E-02
     8  7.0000000000000E-02  3.5815448693529E-01  1.3490064980051E-02
     9  8.0000000000000E-02  4.0456461455593E-01  1.7259566208545E-02
    10  9.0000000000000E-02  4.4923554619345E-01  2.1703793922211E-02
    11  1.0000000000000E-01  4.9204622409416E-01  2.6870170437169E-02
    12  1.1000000000000E-01  5.3290533254909E-01  3.2794650998263E-02
    13  1.2000000000000E-01  5.7175238503898E-01  3.9501264366012E-02
    14  1.3000000000000E-01  6.0855821686244E-01  4.7001872761637E-02
    15  1.4000000000000E-01  6.4332487273080E-01  5.5296155536917E-02
    16  1.5000000000000E-01  6.7608489029259E-01  6.4371816798781E-02
    17  1.6000000000000E-01  7.0689999203394E-01  7.4205013072346E-02
    18  1.7000000000000E-01  7.3585920927659E-01  8.4760993006653E-02
    19  1.8000000000000E-01  7.6307647285033E-01  9.5994937189101E-02
    20  1.9000000000000E-01  7.8868771524997E-01  1.0785298240999E-01
    21  2.0000000000000E-01  8.1284753850499E-01  1.2027341127609E-01
    22  2.1000000000000E-01  8.3572551041709E-01  1.3318798497496E-01
    23  2.2000000000000E-01  8.5750215909607E-01  1.4652339429765E-01
    24  2.3000000000000E-01  8.7836474171076E-01  1.6020280178570E-01
    25  2.4000000000000E-01  8.9850286795296E-01  1.7414744612129E-01
    26  2.5000000000000E-01  9.1810406180062E-01  1.8827827866032E-01
    27  2.6000000000000E-01  9.3734934669830E-01  2.0251760133929E-01
    28  2.7000000000000E-01  9.5640893921673E-01  2.1679067508294E-01
    29  2.8000000000000E-01  9.7543813460336E-01  2.3102726830286E-01
    30  2.9000000000000E-01  9.9457346441889E-01  2.4516311610092E-01
    31  3.0000000000000E-01  1.0139292017243E+00  2.5914126235833E-01
    32  3.1000000000000E-01  1.0335942831217E+00  2.7291325897318E-01
    33  3.2000000000000E-01  1.0536297094699E+00  2.8644019907110E-01
    34  3.3000000000000E-01  1.0740664784247E+00  2.9969356400848E-01
    35  3.4000000000000E-01  1.0949040922546E+00  3.1265586736236E-01
    36  3.5000000000000E-01  1.1161096738223E+00  3.2532108279562E-01
    37  3.6000000000000E-01  1.1376177124058E+00  3.3769484663299E-01
    38  3.7000000000000E-01  1.1593304493548E+00  3.4979443011181E-01
    39  3.8000000000000E-01  1.1811189016556E+00  3.6164848050694E-01
    40  3.9000000000000E-01  1.2028245095367E+00  3.7329653459387E-01
    41  4.0000000000000E-01  1.2242613824993E+00  3.8478831213099E-01
    42  4.1000000000000E-01  1.2452191068286E+00  3.9618280113372E-01
    43  4.2000000000000E-01  1.2654660669390E+00  4.0754715060446E-01
    44  4.3000000000000E-01  1.2847532230346E+00  4.1895539000220E-01
    45  4.4000000000000E-01  1.3028182787087E+00  4.3048699801614E-01
    46  4.5000000000000E-01  1.3193901644346E+00  4.4222534608904E-01
    47  4.6000000000000E-01  1.3341937565563E+00  4.5425604456300E-01
    48  4.7000000000000E-01  1.3469547465064E+00  4.6666522124861E-01
    49  4.8000000000000E-01  1.3574045716420E+00  4.7953776360968E-01
    50  4.9000000000000E-01  1.3652853173852E+00  4.9295555658326E-01
    51  5.0000000000000E-01  1.3703545003021E+00  5.0699574830205E-01
    52  5.1000000000000E-01  1.3723896433840E+00  5.2172907564521E-01
    53  5.2000000000000E-01  1.3711925580661E+00  5.3721828062008E-01
    54  5.3000000000000E-01  1.3665932523951E+00  5.5351664708400E-01
    55  5.4000000000000E-01  1.3584533911470E+00  5.7066668527967E-01
    56  5.5000000000000E-01  1.3466692414927E+00  5.8869898911164E-01
    57  5.6000000000000E-01  1.3311740468835E+00  6.0763128808232E-01
    58  5.7000000000000E-01  1.3119397820000E+00  6.2746771238540E-01
    59  5.8000000000000E-01  1.2889782527228E+00  6.4819828588252E-01
    60  5.9000000000000E-01  1.2623415169159E+00  6.6979865763511E-01
    61  6.0000000000000E-01  1.2321216141673E+00  6.9223007839726E-01
    62  6.1000000000000E-01  1.1984496052707E+00  7.1543962407686E-01
    63  6.2000000000000E-01  1.1614939349322E+00  7.3936066371816E-01
    64  6.3000000000000E-01  1.1214581437094E+00  7.6391356513249E-01
    65  6.4000000000000E-01  1.0785779673043E+00  7.8900662698369E-01
    66  6.5000000000000E-01  1.0331178728157E+00  8.1453722200089E-01
    67  6.6000000000000E-01  9.8536709218840E-01  8.4039313212048E-01
    68  6.7000000000000E-01  9.3563522267971E-01  8.6645405282036E-01
    69  6.8000000000000E-01  8.8424747251598E-01  8.9259324077136E-01
    70  6.9000000000000E-01  8.3153963686556E-01  9.1867927625018E-01
    71  7.0000000000000E-01  7.7785289468199E-01  9.4457790958565E-01
    72  7.1000000000000E-01  7.2352852075528E-01  9.7015395928881E-01
    73  7.2000000000000E-01  6.6890260937540E-01  9.9527322847672E-01
    74  7.3000000000000E-01  6.1430090630744E-01  1.0198044057634E+00
    75  7.4000000000000E-01  5.6003384429046E-01  1.0436209169671E+00
    76  7.5000000000000E-01  5.0639187401383E-01  1.0666026947740E+00
    77  7.6000000000000E-01  4.5364117754704E-01  1.0886378348850E+00
    78  7.7000000000000E-01  4.0201984458270E-01  1.1096241091445E+00
    79  7.8000000000000E-01  3.5173458370546E-01  1.1294703086583E+00
    80  7.9000000000000E-01  3.0295803136868E-01  1.1480973929233E+00
    81  8.0000000000000E-01  2.5582671050355E-01  1.1654394244508E+00
    82  8.1000000000000E-01  2.1043967890164E-01  1.1814442722130E+00
    83  8.2000000000000E-01  1.6685789490295E-01  1.1960740714099E+00
    84  8.3000000000000E-01  1.2510431472025E-01  1.2093054314574E+00
    85  8.4000000000000E-01  8.5164722173277E-02  1.2211293886777E+00
    86  8.5000000000000E-01  4.6989277940615E-02  1.2315511048194E+00
    87  8.6000000000000E-01  1.0494761912391E-02  1.2405893171931E+00
    88  8.7000000000000E-01 -2.4432530901716E-02  1.2482755507646E+00
    89  8.8000000000000E-01 -5.7933292951884E-02  1.2546531069429E+00
    90  8.9000000000000E-01 -9.0171168879702E-02  1.2597758479380E+00
    91  9.0000000000000E-01 -1.2132825660012E-01  1.2637067993703E+00
    92  9.1000000000000E-01 -1.5160022817189E-01  1.2665165972253E+00
    93  9.2000000000000E-01 -1.8119116166384E-01  1.2682818081906E+00
    94  9.3000000000000E-01 -2.1030818136815E-01  1.2690831548357E+00
    95  9.4000000000000E-01 -2.3915600810446E-01  1.2690036789566E+00
    96  9.5000000000000E-01 -2.6793152391060E-01  1.2681268776594E+00
    97  9.6000000000000E-01 -2.9681845605885E-01  1.2665348473853E+00
    98  9.7000000000000E-01 -3.2598228405490E-01  1.2643064710627E+00
    99  9.8000000000000E-01 -3.5556547006716E-01  1.2615156829110E+00
   100  9.9000000000000E-01 -3.8568310815207E-01  1.2582298441216E+00
   101  1.0000000000000E+00 -4.1641908075393E-01  1.2545082607281E+00
   102  1.0100000000000E+00 -4.4782280239193E-01  1.2504008724815E+00
   103  1.0200000000000E+00 -4.7990662032680E-01  1.2459471385063E+00
   104  1.0300000000000E+00 -5.1264393051248E-01  1.2411751419865E+00
   105  1.0400000000000E+00 -5.4596805448666E-01  1.2361009321821E+00
   106  1.0500000000000E+00 -5.7977190923446E-01  1.2307281177645E+00
   107  1.0600000000000E+00 -6.1390848773885E-01  1.2250477208714E+00
   108  1.0700000000000E+00 -6.4819215316827E-01  1.2190382965041E+00
   109  1.0800000000000E+00 -6.8240073465844E-01  1.2126663169828E+00
   110  1.0900000000000E+00 -7.1627839778566E-01  1.2058868162721E+00
   111  1.1000000000000E+00 -7.4953924826653E-01  1.1986442841241E+00
   112  1.1100000000000E+00 -7.8187161351272E-01  1.1908737953033E+00
   113  1.1200000000000E+00 -8.1294293361591E-01  1.1825023546954E+00
   114  1.1300000000000E+00 -8.4240518140292E-01  1.1734504349771E+00
   115  1.1400000000000E+00 -8.6990072061801E-01  1.1636336797918E+00
   116  1.1500000000000E+00 -8.9506850223170E-01  1.1529647421168E+00
   117  1.1600000000000E+00 -9.1755049155110E-01  1.1413552247801E+00
   118  1.1700000000000E+00 -9.3699821333388E-01  1.1287176879346E+00
   119  1.1800000000000E+00 -9.5307929861670E-01  1.1149676867841E+00
   120  1.1900000000000E+00 -9.6548391552633E-01  1.1000258019803E+00
   121  1.2000000000000E+00 -9.7393096700415E-01  1.0838196249279E+00
   122  1.2100000000000E+00 -9.7817394110855E-01  1.0662856607141E+00
   123  1.2200000000000E+00 -9.7800630440601E-01  1.0473711125519E+00
   124  1.2300000000000E+00 -9.7326633574031E-01  1.0270355134389E+00
   125  1.2400000000000E+00 -9.6384130638228E-01  1.0052521731841E+00
   126  1.2500000000000E+00 -9.4967092302071E-01  9.8200941199590E-01
   127  1.2600000000000E+00 -9.3074996200740E-01  9.5731155537368E-01
   128  1.2700000000000E+00 -9.0713003671355E-01  9.3117966910338E-01
   129  1.2800000000000E+00 -8.7892045434504E-01  9.0365201759254E-01
   130  1.2900000000000E+00 -8.4628813392187E-01  8.7478423352759E-01
   131  1.3000000000000E+00 -8.0945657322564E-01  8.4464919186277E-01
   132  1.3100000000000E+00 -7.6870386884394E-01  8.1333658629082E-01
   133  1.3200000000000E+00 -7.2435980981754E-01  7.8095221154349E-01
   134  1.3300000000000E+00 -6.7680208163791E-01  7.4761696006714E-01
   135  1.3400000000000E+00 -6.2645163294977E-01  7.1346554665272E-01
   136  1.3500000000000E+00 -5.7376727216831E-01  6.7864497943251E-01
   137  1.3600000000000E+00 -5.1923957496299E-01  6.4331280016982E-01
   138  1.3700000000000E+00 -4.6338419606047E-01  6.0763512092113E-01
   139  1.3800000000000E+00 -4.0673468965659E-01  5.7178448777484E-01
   140  1.3900000000000E+00 -3.4983495185409E-01  5.3593760545405E-01
   141  1.4000000000000E+00 -2.9323140735405E-01  5.0027296219581E-01
   142  1.4100000000000E+00 -2.3746506330548E-01  4.6496838772531E-01
   143  1.4200000000000E+00 -1.8306373496995E-01  4.3019893535671E-01
   144  1.4300000000000E+00 -1.3053461726618E-01  3.9613509864547E-01
   145  1.4400000000000E+00 -8.0356985075190E-02  3.6294067372278E-01
   146  1.4500000000000E+00 -3.2975222977416E-02  3.3077057473995E-01
   147  1.4600000000000E+00  1.1207634537714E-02  2.9976878918250E-01
   148  1.4700000000000E+00  5.1835745202241E-02  2.7006650187578E-01
   149  1.4800000000000E+00  8.8605583069424E-02  2.4178042050082E-01
   150  1.4900000000000E+00  1.2127025614508E-01  2.1501133130433E-01
   151  1.5000000000000E+00  1.4964294230951E-01  1.8984290977083E-01
   152  1.5100000000000E+00  1.7359938281817E-01  1.6634080666809E-01
   153  1.5200000000000E+00  1.9307938830419E-01  1.4455202515201E-01
   154  1.5300000000000E+00  2.0808732873131E-01  1.2450459958852E-01
   155  1.5400000000000E+00  2.1869159574539E-01  1.0620758154925E-01
   156  1.5500000000000E+00  2.2502304319762E-01  8.9651333110114E-02
   157  1.5600000000000E+00  2.2727242887905E-01  7.4808122249521E-02
   158  1.5700000000000E+00  2.2568689744644E-01  6.1633009888623E-02
   159  1.5800000000000E+00  2.2056556083283E-01  5.0065013035874E-02
   160  1.5900000000000E+00  2.1225424784183E-01  4.0028523680758E-02
   161  1.6000000000000E+00  2.0113950885200E-01  3.1434958616884E-02
   162  1.6100000000000E+00  1.8764197437179E-01  2.4184611321955E-02
   163  1.6200000000000E+00  1.7220917732699E-01  1.8168673500298E-02
   164  1.6300000000000E+00  1.5530795813360E-01  1.3271390889570E-02
   165  1.6400000000000E+00  1.3741658131313E-01  9.3723155093714E-03
   166  1.6500000000000E+00  1.1901668209006E-01  6.3486164611132E-03
   167  1.6600000000000E+00  1.0058522422314E-01  4.0773983210867E-03
   168  1.6700000000000E+00  8.2587031166598E-02  2.4380512047319E-03
   169  1.6800000000000E+00  6.5466371471500E-02  1.3147501707460E-03
   170  1.6900000000000E+00  4.9637329191747E-02  5.9834850363494E-04
   171  1.7000000000000E+00  3.5480406771850E-02  1.8803508526504E-04
   172  1.7100000000000E+00  2.3336194619629E-02 -6.7923969510030E-06
   173  1.7200000000000E+00  1.3500177408614E-02 -6.4878550111394E-05
   174  1.7300000000000E+00  6.2146329916911E-03 -5.1645057079211E-05
   175  1.7400000000000E+00  1.6713757068134E-03 -1.8119128918788E-05
   176  1.7500000000000E+00  3.3215698524581E-05 -3.7487478378064E-07
   177  1.7600000000000E+00 -1.8935629259662E-05  2.6932336101890E-07
   178  1.7700000000000E+00  1.0520607620435E-05 -1.3795550486299E-07
   179  1.78  0.  0.
   180  1.79  0.  0.
   181  1.80  0.  0.
   182  1.81  0.  0.
   183  1.82  0.  0.
   184  1.83  0.  0.
   185  1.84  0.  0.
   186  1.85  0.  0.
   187  1.86  0.  0.
   188  1.87  0.  0.
   189  1.88  0.  0.
   190  1.89  0.  0.
   191  1.90  0.  0.
   192  1.91  0.  0.
   193  1.92  0.  0.
   194  1.93  0.  0.
   195  1.94  0.  0.
   196  1.95  0.  0.
   197  1.96  0.  0.
   198  1.97  0.  0.
   199  1.98  0.  0.
   200  1.99  0.  0.
   201  2.00  0.  0.
   202  2.01  0.  0.
   203  2.02  0.  0.
   204  2.03  0.  0.
   205  2.04  0.  0.
   206  2.05  0.  0.
   207  2.06  0.  0.
   208  2.07  0.  0.
   209  2.08  0.  0.
   210  2.09  0.  0.
   211  2.10  0.  0.
   212  2.11  0.  0.
   213  2.12  0.  0.
   214  2.13  0.  0.
   215  2.14  0.  0.
   216  2.15  0.  0.
   217  2.16  0.  0.
   218  2.17  0.  0.
   219  2.18  0.  0.
   220  2.19  0.  0.
   221  2.20  0.  0.
   222  2.21  0.  0.
   223  2.22  0.  0.
   224  2.23  0.  0.
   225  2.24  0.  0.
   226  2.25  0.  0.
   227  2.26  0.  0.
   228  2.27  0.  0.
   229  2.28  0.  0.
   230  2.29  0.  0.
   231  2.30  0.  0.
   232  2.31  0.  0.
   233  2.32  0.  0.
   234  2.33  0.  0.
   235  2.34  0.  0.
   236  2.35  0.  0.
   237  2.36  0.  0.
   238  2.37  0.  0.
   239  2.38  0.  0.
   240  2.39  0.  0.
   241  2.40  0.  0.
   242  2.41  0.  0.
   243  2.42  0.  0.
   244  2.43  0.  0.
   245  2.44  0.  0.
   246  2.45  0.  0.
   247  2.46  0.  0.
   248  2.47  0.  0.
   249  2.48  0.  0.
   250  2.49  0.  0.
   251  2.50  0.  0.
   252  2.51  0.  0.
   253  2.52  0.  0.
   254  2.53  0.  0.
   255  2.54  0.  0.
   256  2.55  0.  0.
   257  2.56  0.  0.
   258  2.57  0.  0.
   259  2.58  0.  0.
   260  2.59  0.  0.
   261  2.60  0.  0.
   262  2.61  0.  0.
   263  2.62  0.  0.
   264  2.63  0.  0.
   265  2.64  0.  0.
   266  2.65  0.  0.
   267  2.66  0.  0.
   268  2.67  0.  0.
   269  2.68  0.  0.
   270  2.69  0.  0.
   271  2.70  0.  0.
   272  2.71  0.  0.
   273  2.72  0.  0.
   274  2.73  0.  0.
   275  2.74  0.  0.
   276  2.75  0.  0.
   277  2.76  0.  0.
   278  2.77  0.  0.
   279  2.78  0.  0.
   280  2.79  0.  0.
   281  2.80  0.  0.
   282  2.81  0.  0.
   283  2.82  0.  0.
   284  2.83  0.  0.
   285  2.84  0.  0.
   286  2.85  0.  0.
   287  2.86  0.  0.
   288  2.87  0.  0.
   289  2.88  0.  0.
   290  2.89  0.  0.
   291  2.90  0.  0.
   292  2.91  0.  0.
   293  2.92  0.  0.
   294  2.93  0.  0.
   295  2.94  0.  0.
   296  2.95  0.  0.
   297  2.96  0.  0.
   298  2.97  0.  0.
   299  2.98  0.  0.
   300  2.99  0.  0.
   301  3.00  0.  0.
   302  3.01  0.  0.
   303  3.02  0.  0.
   304  3.03  0.  0.
   305  3.04  0.  0.
   306  3.05  0.  0.
   307  3.06  0.  0.
   308  3.07  0.  0.
   309  3.08  0.  0.
   310  3.09  0.  0.
   311  3.10  0.  0.
   312  3.11  0.  0.
   313  3.12  0.  0.
   314  3.13  0.  0.
   315  3.14  0.  0.
   316  3.15  0.  0.
   317  3.16  0.  0.
   318  3.17  0.  0.
   319  3.18  0.  0.
   320  3.19  0.  0.
   321  3.20  0.  0.
   322  3.21  0.  0.
   323  3.22  0.  0.
   324  3.23  0.  0.
   325  3.24  0.  0.
   326  3.25  0.  0.
   327  3.26  0.  0.
   328  3.27  0.  0.
   329  3.28  0.  0.
   330  3.29  0.  0.
   331  3.30  0.  0.
   332  3.31  0.  0.
   333  3.32  0.  0.
   334  3.33  0.  0.
   335  3.34  0.  0.
   336  3.35  0.  0.
   337  3.36  0.  0.
   338  3.37  0.  0.
   339  3.38  0.  0.
   340  3.39  0.  0.
   341  3.40  0.  0.
   342  3.41  0.  0.
   343  3.42  0.  0.
   344  3.43  0.  0.
   345  3.44  0.  0.
   346  3.45  0.  0.
   347  3.46  0.  0.
   348  3.47  0.  0.
   349  3.48  0.  0.
   350  3.49  0.  0.
   351  3.50  0.  0.
   352  3.51  0.  0.
   353  3.52  0.  0.
   354  3.53  0.  0.
   355  3.54  0.  0.
   356  3.55  0.  0.
   357  3.56  0.  0.
   358  3.57  0.  0.
   359  3.58  0.  0.
   360  3.59  0.  0.
   361  3.60  0.  0.
   362  3.61  0.  0.
   363  3.62  0.  0.
   364  3.63  0.  0.
   365  3.64  0.  0.
   366  3.65  0.  0.
   367  3.66  0.  0.
   368  3.67  0.  0.
   369  3.68  0.  0.
   370  3.69  0.  0.
   371  3.70  0.  0.
   372  3.71  0.  0.
   373  3.72  0.  0.
   374  3.73  0.  0.
   375  3.74  0.  0.
   376  3.75  0.  0.
   377  3.76  0.  0.
   378  3.77  0.  0.
   379  3.78  0.  0.
   380  3.79  0.  0.
   381  3.80  0.  0.
   382  3.81  0.  0.
   383  3.82  0.  0.
   384  3.83  0.  0.
   385  3.84  0.  0.
   386  3.85  0.  0.
   387  3.86  0.  0.
   388  3.87  0.  0.
   389  3.88  0.  0.
   390  3.89  0.  0.
   391  3.90  0.  0.
   392  3.91  0.  0.
   393  3.92  0.  0.
   394  3.93  0.  0.
   395  3.94  0.  0.
   396  3.95  0.  0.
   397  3.96  0.  0.
   398  3.97  0.  0.
   399  3.98  0.  0.
   400  3.99  0.  0.
   401  4.00  0.  0.
   402  4.01  0.  0.
   403  4.02  0.  0.
   404  4.03  0.  0.
   405  4.04  0.  0.
   406  4.05  0.  0.
   407  4.06  0.  0.
   408  4.07  0.  0.
   409  4.08  0.  0.
   410  4.09  0.  0.
   411  4.10  0.  0.
   412  4.11  0.  0.
   413  4.12  0.  0.
   414  4.13  0.  0.
   415  4.14  0.  0.
   416  4.15  0.  0.
   417  4.16  0.  0.
   418  4.17  0.  0.
   419  4.18  0.  0.
   420  4.19  0.  0.
   421  4.20  0.  0.
   422  4.21  0.  0.
   423  4.22  0.  0.
   424  4.23  0.  0.
   425  4.24  0.  0.
   426  4.25  0.  0.
   427  4.26  0.  0.
   428  4.27  0.  0.
   429  4.28  0.  0.
   430  4.29  0.  0.
   431  4.30  0.  0.
   432  4.31  0.  0.
   433  4.32  0.  0.
   434  4.33  0.  0.
   435  4.34  0.  0.
   436  4.35  0.  0.
   437  4.36  0.  0.
   438  4.37  0.  0.
   439  4.38  0.  0.
   440  4.39  0.  0.
   441  4.40  0.  0.
   442  4.41  0.  0.
   443  4.42  0.  0.
   444  4.43  0.  0.
   445  4.44  0.  0.
   446  4.45  0.  0.
   447  4.46  0.  0.
   448  4.47  0.  0.
   449  4.48  0.  0.
   450  4.49  0.  0.
   451  4.50  0.  0.
   452  4.51  0.  0.
   453  4.52  0.  0.
   454  4.53  0.  0.
   455  4.54  0.  0.
   456  4.55  0.  0.
   457  4.56  0.  0.
   458  4.57  0.  0.
   459  4.58  0.  0.
   460  4.59  0.  0.
   461  4.60  0.  0.
   462  4.61  0.  0.
   463  4.62  0.  0.
   464  4.63  0.  0.
   465  4.64  0.  0.
   466  4.65  0.  0.
   467  4.66  0.  0.
   468  4.67  0.  0.
   469  4.68  0.  0.
   470  4.69  0.  0.
   471  4.70  0.  0.
   472  4.71  0.  0.
   473  4.72  0.  0.
   474  4.73  0.  0.
   475  4.74  0.  0.
   476  4.75  0.  0.
   477  4.76  0.  0.
   478  4.77  0.  0.
   479  4.78  0.  0.
   480  4.79  0.  0.
   481  4.80  0.  0.
   482  4.81  0.  0.
   483  4.82  0.  0.
   484  4.83  0.  0.
   485  4.84  0.  0.
   486  4.85  0.  0.
   487  4.86  0.  0.
   488  4.87  0.  0.
   489  4.88  0.  0.
   490  4.89  0.  0.
   491  4.90  0.  0.
   492  4.91  0.  0.
   493  4.92  0.  0.
   494  4.93  0.  0.
   495  4.94  0.  0.
   496  4.95  0.  0.
   497  4.96  0.  0.
   498  4.97  0.  0.
   499  4.98  0.  0.
   500  4.99  0.  0.
   501  5.00  0.  0.
   502  5.01  0.  0.
   503  5.02  0.  0.
   504  5.03  0.  0.
   505  5.04  0.  0.
   506  5.05  0.  0.
   507  5.06  0.  0.
   508  5.07  0.  0.
   509  5.08  0.  0.
   510  5.09  0.  0.
   511  5.10  0.  0.
   512  5.11  0.  0.
   513  5.12  0.  0.
   514  5.13  0.  0.
   515  5.14  0.  0.
   516  5.15  0.  0.
   517  5.16  0.  0.
   518  5.17  0.  0.
   519  5.18  0.  0.
   520  5.19  0.  0.
   521  5.20  0.  0.
   522  5.21  0.  0.
   523  5.22  0.  0.
   524  5.23  0.  0.
   525  5.24  0.  0.
   526  5.25  0.  0.
   527  5.26  0.  0.
   528  5.27  0.  0.
   529  5.28  0.  0.
   530  5.29  0.  0.
   531  5.30  0.  0.
   532  5.31  0.  0.
   533  5.32  0.  0.
   534  5.33  0.  0.
   535  5.34  0.  0.
   536  5.35  0.  0.
   537  5.36  0.  0.
   538  5.37  0.  0.
   539  5.38  0.  0.
   540  5.39  0.  0.
   541  5.40  0.  0.
   542  5.41  0.  0.
   543  5.42  0.  0.
   544  5.43  0.  0.
   545  5.44  0.  0.
   546  5.45  0.  0.
   547  5.46  0.  0.
   548  5.47  0.  0.
   549  5.48  0.  0.
   550  5.49  0.  0.
   551  5.50  0.  0.
   552  5.51  0.  0.
   553  5.52  0.  0.
   554  5.53  0.  0.
   555  5.54  0.  0.
   556  5.55  0.  0.
   557  5.56  0.  0.
   558  5.57  0.  0.
   559  5.58  0.  0.
   560  5.59  0.  0.
   561  5.60  0.  0.
   562  5.61  0.  0.
   563  5.62  0.  0.
   564  5.63  0.  0.
   565  5.64  0.  0.
   566  5.65  0.  0.
   567  5.66  0.  0.
   568  5.67  0.  0.
   569  5.68  0.  0.
   570  5.69  0.  0.
   571  5.70  0.  0.
   572  5.71  0.  0.
   573  5.72  0.  0.
   574  5.73  0.  0.
   575  5.74  0.  0.
   576  5.75  0.  0.
   577  5.76  0.  0.
   578  5.77  0.  0.
   579  5.78  0.  0.
   580  5.79  0.  0.
   581  5.80  0.  0.
   582  5.81  0.  0.
   583  5.82  0.  0.
   584  5.83  0.  0.
   585  5.84  0.  0.
   586  5.85  0.  0.
   587  5.86  0.  0.
   588  5.87  0.  0.
   589  5.88  0.  0.
   590  5.89  0.  0.
   591  5.90  0.  0.
   592  5.91  0.  0.
   593  5.92  0.  0.
   594  5.93  0.  0.
   595  5.94  0.  0.
   596  5.95  0.  0.
   597  5.96  0.  0.
   598  5.97  0.  0.
   599  5.98  0.  0.
   600  5.99  0.  0.
   1                         6.1645418088052E+00  9.1949124707148E-01
     1  0.0000000000000E+00  4.6312124149517E-08  2.7626679624526E-08
     2  1.0000000000000E-02  2.0498643184432E-03  1.2336053170458E-03
     3  2.0000000000000E-02  8.1459585103544E-03  4.9042368262228E-03
     4  3.0000000000000E-02  1.8129031113614E-02  1.0922069221541E-02
     5  4.0000000000000E-02  3.1737784557294E-02  1.9139803695280E-02
     6  5.0000000000000E-02  4.8614960438201E-02  2.9356224920957E-02
     7  6.0000000000000E-02  6.8315667040621E-02  4.1321066014237E-02
     8  7.0000000000000E-02  9.0317762264843E-02  5.4741069720297E-02
     9  8.0000000000000E-02  1.1403405881792E-01  6.9287106449466E-02
    10  9.0000000000000E-02  1.3882607730108E-01  8.4602185254214E-02
    11  1.0000000000000E-01  1.6401903760746E-01  1.0031017295862E-01
    12  1.1000000000000E-01  1.8891775059862E-01  1.1602501988586E-01
    13  1.2000000000000E-01  2.1282305098939E-01  1.3136027836061E-01
    14  1.3000000000000E-01  2.3504839921253E-01  1.4593869267335E-01
    15  1.4000000000000E-01  2.5493627505891E-01  1.5940163666197E-01
    16  1.5000000000000E-01  2.7187398922527E-01  1.7141817756191E-01
    17  1.6000000000000E-01  2.8530855049734E-01  1.8169355226042E-01
    18  1.7000000000000E-01  2.9476024592218E-01  1.8997685441459E-01
    19  1.8000000000000E-01  2.9983461857647E-01  1.9606774780075E-01
    20  1.9000000000000E-01  3.0023256184846E-01  1.9982204239895E-01
    21  2.0000000000000E-01  2.9575828979696E-01  2.0115599462949E-01
    22  2.1000000000000E-01  2.8632498927038E-01  2.0004922131559E-01
    23  2.2000000000000E-01  2.7195801007886E-01  1.9654614773815E-01
    24  2.3000000000000E-01  2.5279550353165E-01  1.9075594290891E-01
    25  2.4000000000000E-01  2.2908647591804E-01  1.8285092920274E-01
    26  2.5000000000000E-01  2.0118628081280E-01  1.7306348801322E-01
    27  2.6000000000000E-01  1.6954963118318E-01  1.6168151737042E-01
    28  2.7000000000000E-01  1.3472126792497E-01  1.4904253072629E-01
    29  2.8000000000000E-01  9.7324474443320E-02  1.3552651763267E-01
    30  2.9000000000000E-01  5.8047676056002E-02  1.2154771610342E-01
    31  3.0000000000000E-01  1.7629407245385E-02  1.0754547240868E-01
    32  3.1000000000000E-01 -2.3158031866588E-02  9.3974386303674E-02
    33  3.2000000000000E-01 -6.3525876864416E-02  8.1293957730123E-02
    34  3.3000000000000E-01 -1.0268678115940E-01  6.9957964418849E-02
    35  3.4000000000000E-01 -1.3987288580626E-01  6.0403808237340E-02
    36  3.5000000000000E-01 -1.7435367636393E-01  5.3042071343423E-02
    37  3.6000000000000E-01 -2.0545322725200E-01  4.8246521113237E-02
    38  3.7000000000000E-01 -2.3256644386872E-01  4.6344795411174E-02
    39  3.8000000000000E-01 -2.5517393111209E-01  4.7609987178868E-02
    40  3.9000000000000E-01 -2.7285514354493E-01  5.2253329770666E-02
    41  4.0000000000000E-01 -2.8529950675442E-01  6.0418162294560E-02
    42  4.1000000000000E-01 -2.9231524079509E-01  7.2175327873094E-02
    43  4.2000000000000E-01 -2.9383566413319E-01  8.7520127755144E-02
    44  4.3000000000000E-01 -2.8992280925604E-01  1.0637092120644E-01
    45  4.4000000000000E-01 -2.8076823797856E-01  1.2856942577459E-01
    46  4.5000000000000E-01 -2.6669100428251E-01  1.5388273560943E-01
    47  4.6000000000000E-01 -2.4813277400151E-01  1.8200703780911E-01
    48  4.7000000000000E-01 -2.2565017251222E-01  2.1257296906696E-01
    49  4.8000000000000E-01 -1.9990449248711E-01  2.4515251803252E-01
    50  4.9000000000000E-01 -1.7164895239388E-01  2.7926734357922E-01
    51  5.0000000000000E-01 -1.4171375151839E-01  3.1439834637113E-01
    52  5.1000000000000E-01 -1.1098921763192E-01  3.4999630147650E-01
    53  5.2000000000000E-01 -8.0407387903558E-02  3.8549333396151E-01
    54  5.3000000000000E-01 -5.0922401272390E-02  4.2031499801102E-01
    55  5.4000000000000E-01 -2.3490110378417E-02  4.5389270367539E-01
    56  5.5000000000000E-01  9.5265740188536E-04  4.8567622424013E-01
    57  5.6000000000000E-01  2.1508747792726E-02  5.1514601175899E-01
    58  5.7000000000000E-01  3.7340791149248E-02  5.4182504865966E-01
    59  5.8000000000000E-01  4.7690338817279E-02  5.6528996958435E-01
    60  5.9000000000000E-01  5.1895601203425E-02  5.8518119969636E-01
    61  6.0000000000000E-01  4.9407389364231E-02  6.0121187337913E-01
    62  6.1000000000000E-01  3.9802895593493E-02  6.1317532025945E-01
    63  6.2000000000000E-01  2.2796990270505E-02  6.2095093337470E-01
    64  6.3000000000000E-01 -1.7492386779076E-03  6.2450826653424E-01
    65  6.4000000000000E-01 -3.3822921918391E-02  6.2390924386224E-01
    66  6.5000000000000E-01 -7.3256978012112E-02  6.1930840343125E-01
    67  6.6000000000000E-01 -1.1973090877370E-01  6.1095113800782E-01
    68  6.7000000000000E-01 -1.7277484625117E-01  5.9916993838694E-01
    69  6.8000000000000E-01 -2.3177680827385E-01  5.8437868770411E-01
    70  6.9000000000000E-01 -2.9599305105380E-01  5.6706509757397E-01
    71  7.0000000000000E-01 -3.6456134045587E-01  5.4778141801233E-01
    72  7.1000000000000E-01 -4.3651689970615E-01  5.2713359195741E-01
    73  7.2000000000000E-01 -5.1081073184936E-01  5.0576906097430E-01
    74  7.3000000000000E-01 -5.8632996149798E-01  4.8436346060188E-01
    75  7.4000000000000E-01 -6.6191979351991E-01  4.6360647106477E-01
    76  7.5000000000000E-01 -7.3640664734359E-01  4.4418711109112E-01
    77  7.6000000000000E-01 -8.0862199542089E-01  4.2677877881651E-01
    78  7.7000000000000E-01 -8.7742641379912E-01  4.1202435380299E-01
    79  7.8000000000000E-01 -9.4173334224514E-01  4.0052167776781E-01
    80  7.9000000000000E-01 -1.0005320512639E+00  3.9280972854130E-01
    81  8.0000000000000E-01 -1.0529093237695E+00  3.8935579203755E-01
    82  8.1000000000000E-01 -1.0980693799940E+00  3.9054392074240E-01
    83  8.2000000000000E-01 -1.1353516051327E+00  3.9666494465942E-01
    84  8.3000000000000E-01 -1.1642456796863E+00  4.0790827219368E-01
    85  8.4000000000000E-01 -1.1844037617297E+00  4.2435568461660E-01
    86  8.5000000000000E-01 -1.1956494274822E+00  4.4597728917850E-01
    87  8.6000000000000E-01 -1.1979831404695E+00  4.7262975335991E-01
    88  8.7000000000000E-01 -1.1915840890008E+00  5.0405689701578E-01
    89  8.8000000000000E-01 -1.1768083052500E+00  5.3989267117523E-01
    90  8.9000000000000E-01 -1.1541830554502E+00  5.7966650298398E-01
    91  9.0000000000000E-01 -1.1243975680320E+00  6.2281093671934E-01
    92  9.1000000000000E-01 -1.0882902433708E+00  6.6867145199781E-01
    93  9.2000000000000E-01 -1.0468325635681E+00  7.1651829324329E-01
    94  9.3000000000000E-01 -1.0011099917988E+00  7.6556010019522E-01
    95  9.4000000000000E-01 -9.5230021671898E-01  8.1495908865413E-01
    96  9.5000000000000E-01 -9.0164915681863E-01  8.6384749467433E-01
    97  9.6000000000000E-01 -8.5044519113893E-01  9.1134496481822E-01
    98  9.7000000000000E-01 -7.9999212529857E-01  9.5657655058943E-01
    99  9.8000000000000E-01 -7.5158143433885E-01  9.9869094732942E-01
   100  9.9000000000000E-01 -7.0646434570378E-01  1.0368786071641E+00
   101  1.0000000000000E+00 -6.6582433617318E-01  1.0703893523227E+00
   102  1.0100000000000E+00 -6.3075061543924E-01  1.0985491194769E+00
   103  1.0200000000000E+00 -6.0221315613914E-01  1.1207754776840E+00
   104  1.0300000000000E+00 -5.8103980567114E-01  1.1365915819245E+00
   105  1.0400000000000E+00 -5.6789597946614E-01  1.1456382507404E+00
   106  1.0500000000000E+00 -5.6326738906166E-01  1.1476838897614E+00
   107  1.0600000000000E+00 -5.6744620225805E-01  1.1426320222633E+00
   108  1.0700000000000E+00 -5.8052096791882E-01  1.1305262326091E+00
   109  1.0800000000000E+00 -6.0237056557000E-01  1.1115523777923E+00
   110  1.0900000000000E+00 -6.3266236171294E-01  1.0860379751027E+00
   111  1.1000000000000E+00 -6.7085467169199E-01  1.0544487294791E+00
   112  1.1100000000000E+00 -7.1620354014137E-01  1.0173822210173E+00
   113  1.1200000000000E+00 -7.6777376592915E-01  9.7555883040854E-01
   114  1.1300000000000E+00 -8.2445401089216E-01  9.2981003661699E-01
   115  1.1400000000000E+00 -8.8497574747515E-01  8.8106427559964E-01
   116  1.1500000000000E+00 -9.4793572000888E-01  8.3033060043173E-01