Al    ONCVPSP-4.0.1  r_core=   1.83650   1.96141   1.70928
     13.0000      3.0000      250926    zatom,zion,pspd
     8   -1012   2     4   600     0    pspcod,pspxc,lmax,lloc,mmax,r2well
  5.99000000  4.45000000  0.00000000    rchrg fchrg qchrg
     2     2     2     0    nproj
     3     1           extension_switch
     3     4     0    nprojso
   0                         5.2751208122304E+00  5.6546963068706E-01
     1  0.0000000000000E+00  1.9337495771321E-09 -5.2130672625883E-09
     2  1.0000000000000E-02  1.9561276542319E-02  4.1803366388357E-03
     3  2.0000000000000E-02  3.9212862194931E-02  8.1215584810343E-03
     4  3.0000000000000E-02  5.9043367123468E-02  1.1589000795325E-02
     5  4.0000000000000E-02  7.9138032944709E-02  1.4356820569598E-02
     6  5.0000000000000E-02  9.9577121298677E-02  1.6212212702355E-02
     7  6.0000000000000E-02  1.2043438843212E-01  1.6959396379326E-02
     8  7.0000000000000E-02  1.4177567214864E-01  1.6423301272629E-02
     9  8.0000000000000E-02  1.6365761554697E-01  1.4452888412876E-02
    10  9.0000000000000E-02  1.8612654961411E-01  1.0924046932086E-02
    11  1.0000000000000E-01  2.0921755400396E-01  5.7420152481971E-03
    12  1.1000000000000E-01  2.3295371226191E-01 -1.1567164650654E-03
    13  1.2000000000000E-01  2.5734557440282E-01 -9.8030566486382E-03
    14  1.3000000000000E-01  2.8239083617216E-01 -2.0194540060307E-02
    15  1.4000000000000E-01  3.0807424057792E-01 -3.2295147227695E-02
    16  1.5000000000000E-01  3.3436770343829E-01 -4.6035719733522E-02
    17  1.6000000000000E-01  3.6123066081315E-01 -6.1314964989124E-02
    18  1.7000000000000E-01  3.8861063234153E-01 -7.8001033818864E-02
    19  1.8000000000000E-01  4.1644399075940E-01 -9.5933644114338E-02
    20  1.9000000000000E-01  4.4465692428537E-01 -1.1492671419757E-01
    21  2.0000000000000E-01  4.7316657519954E-01 -1.3477146052353E-01
    22  2.1000000000000E-01  5.0188233485893E-01 -1.5523990610971E-01
    23  2.2000000000000E-01  5.3070727264706E-01 -1.7608873875036E-01
    24  2.3000000000000E-01  5.5953967399084E-01 -1.9706345178078E-01
    25  2.4000000000000E-01  5.8827466063896E-01 -2.1790269501742E-01
    26  2.5000000000000E-01  6.1680586491383E-01 -2.3834275960107E-01
    27  2.6000000000000E-01  6.4502712865339E-01 -2.5812211788686E-01
    28  2.7000000000000E-01  6.7283419706519E-01 -2.7698593830218E-01
    29  2.8000000000000E-01  7.0012637773578E-01 -2.9469049526011E-01
    30  2.9000000000000E-01  7.2680813557239E-01 -3.1100739577058E-01
    31  3.0000000000000E-01  7.5279059549530E-01 -3.2572754731523E-01
    32  3.1000000000000E-01  7.7799292623116E-01 -3.3866479579720E-01
    33  3.2000000000000E-01  8.0234358055530E-01 -3.4965916787747E-01
    34  3.3000000000000E-01  8.2578136976278E-01 -3.5857965867393E-01
    35  3.4000000000000E-01  8.4825635297220E-01 -3.6532651351902E-01
    36  3.5000000000000E-01  8.6973052503813E-01 -3.6983296111781E-01
    37  3.6000000000000E-01  8.9017829031218E-01 -3.7206636487568E-01
    38  3.7000000000000E-01  9.0958671319311E-01 -3.7202876921466E-01
    39  3.8000000000000E-01  9.2795554027890E-01 -3.6975682820080E-01
    40  3.9000000000000E-01  9.4529699291416E-01 -3.6532111458164E-01
    41  4.0000000000000E-01  9.6163533294537E-01 -3.5882481819916E-01
    42  4.1000000000000E-01  9.7700620848717E-01 -3.5040185351463E-01
    43  4.2000000000000E-01  9.9145579039545E-01 -3.4021440646864E-01
    44  4.3000000000000E-01  1.0050397138704E+00 -3.2844996092325E-01
    45  4.4000000000000E-01  1.0178218431115E+00 -3.1531785431720E-01
    46  4.5000000000000E-01  1.0298728801528E+00 -3.0104542074398E-01
    47  4.6000000000000E-01  1.0412688418681E+00 -2.8587378728631E-01
    48  4.7000000000000E-01  1.0520894315966E+00 -2.7005339596897E-01
    49  4.8000000000000E-01  1.0624163338608E+00 -2.5383932901040E-01
    50  4.9000000000000E-01  1.0723314621858E+00 -2.3748651905873E-01
    51  5.0000000000000E-01  1.0819151910634E+00 -2.2124492871640E-01
    52  5.1000000000000E-01  1.0912446036045E+00 -2.0535478483347E-01
    53  5.2000000000000E-01  1.1003917863844E+00 -1.9004195275271E-01
    54  5.3000000000000E-01  1.1094222024005E+00 -1.7551353391770E-01
    55  5.4000000000000E-01  1.1183931719456E+00 -1.6195376702520E-01
    56  5.5000000000000E-01  1.1273524895505E+00 -1.4952030826194E-01
    57  5.6000000000000E-01  1.1363372030162E+00 -1.3834096018437E-01
    58  5.7000000000000E-01  1.1453725779480E+00 -1.2851091156745E-01
    59  5.8000000000000E-01  1.1544712681774E+00 -1.2009054218246E-01
    60  5.9000000000000E-01  1.1636327090598E+00 -1.1310383709907E-01
    61  6.0000000000000E-01  1.1728427469117E+00 -1.0753744489319E-01
    62  6.1000000000000E-01  1.1820735138787E+00 -1.0334040325136E-01
    63  6.2000000000000E-01  1.1912835533530E+00 -1.0042454407227E-01
    64  6.3000000000000E-01  1.2004181967699E+00 -9.8665578470173E-02
    65  6.4000000000000E-01  1.2094101882713E+00 -9.7904850277265E-02
    66  6.5000000000000E-01  1.2181805494052E+00 -9.7951734926195E-02
    67  6.6000000000000E-01  1.2266396718110E+00 -9.8586649169472E-02
    68  6.7000000000000E-01  1.2346886217882E+00 -9.9564626155240E-02
    69  6.8000000000000E-01  1.2422206368342E+00 -1.0061940012151E-01
    70  6.9000000000000E-01  1.2491227907304E+00 -1.0146793557310E-01
    71  7.0000000000000E-01  1.2552778006212E+00 -1.0181532743375E-01
    72  7.1000000000000E-01  1.2605659468134E+00 -1.0135999147200E-01
    73  7.2000000000000E-01  1.2648670737862E+00 -9.9799058417394E-02
    74  7.3000000000000E-01  1.2680626391781E+00 -9.6833880722350E-02
    75  7.4000000000000E-01  1.2700377763393E+00 -9.2175557974862E-02
    76  7.5000000000000E-01  1.2706833354413E+00 -8.5550385592135E-02
    77  7.6000000000000E-01  1.2698978681149E+00 -7.6705131660342E-02
    78  7.7000000000000E-01  1.2675895211764E+00 -6.5412048645045E-02
    79  7.8000000000000E-01  1.2636778061635E+00 -5.1473530161075E-02
    80  7.9000000000000E-01  1.2580952131510E+00 -3.4726328018185E-02
    81  8.0000000000000E-01  1.2507886396061E+00 -1.5045251277056E-02
    82  8.1000000000000E-01  1.2417206078545E+00  7.6537230344353E-03
    83  8.2000000000000E-01  1.2308702480096E+00  3.3410988705082E-02
    84  8.3000000000000E-01  1.2182340269194E+00  6.2221549462429E-02
    85  8.4000000000000E-01  1.2038262077577E+00  9.4033997979176E-02
    86  8.5000000000000E-01  1.1876790292463E+00  1.2875026223081E-01
    87  8.6000000000000E-01  1.1698425980940E+00  1.6622613399855E-01
    88  8.7000000000000E-01  1.1503844929783E+00  2.0627258125488E-01
    89  8.8000000000000E-01  1.1293890832211E+00  2.4865783294202E-01
    90  8.9000000000000E-01  1.1069565701202E+00  2.9311021147834E-01
    91  9.0000000000000E-01  1.0832017636290E+00  3.3932167542519E-01
    92  9.1000000000000E-01  1.0582526116350E+00  3.8695202233550E-01
    93  9.2000000000000E-01  1.0322485034089E+00  4.3563369009983E-01
    94  9.3000000000000E-01  1.0053383727896E+00  4.8497708430592E-01
    95  9.4000000000000E-01  9.7767863028595E-01  5.3457634942717E-01
    96  9.5000000000000E-01  9.4943095642970E-01  5.8401549322323E-01
    97  9.6000000000000E-01  9.2075999136571E-01  6.3287476672844E-01
    98  9.7000000000000E-01  8.9183095775688E-01  6.8073719675036E-01
    99  9.8000000000000E-01  8.6280725557481E-01  7.2719516400820E-01
   100  9.9000000000000E-01  8.3384806821397E-01  7.7185691798870E-01
   101  1.0000000000000E+00  8.0510601958505E-01  8.1435291933904E-01
   102  1.0100000000000E+00  7.7672492140453E-01  8.5434190216848E-01
   103  1.0200000000000E+00  7.4883764880218E-01  8.9151655199286E-01
   104  1.0300000000000E+00  7.2156418062824E-01  9.2560870018756E-01
   105  1.0400000000000E+00  6.9500983848372E-01  9.5639394263996E-01
   106  1.0500000000000E+00  6.6926375554852E-01  9.8369559873302E-01
   107  1.0600000000000E+00  6.4439760278982E-01  1.0073879367094E+00
   108  1.0700000000000E+00  6.2046459615567E-01  1.0273986027017E+00
   109  1.0800000000000E+00  5.9749880393911E-01  1.0437102031431E+00
   110  1.0900000000000E+00  5.7551476873462E-01  1.0563610036195E+00
   111  1.1000000000000E+00  5.5450745334443E-01  1.0654447213726E+00
   112  1.1100000000000E+00  5.3445251473510E-01  1.0711094033068E+00
   113  1.1200000000000E+00  5.1530690476456E-01  1.0735553963020E+00
   114  1.1300000000000E+00  4.9700979098492E-01  1.0730324316391E+00
   115  1.1400000000000E+00  4.7948378547843E-01  1.0698358601337E+00
   116  1.1500000000000E+00  4.6263646446873E-01  1.0643020889482E+00
   117  1.1600000000000E+00  4.4636215648208E-01  1.0568032847139E+00
   118  1.1700000000000E+00  4.3054397216959E-01  1.0477414203733E+00
   119  1.1800000000000E+00  4.1505604464247E-01  1.0375417547837E+00
   120  1.1900000000000E+00  3.9976594538184E-01  1.0266458444193E+00
   121  1.2000000000000E+00  3.8453723752253E-01  1.0155041953181E+00
   122  1.2100000000000E+00  3.6923212565742E-01  1.0045686705166E+00
   123  1.2200000000000E+00  3.5371415927947E-01  9.9428477355755E-01
   124  1.2300000000000E+00  3.3785094564921E-01  9.8508393204693E-01
   125  1.2400000000000E+00  3.2151682724014E-01  9.7737590668526E-01
   126  1.2500000000000E+00  3.0459547901802E-01  9.7154145059057E-01
   127  1.2600000000000E+00  2.8698238162896E-01  9.6792534113422E-01
   128  1.2700000000000E+00  2.6858712812926E-01  9.6682990186137E-01
   129  1.2800000000000E+00  2.4933552414458E-01  9.6850912549085E-01
   130  1.2900000000000E+00  2.2917144426192E-01  9.7316350058478E-01
   131  1.3000000000000E+00  2.0805841103442E-01  9.8093563424979E-01
   132  1.3100000000000E+00  1.8598086711253E-01  9.9190675147299E-01
   133  1.3200000000000E+00  1.6294511565760E-01  1.0060941385438E+00
   134  1.3300000000000E+00  1.3897990931643E-01  1.0234495835456E+00
   135  1.3400000000000E+00  1.1413667349366E-01  1.0438588515292E+00
   136  1.3500000000000E+00  8.8489355414105E-02  1.0671422158066E+00
   137  1.3600000000000E+00  6.2133896396844E-02  1.0930560501762E+00
   138  1.3700000000000E+00  3.5187330826942E-02  1.1212954699166E+00
   139  1.3800000000000E+00  7.7865213308168E-03  1.1514979925669E+00
   140  1.3900000000000E+00 -1.9913454377364E-02  1.1832481728862E+00
   141  1.4000000000000E+00 -4.7741243783108E-02  1.2160831504388E+00
   142  1.4100000000000E+00 -7.5511460296476E-02  1.2494990329682E+00
   143  1.4200000000000E+00 -1.0302719265264E-01  1.2829580246777E+00
   144  1.4300000000000E+00 -1.3008274658419E-01  1.3158961957015E+00
   145  1.4400000000000E+00 -1.5646657826392E-01  1.3477317777524E+00
   146  1.4500000000000E+00 -1.8196437553626E-01  1.3778738612471E+00
   147  1.4600000000000E+00 -2.0636224011323E-01  1.4057313617566E+00
   148  1.4700000000000E+00 -2.2944992202297E-01  1.4307221233113E+00
   149  1.4800000000000E+00 -2.5102405621268E-01  1.4522820304926E+00
   150  1.4900000000000E+00 -2.7089137886136E-01  1.4698748890496E+00
   151  1.5000000000000E+00 -2.8887188380562E-01  1.4830025109528E+00
   152  1.5100000000000E+00 -3.0480182677991E-01  1.4912134073859E+00
   153  1.5200000000000E+00 -3.1853653209273E-01  1.4941106967779E+00
   154  1.5300000000000E+00 -3.2995296059554E-01  1.4913593323155E+00
   155  1.5400000000000E+00 -3.3895199658102E-01  1.4826925217588E+00
   156  1.5500000000000E+00 -3.4546041539561E-01  1.4679172340382E+00
   157  1.5600000000000E+00 -3.4943249806628E-01  1.4469186988862E+00
   158  1.5700000000000E+00 -3.5085126433140E-01  1.4196638202108E+00
   159  1.5800000000000E+00 -3.4972930102960E-01  1.3862034396487E+00
   160  1.5900000000000E+00 -3.4610916875577E-01  1.3466734035473E+00
   161  1.6000000000000E+00 -3.4006337595011E-01  1.3012944042679E+00
   162  1.6100000000000E+00 -3.3169391604412E-01  1.2503705848596E+00
   163  1.6200000000000E+00 -3.2113136985710E-01  1.1942869146687E+00
   164  1.6300000000000E+00 -3.0853358201105E-01  1.1335053618758E+00
   165  1.6400000000000E+00 -2.9408392659151E-01  1.0685599071078E+00
   166  1.6500000000000E+00 -2.7798918358097E-01  1.0000504599284E+00
   167  1.6600000000000E+00 -2.6047705355778E-01  9.2863575672454E-01
   168  1.6700000000000E+00 -2.4179334375326E-01  8.5502533418392E-01
   169  1.6800000000000E+00 -2.2219886367738E-01  7.7997068686634E-01
   170  1.6900000000000E+00 -2.0196607308513E-01  7.0425573011582E-01
   171  1.7000000000000E+00 -1.8137552898839E-01  6.2868670052791E-01
   172  1.7100000000000E+00 -1.6071218144364E-01  5.5408163448505E-01
   173  1.7200000000000E+00 -1.4026157235493E-01  4.8125957907978E-01
   174  1.7300000000000E+00 -1.2030598535578E-01  4.1102966689751E-01
   175  1.7400000000000E+00 -1.0112061223380E-01  3.4418024801819E-01
   176  1.7500000000000E+00 -8.2970168105420E-02  2.8146950394632E-01
   177  1.7600000000000E+00 -6.6106427360775E-02  2.2361877276387E-01
   178  1.7700000000000E+00 -5.0761441618936E-02  1.7129165809625E-01
   179  1.7800000000000E+00 -3.7145356531012E-02  1.2508894017772E-01
   180  1.7900000000000E+00 -2.5443893496749E-02  8.5541702050370E-02
   181  1.8000000000000E+00 -1.5815715282587E-02  5.3103803234914E-02
   182  1.8100000000000E+00 -8.3934840116706E-03  2.8156578615429E-02
   183  1.8200000000000E+00 -3.2457747287015E-03  1.0882095417068E-02
   184  1.8300000000000E+00 -5.6514637817227E-04  1.8942539358676E-03
   185  1.8400000000000E+00  6.9532644480241E-05 -2.3307774152163E-04
   186  1.8500000000000E+00 -1.6127163623773E-05  5.4052216217567E-05
   187  1.86  0.  0.
   188  1.87  0.  0.
   189  1.88  0.  0.
   190  1.89  0.  0.
   191  1.90  0.  0.
   192  1.91  0.  0.
   193  1.92  0.  0.
   194  1.93  0.  0.
   195  1.94  0.  0.
   196  1.95  0.  0.
   197  1.96  0.  0.
   198  1.97  0.  0.
   199  1.98  0.  0.
   200  1.99  0.  0.
   201  2.00  0.  0.
   202  2.01  0.  0.
   203  2.02  0.  0.
   204  2.03  0.  0.
   205  2.04  0.  0.
   206  2.05  0.  0.
   207  2.06  0.  0.
   208  2.07  0.  0.
   209  2.08  0.  0.
   210  2.09  0.  0.
   211  2.10  0.  0.
   212  2.11  0.  0.
   213  2.12  0.  0.
   214  2.13  0.  0.
   215  2.14  0.  0.
   216  2.15  0.  0.
   217  2.16  0.  0.
   218  2.17  0.  0.
   219  2.18  0.  0.
   220  2.19  0.  0.
   221  2.20  0.  0.
   222  2.21  0.  0.
   223  2.22  0.  0.
   224  2.23  0.  0.
   225  2.24  0.  0.
   226  2.25  0.  0.
   227  2.26  0.  0.
   228  2.27  0.  0.
   229  2.28  0.  0.
   230  2.29  0.  0.
   231  2.30  0.  0.
   232  2.31  0.  0.
   233  2.32  0.  0.
   234  2.33  0.  0.
   235  2.34  0.  0.
   236  2.35  0.  0.
   237  2.36  0.  0.
   238  2.37  0.  0.
   239  2.38  0.  0.
   240  2.39  0.  0.
   241  2.40  0.  0.
   242  2.41  0.  0.
   243  2.42  0.  0.
   244  2.43  0.  0.
   245  2.44  0.  0.
   246  2.45  0.  0.
   247  2.46  0.  0.
   248  2.47  0.  0.
   249  2.48  0.  0.
   250  2.49  0.  0.
   251  2.50  0.  0.
   252  2.51  0.  0.
   253  2.52  0.  0.
   254  2.53  0.  0.
   255  2.54  0.  0.
   256  2.55  0.  0.
   257  2.56  0.  0.
   258  2.57  0.  0.
   259  2.58  0.  0.
   260  2.59  0.  0.
   261  2.60  0.  0.
   262  2.61  0.  0.
   263  2.62  0.  0.
   264  2.63  0.  0.
   265  2.64  0.  0.
   266  2.65  0.  0.
   267  2.66  0.  0.
   268  2.67  0.  0.
   269  2.68  0.  0.
   270  2.69  0.  0.
   271  2.70  0.  0.
   272  2.71  0.  0.
   273  2.72  0.  0.
   274  2.73  0.  0.
   275  2.74  0.  0.
   276  2.75  0.  0.
   277  2.76  0.  0.
   278  2.77  0.  0.
   279  2.78  0.  0.
   280  2.79  0.  0.
   281  2.80  0.  0.
   282  2.81  0.  0.
   283  2.82  0.  0.
   284  2.83  0.  0.
   285  2.84  0.  0.
   286  2.85  0.  0.
   287  2.86  0.  0.
   288  2.87  0.  0.
   289  2.88  0.  0.
   290  2.89  0.  0.
   291  2.90  0.  0.
   292  2.91  0.  0.
   293  2.92  0.  0.
   294  2.93  0.  0.
   295  2.94  0.  0.
   296  2.95  0.  0.
   297  2.96  0.  0.
   298  2.97  0.  0.
   299  2.98  0.  0.
   300  2.99  0.  0.
   301  3.00  0.  0.
   302  3.01  0.  0.
   303  3.02  0.  0.
   304  3.03  0.  0.
   305  3.04  0.  0.
   306  3.05  0.  0.
   307  3.06  0.  0.
   308  3.07  0.  0.
   309  3.08  0.  0.
   310  3.09  0.  0.
   311  3.10  0.  0.
   312  3.11  0.  0.
   313  3.12  0.  0.
   314  3.13  0.  0.
   315  3.14  0.  0.
   316  3.15  0.  0.
   317  3.16  0.  0.
   318  3.17  0.  0.
   319  3.18  0.  0.
   320  3.19  0.  0.
   321  3.20  0.  0.
   322  3.21  0.  0.
   323  3.22  0.  0.
   324  3.23  0.  0.
   325  3.24  0.  0.
   326  3.25  0.  0.
   327  3.26  0.  0.
   328  3.27  0.  0.
   329  3.28  0.  0.
   330  3.29  0.  0.
   331  3.30  0.  0.
   332  3.31  0.  0.
   333  3.32  0.  0.
   334  3.33  0.  0.
   335  3.34  0.  0.
   336  3.35  0.  0.
   337  3.36  0.  0.
   338  3.37  0.  0.
   339  3.38  0.  0.
   340  3.39  0.  0.
   341  3.40  0.  0.
   342  3.41  0.  0.
   343  3.42  0.  0.
   344  3.43  0.  0.
   345  3.44  0.  0.
   346  3.45  0.  0.
   347  3.46  0.  0.
   348  3.47  0.  0.
   349  3.48  0.  0.
   350  3.49  0.  0.
   351  3.50  0.  0.
   352  3.51  0.  0.
   353  3.52  0.  0.
   354  3.53  0.  0.
   355  3.54  0.  0.
   356  3.55  0.  0.
   357  3.56  0.  0.
   358  3.57  0.  0.
   359  3.58  0.  0.
   360  3.59  0.  0.
   361  3.60  0.  0.
   362  3.61  0.  0.
   363  3.62  0.  0.
   364  3.63  0.  0.
   365  3.64  0.  0.
   366  3.65  0.  0.
   367  3.66  0.  0.
   368  3.67  0.  0.
   369  3.68  0.  0.
   370  3.69  0.  0.
   371  3.70  0.  0.
   372  3.71  0.  0.
   373  3.72  0.  0.
   374  3.73  0.  0.
   375  3.74  0.  0.
   376  3.75  0.  0.
   377  3.76  0.  0.
   378  3.77  0.  0.
   379  3.78  0.  0.
   380  3.79  0.  0.
   381  3.80  0.  0.
   382  3.81  0.  0.
   383  3.82  0.  0.
   384  3.83  0.  0.
   385  3.84  0.  0.
   386  3.85  0.  0.
   387  3.86  0.  0.
   388  3.87  0.  0.
   389  3.88  0.  0.
   390  3.89  0.  0.
   391  3.90  0.  0.
   392  3.91  0.  0.
   393  3.92  0.  0.
   394  3.93  0.  0.
   395  3.94  0.  0.
   396  3.95  0.  0.
   397  3.96  0.  0.
   398  3.97  0.  0.
   399  3.98  0.  0.
   400  3.99  0.  0.
   401  4.00  0.  0.
   402  4.01  0.  0.
   403  4.02  0.  0.
   404  4.03  0.  0.
   405  4.04  0.  0.
   406  4.05  0.  0.
   407  4.06  0.  0.
   408  4.07  0.  0.
   409  4.08  0.  0.
   410  4.09  0.  0.
   411  4.10  0.  0.
   412  4.11  0.  0.
   413  4.12  0.  0.
   414  4.13  0.  0.
   415  4.14  0.  0.
   416  4.15  0.  0.
   417  4.16  0.  0.
   418  4.17  0.  0.
   419  4.18  0.  0.
   420  4.19  0.  0.
   421  4.20  0.  0.
   422  4.21  0.  0.
   423  4.22  0.  0.
   424  4.23  0.  0.
   425  4.24  0.  0.
   426  4.25  0.  0.
   427  4.26  0.  0.
   428  4.27  0.  0.
   429  4.28  0.  0.
   430  4.29  0.  0.
   431  4.30  0.  0.
   432  4.31  0.  0.
   433  4.32  0.  0.
   434  4.33  0.  0.
   435  4.34  0.  0.
   436  4.35  0.  0.
   437  4.36  0.  0.
   438  4.37  0.  0.
   439  4.38  0.  0.
   440  4.39  0.  0.
   441  4.40  0.  0.
   442  4.41  0.  0.
   443  4.42  0.  0.
   444  4.43  0.  0.
   445  4.44  0.  0.
   446  4.45  0.  0.
   447  4.46  0.  0.
   448  4.47  0.  0.
   449  4.48  0.  0.
   450  4.49  0.  0.
   451  4.50  0.  0.
   452  4.51  0.  0.
   453  4.52  0.  0.
   454  4.53  0.  0.
   455  4.54  0.  0.
   456  4.55  0.  0.
   457  4.56  0.  0.
   458  4.57  0.  0.
   459  4.58  0.  0.
   460  4.59  0.  0.
   461  4.60  0.  0.
   462  4.61  0.  0.
   463  4.62  0.  0.
   464  4.63  0.  0.
   465  4.64  0.  0.
   466  4.65  0.  0.
   467  4.66  0.  0.
   468  4.67  0.  0.
   469  4.68  0.  0.
   470  4.69  0.  0.
   471  4.70  0.  0.
   472  4.71  0.  0.
   473  4.72  0.  0.
   474  4.73  0.  0.
   475  4.74  0.  0.
   476  4.75  0.  0.
   477  4.76  0.  0.
   478  4.77  0.  0.
   479  4.78  0.  0.
   480  4.79  0.  0.
   481  4.80  0.  0.
   482  4.81  0.  0.
   483  4.82  0.  0.
   484  4.83  0.  0.
   485  4.84  0.  0.
   486  4.85  0.  0.
   487  4.86  0.  0.
   488  4.87  0.  0.
   489  4.88  0.  0.
   490  4.89  0.  0.
   491  4.90  0.  0.
   492  4.91  0.  0.
   493  4.92  0.  0.
   494  4.93  0.  0.
   495  4.94  0.  0.
   496  4.95  0.  0.
   497  4.96  0.  0.
   498  4.97  0.  0.
   499  4.98  0.  0.
   500  4.99  0.  0.
   501  5.00  0.  0.
   502  5.01  0.  0.
   503  5.02  0.  0.
   504  5.03  0.  0.
   505  5.04  0.  0.
   506  5.05  0.  0.
   507  5.06  0.  0.
   508  5.07  0.  0.
   509  5.08  0.  0.
   510  5.09  0.  0.
   511  5.10  0.  0.
   512  5.11  0.  0.
   513  5.12  0.  0.
   514  5.13  0.  0.
   515  5.14  0.  0.
   516  5.15  0.  0.
   517  5.16  0.  0.
   518  5.17  0.  0.
   519  5.18  0.  0.
   520  5.19  0.  0.
   521  5.20  0.  0.
   522  5.21  0.  0.
   523  5.22  0.  0.
   524  5.23  0.  0.
   525  5.24  0.  0.
   526  5.25  0.  0.
   527  5.26  0.  0.
   528  5.27  0.  0.
   529  5.28  0.  0.
   530  5.29  0.  0.
   531  5.30  0.  0.
   532  5.31  0.  0.
   533  5.32  0.  0.
   534  5.33  0.  0.
   535  5.34  0.  0.
   536  5.35  0.  0.
   537  5.36  0.  0.
   538  5.37  0.  0.
   539  5.38  0.  0.
   540  5.39  0.  0.
   541  5.40  0.  0.
   542  5.41  0.  0.
   543  5.42  0.  0.
   544  5.43  0.  0.
   545  5.44  0.  0.
   546  5.45  0.  0.
   547  5.46  0.  0.
   548  5.47  0.  0.
   549  5.48  0.  0.
   550  5.49  0.  0.
   551  5.50  0.  0.
   552  5.51  0.  0.
   553  5.52  0.  0.
   554  5.53  0.  0.
   555  5.54  0.  0.
   556  5.55  0.  0.
   557  5.56  0.  0.
   558  5.57  0.  0.
   559  5.58  0.  0.
   560  5.59  0.  0.
   561  5.60  0.  0.
   562  5.61  0.  0.
   563  5.62  0.  0.
   564  5.63  0.  0.
   565  5.64  0.  0.
   566  5.65  0.  0.
   567  5.66  0.  0.
   568  5.67  0.  0.
   569  5.68  0.  0.
   570  5.69  0.  0.
   571  5.70  0.  0.
   572  5.71  0.  0.
   573  5.72  0.  0.
   574  5.73  0.  0.
   575  5.74  0.  0.
   576  5.75  0.  0.
   577  5.76  0.  0.
   578  5.77  0.  0.
   579  5.78  0.  0.
   580  5.79  0.  0.
   581  5.80  0.  0.
   582  5.81  0.  0.
   583  5.82  0.  0.
   584  5.83  0.  0.
   585  5.84  0.  0.
   586  5.85  0.  0.
   587  5.86  0.  0.
   588  5.87  0.  0.
   589  5.88  0.  0.
   590  5.89  0.  0.
   591  5.90  0.  0.
   592  5.91  0.  0.
   593  5.92  0.  0.
   594  5.93  0.  0.
   595  5.94  0.  0.
   596  5.95  0.  0.
   597  5.96  0.  0.
   598  5.97  0.  0.
   599  5.98  0.  0.
   600  5.99  0.  0.
   1                         2.4711119579501E+00  4.2317577327778E-01
     1  0.0000000000000E+00 -5.2341569751384E-09  8.9588488849657E-09
     2  1.0000000000000E-02 -5.7827783228617E-05  5.7145605259901E-04
     3  2.0000000000000E-02 -2.2269034451174E-04  2.2710429594978E-03
     4  3.0000000000000E-02 -4.6889428870571E-04  5.0547037817908E-03
     5  4.0000000000000E-02 -7.5417749457805E-04  8.8499611424824E-03
     6  5.0000000000000E-02 -1.0205388700516E-03  1.3557325429091E-02
     7  6.0000000000000E-02 -1.1953790967544E-03  1.9052230444778E-02
     8  7.0000000000000E-02 -1.1929318880920E-03  2.5187461429900E-02
     9  8.0000000000000E-02 -9.1596005090395E-04  3.1796031417052E-02
    10  9.0000000000000E-02 -2.5768585403997E-04  3.8694453695907E-02
    11  1.0000000000000E-01  8.9607904820760E-04  4.5686350894436E-02
    12  1.1000000000000E-01  2.6646425395170E-03  5.2566334958210E-02
    13  1.2000000000000E-01  5.1700211928982E-03  5.9124087240707E-02
    14  1.3000000000000E-01  8.5344532875412E-03  6.5148564095249E-02
    15  1.4000000000000E-01  1.2877880821518E-02  7.0432250853012E-02
    16  1.5000000000000E-01  1.8315446352555E-02  7.4775385928002E-02
    17  1.6000000000000E-01  2.4955050396005E-02  7.7990077032444E-02
    18  1.7000000000000E-01  3.2895014200897E-02  7.9904233113881E-02
    19  1.8000000000000E-01  4.2221891025538E-02  8.0365238613834E-02
    20  1.9000000000000E-01  5.3008466570512E-02  7.9243300948924E-02
    21  2.0000000000000E-01  6.5311986040006E-02  7.6434407657858E-02
    22  2.1000000000000E-01  7.9172641444983E-02  7.1862836348964E-02
    23  2.2000000000000E-01  9.4612348298735E-02  6.5483168309968E-02
    24  2.3000000000000E-01  1.1163383586201E-01  5.7281765273655E-02
    25  2.4000000000000E-01  1.3022006965603E-01  4.7277678222338E-02
    26  2.5000000000000E-01  1.5033401916974E-01  3.5522967100143E-02
    27  2.6000000000000E-01  1.7191877764183E-01  2.2102420713060E-02
    28  2.7000000000000E-01  1.9489803460186E-01  7.1326767527662E-03
    29  2.8000000000000E-01  2.1917689561525E-01 -9.2392474033043E-03
    30  2.9000000000000E-01  2.4464303750148E-01 -2.6837991872969E-02
    31  3.0000000000000E-01  2.7116818129130E-01 -4.5462427910056E-02
    32  3.1000000000000E-01  2.9860985946110E-01 -6.4888726697105E-02
    33  3.2000000000000E-01  3.2681344863240E-01 -8.4873872861283E-02
    34  3.3000000000000E-01  3.5561443404469E-01 -1.0515956399161E-01
    35  3.4000000000000E-01  3.8484086778928E-01 -1.2547643011973E-01
    36  3.5000000000000E-01  4.1431597910614E-01 -1.4554850092040E-01
    37  3.6000000000000E-01  4.4386089206409E-01 -1.6509784340693E-01
    38  3.7000000000000E-01  4.7329740372099E-01 -1.8384928923458E-01
    39  3.8000000000000E-01  5.0245077443911E-01 -2.0153516845410E-01
    40  3.9000000000000E-01  5.3115248143981E-01 -2.1789996572602E-01
    41  4.0000000000000E-01  5.5924288693709E-01 -2.3270481563905E-01
    42  4.1000000000000E-01  5.8657377329266E-01 -2.4573175587111E-01
    43  4.2000000000000E-01  6.1301069957110E-01 -2.5678766046374E-01
    44  4.3000000000000E-01  6.3843513661674E-01 -2.6570778039886E-01
    45  4.4000000000000E-01  6.6274634128013E-01 -2.7235882489591E-01
    46  4.5000000000000E-01  6.8586293463802E-01 -2.7664152428953E-01
    47  4.6000000000000E-01  7.0772415390800E-01 -2.7849262388348E-01
    48  4.7000000000000E-01  7.2829075317952E-01 -2.7788626766643E-01
    49  4.8000000000000E-01  7.4754553397657E-01 -2.7483474106337E-01
    50  4.9000000000000E-01  7.6549349293783E-01 -2.6938855281084E-01
    51  5.0000000000000E-01  7.8216158044134E-01 -2.6163584740318E-01
    52  5.1000000000000E-01  7.9759807070359E-01 -2.5170115116609E-01
    53  5.2000000000000E-01  8.1187155063365E-01 -2.3974346667795E-01
    54  5.3000000000000E-01  8.2506954140562E-01 -2.2595374177558E-01
    55  5.4000000000000E-01  8.3729677321389E-01 -2.1055175055175E-01
    56  5.5000000000000E-01  8.4867313988073E-01 -1.9378243438105E-01
    57  5.6000000000000E-01  8.5933136578829E-01 -1.7591176091141E-01
    58  5.7000000000000E-01  8.6941442290339E-01 -1.5722216795430E-01
    59  5.8000000000000E-01  8.7907274035887E-01 -1.3800766713445E-01
    60  5.9000000000000E-01  8.8846125306579E-01 -1.1856868887547E-01
    61  6.0000000000000E-01  8.9773633908096E-01 -9.9206755672736E-02
    62  6.1000000000000E-01  9.0705269788272E-01 -8.0219074537460E-02
    63  6.2000000000000E-01  9.1656022326662E-01 -6.1893141902715E-02
    64  6.3000000000000E-01  9.2640092522664E-01 -4.4501455109852E-02
    65  6.4000000000000E-01  9.3670595491871E-01 -2.8296423811700E-02
    66  6.5000000000000E-01  9.4759278560703E-01 -1.3505572235837E-02
    67  6.6000000000000E-01  9.5916260038315E-01 -3.2711927206035E-04
    68  6.7000000000000E-01  9.7149793444935E-01  1.1073982164457E-02
    69  6.8000000000000E-01  9.8466061591556E-01  2.0569472010350E-02
    70  6.9000000000000E-01  9.9869004442964E-01  2.8070610004951E-02
    71  7.0000000000000E-01  1.0136018416152E+00  3.3530346088646E-02
    72  7.1000000000000E-01  1.0293869013146E+00  3.6944788233831E-02
    73  7.2000000000000E-01  1.0460108611215E+00  3.8353933208798E-02
    74  7.3000000000000E-01  1.0634140097407E+00  3.7841638005248E-02
    75  7.4000000000000E-01  1.0815116374525E+00  3.5534822406608E-02
    76  7.5000000000000E-01  1.1001948294963E+00  3.1601906226057E-02
    77  7.6000000000000E-01  1.1193316946510E+00  2.6250497881045E-02
    78  7.7000000000000E-01  1.1387690138096E+00  1.9724363974157E-02
    79  7.8000000000000E-01  1.1583342860390E+00  1.2299722197402E-02
    80  7.9000000000000E-01  1.1778381426143E+00  4.2809119491951E-03
    81  8.0000000000000E-01  1.1970770929421E+00 -4.0044916582966E-03
    82  8.1000000000000E-01  1.2158365602500E+00 -1.2211044418744E-02
    83  8.2000000000000E-01  1.2338941595281E+00 -1.9981195158542E-02
    84  8.3000000000000E-01  1.2510231655595E+00 -2.6951350448230E-02
    85  8.4000000000000E-01  1.2669961150603E+00 -3.2758142653398E-02
    86  8.5000000000000E-01  1.2815884840261E+00 -3.7044797360064E-02
    87  8.6000000000000E-01  1.2945823794276E+00 -3.9467493189223E-02
    88  8.7000000000000E-01  1.3057701834318E+00 -3.9701605763626E-02
    89  8.8000000000000E-01  1.3149580884003E+00 -3.7447728147333E-02
    90  8.9000000000000E-01  1.3219694620119E+00 -3.2437362455515E-02
    91  9.0000000000000E-01  1.3266479839964E+00 -2.4438181508678E-02
    92  9.1000000000000E-01  1.3288604990934E+00 -1.3258765330899E-02
    93  9.2000000000000E-01  1.3284995349489E+00  1.2472751128008E-03
    94  9.3000000000000E-01  1.3254854386567E+00  1.9177865389123E-02
    95  9.4000000000000E-01  1.3197680914742E+00  4.0579794147824E-02
    96  9.5000000000000E-01  1.3113281678055E+00  6.5446854775970E-02
    97  9.6000000000000E-01  1.3001779117406E+00  9.3718845253604E-02
    98  9.7000000000000E-01  1.2863614121624E+00  1.2528145551102E-01
    99  9.8000000000000E-01  1.2699543655544E+00  1.5996705712732E-01
   100  9.9000000000000E-01  1.2510633240302E+00  1.9755639533145E-01
   101  1.0000000000000E+00  1.2298244346328E+00  2.3778116820386E-01
   102  1.0100000000000E+00  1.2064016844612E+00  2.8032746299136E-01
   103  1.0200000000000E+00  1.1809846745496E+00  3.2484000476507E-01
   104  1.0300000000000E+00  1.1537859535049E+00  3.7092715854527E-01
   105  1.0400000000000E+00  1.1250379495488E+00  4.1816661271824E-01
   106  1.0500000000000E+00  1.0949895467140E+00  4.6611165929063E-01
   107  1.0600000000000E+00  1.0639023573521E+00  5.1429797551065E-01
   108  1.0700000000000E+00  1.0320467487316E+00  5.6225080181303E-01
   109  1.0800000000000E+00  9.9969768623413E-01  6.0949240307629E-01
   110  1.0900000000000E+00  9.6713045940278E-01  6.5554969400338E-01
   111  1.1000000000000E+00  9.3461635979056E-01  6.9996190512742E-01