Al    ONCVPSP-4.0.1  r_core=   1.75068   1.75068   1.70928
     13.0000      3.0000      250925    zatom,zion,pspd
     8   -1012   2     4   600     0    pspcod,pspxc,lmax,lloc,mmax,r2well
  5.99000000  5.00000000  0.00000000    rchrg fchrg qchrg
     2     2     2     0    nproj
     3     1           extension_switch
     3     4     0    nprojso
   0                        -4.3579756616327E+00  2.3397441966049E+00
     1  0.0000000000000E+00 -5.9686883768784E-09  2.1371019919003E-09
     2  1.0000000000000E-02  5.3144826258791E-02  1.1648866741409E-03
     3  2.0000000000000E-02  1.0602928355351E-01  2.4305171724957E-03
     4  3.0000000000000E-02  1.5839733925158E-01  3.8959831166570E-03
     5  4.0000000000000E-02  2.1000155029688E-01  5.6571021268024E-03
     6  5.0000000000000E-02  2.6060715184521E-01  7.8048562711215E-03
     7  6.0000000000000E-02  3.0999590286570E-01  1.0423919499139E-02
     8  7.0000000000000E-02  3.5796961485937E-01  1.3591301156842E-02
     9  8.0000000000000E-02  4.0435329581453E-01  1.7375130544426E-02
    10  9.0000000000000E-02  4.4899784876969E-01  2.1833604880019E-02
    11  1.0000000000000E-01  4.9178227275365E-01  2.7014120022253E-02
    12  1.1000000000000E-01  5.3261532326435E-01  3.2952599935669E-02
    13  1.2000000000000E-01  5.7143659965788E-01  3.9673037217446E-02
    14  1.3000000000000E-01  6.0821703765907E-01  4.7187253108144E-02
    15  1.4000000000000E-01  6.4295879647226E-01  5.5494881354676E-02
    16  1.5000000000000E-01  6.7569454145736E-01  6.4583576154149E-02
    17  1.6000000000000E-01  7.0648613482730E-01  7.4429440258547E-02
    18  1.7000000000000E-01  7.3542275810525E-01  8.4997665238077E-02
    19  1.8000000000000E-01  7.6261850094241E-01  9.6243371960416E-02
    20  1.9000000000000E-01  7.8820946113639E-01  1.0811263561616E-01
    21  2.0000000000000E-01  8.1235041011486E-01  1.2054367617620E-01
    22  2.1000000000000E-01  8.3521108658094E-01  1.3346819206769E-01
    23  2.2000000000000E-01  8.5697218829721E-01  1.4681281215971E-01
    24  2.3000000000000E-01  8.7782113797461E-01  1.6050063890639E-01
    25  2.4000000000000E-01  8.9794770381717E-01  1.7445285374795E-01
    26  2.5000000000000E-01  9.1753955836323E-01  1.8859035464952E-01
    27  2.6000000000000E-01  9.3677786079660E-01  2.0283539498943E-01
    28  2.7000000000000E-01  9.5583294784489E-01  2.1711319290410E-01
    29  2.8000000000000E-01  9.7486021673069E-01  2.3135348066114E-01
    30  2.9000000000000E-01  9.9399628042271E-01  2.4549196465628E-01
    31  3.0000000000000E-01  1.0133554706994E+00  2.5947166819828E-01
    32  3.1000000000000E-01  1.0330267583731E+00  2.7324413132946E-01
    33  3.2000000000000E-01  1.0530711525354E+00  2.8677044449338E-01
    34  3.3000000000000E-01  1.0735196320058E+00  3.0002209585775E-01
    35  3.4000000000000E-01  1.0943716524630E+00  3.1298161547846E-01
    36  3.5000000000000E-01  1.1155942621675E+00  3.2564300318683E-01
    37  3.6000000000000E-01  1.1371218479639E+00  3.3801193103261E-01
    38  3.7000000000000E-01  1.1588565215596E+00  3.5010571524611E-01
    39  3.8000000000000E-01  1.1806691441545E+00  3.6195305692122E-01
    40  3.9000000000000E-01  1.2024009755377E+00  3.7359355488877E-01
    41  4.0000000000000E-01  1.2238659220200E+00  3.8507699846917E-01
    42  4.1000000000000E-01  1.2448533462283E+00  3.9646245188785E-01
    43  4.2000000000000E-01  1.2651313910828E+00  4.0781714603091E-01
    44  4.3000000000000E-01  1.2844507603979E+00  4.1921519684006E-01
    45  4.4000000000000E-01  1.3025488896819E+00  4.3073617292929E-01
    46  4.5000000000000E-01  1.3191544330389E+00  4.4246353788781E-01
    47  4.6000000000000E-01  1.3339919857231E+00  4.5448299516317E-01
    48  4.7000000000000E-01  1.3467869570147E+00  4.6688076534697E-01
    49  4.8000000000000E-01  1.3572705047480E+00  4.7974182707763E-01
    50  4.9000000000000E-01  1.3651844411124E+00  4.9314815360279E-01
    51  5.0000000000000E-01  1.3702860193019E+00  5.0717697729055E-01
    52  5.1000000000000E-01  1.3723525122119E+00  5.2189911403729E-01
    53  5.2000000000000E-01  1.3711854976628E+00  5.3737737859533E-01
    54  5.3000000000000E-01  1.3666147695024E+00  5.5366512034890E-01
    55  5.4000000000000E-01  1.3585018003413E+00  5.7080490702905E-01
    56  5.5000000000000E-01  1.3467426894708E+00  5.8882738131058E-01
    57  5.6000000000000E-01  1.3312705385954E+00  6.0775031222214E-01
    58  5.7000000000000E-01  1.3120572081938E+00  6.2757785987737E-01
    59  5.8000000000000E-01  1.2891144184388E+00  6.4830006826017E-01
    60  5.9000000000000E-01  1.2624941704531E+00  6.6989259673998E-01
    61  6.0000000000000E-01  1.2322884760365E+00  6.9231669672373E-01
    62  6.1000000000000E-01  1.1986283966494E+00  7.1551943544928E-01
    63  6.2000000000000E-01  1.1616824051468E+00  7.3943416446787E-01
    64  6.3000000000000E-01  1.1216540962884E+00  7.6398122593327E-01
    65  6.4000000000000E-01  1.0787792841730E+00  7.8906888549226E-01
    66  6.5000000000000E-01  1.0333225362385E+00  8.1459447643466E-01
    67  6.6000000000000E-01  9.8557320410659E-01  8.4044573588679E-01
    68  6.7000000000000E-01  9.3584102114268E-01  8.6650231029221E-01
    69  6.8000000000000E-01  8.8445134495729E-01  8.9263740428284E-01
    70  6.9000000000000E-01  8.3174013003684E-01  9.1871954436140E-01
    71  7.0000000000000E-01  7.7804872111980E-01  9.4461442664301E-01
    72  7.1000000000000E-01  7.2371856172329E-01  9.7018681628086E-01
    73  7.2000000000000E-01  6.6908591429103E-01  9.9530246516094E-01
    74  7.3000000000000E-01  6.1447668873011E-01  1.0198300140140E+00
    75  7.4000000000000E-01  5.6020147461560E-01  1.0436428452695E+00
    76  7.5000000000000E-01  5.0655086908017E-01  1.0666208537684E+00
    77  7.6000000000000E-01  4.5379118742586E-01  1.0886521038405E+00
    78  7.7000000000000E-01  4.0216063687302E-01  1.1096343432244E+00
    79  7.8000000000000E-01  3.5186602570956E-01  1.1294763468222E+00
    80  7.9000000000000E-01  3.0308007056443E-01  1.1480990662952E+00
    81  8.0000000000000E-01  2.5593935376617E-01  1.1654365649727E+00
    82  8.1000000000000E-01  2.1054297095344E-01  1.1814367213962E+00
    83  8.2000000000000E-01  1.6695189648730E-01  1.1960616889897E+00
    84  8.3000000000000E-01  1.2518908100462E-01  1.2092881037600E+00
    85  8.4000000000000E-01  8.5240281883766E-02  1.2211070365072E+00
    86  8.5000000000000E-01  4.7055613719041E-02  1.2315236906842E+00
    87  8.6000000000000E-01  1.0551792366394E-02  1.2405568516973E+00
    88  8.7000000000000E-01 -2.4384967016860E-02  1.2482380980081E+00
    89  8.8000000000000E-01 -5.7895450019636E-02  1.2546107887881E+00
    90  8.9000000000000E-01 -9.0143404825419E-02  1.2597288470239E+00
    91  9.0000000000000E-01 -1.2131104011418E-01  1.2636553607762E+00
    92  9.1000000000000E-01 -1.5159414251843E-01  1.2664610287124E+00
    93  9.2000000000000E-01 -1.8119690490753E-01  1.2682224789769E+00
    94  9.3000000000000E-01 -2.1032656292316E-01  1.2690204928878E+00
    95  9.4000000000000E-01 -2.3918794158402E-01  1.2689381668123E+00
    96  9.5000000000000E-01 -2.6797801633087E-01  1.2680590468224E+00
    97  9.6000000000000E-01 -2.9688059352771E-01  1.2664652713647E+00
    98  9.7000000000000E-01 -3.2606121414967E-01  1.2642357571581E+00
    99  9.8000000000000E-01 -3.5566238117756E-01  1.2614444628692E+00
   100  9.9000000000000E-01 -3.8579920613265E-01  1.2581587638190E+00
   101  1.0000000000000E+00 -4.1655556329121E-01  1.2544379690527E+00
   102  1.0100000000000E+00 -4.4798083154786E-01  1.2503320096105E+00
   103  1.0200000000000E+00 -4.8008729376704E-01  1.2458803237897E+00
   104  1.0300000000000E+00 -5.1284825196592E-01  1.2411109616622E+00
   105  1.0400000000000E+00 -5.4619690401305E-01  1.2360399271557E+00
   106  1.0500000000000E+00 -5.8002601389298E-01  1.2306707716902E+00
   107  1.0600000000000E+00 -6.1418839326002E-01  1.2249944487748E+00
   108  1.0700000000000E+00 -6.4849819722639E-01  1.2189894341787E+00
   109  1.0800000000000E+00 -6.8273302232710E-01  1.2126221113880E+00
   110  1.0900000000000E+00 -7.1663677973229E-01  1.2058474171432E+00
   111  1.1000000000000E+00 -7.4992330220549E-01  1.1986097369922E+00
   112  1.1100000000000E+00 -7.8228062938742E-01  1.1908440360985E+00
   113  1.1200000000000E+00 -8.1337590292495E-01  1.1824772060835E+00
   114  1.1300000000000E+00 -8.4286079101767E-01  1.1734296045523E+00
   115  1.1400000000000E+00 -8.7037735136696E-01  1.1636167602163E+00
   116  1.1500000000000E+00 -8.9556423244591E-01  1.1529512132668E+00
   117  1.1600000000000E+00 -9.1806310568061E-01  1.1413444579200E+00
   118  1.1700000000000E+00 -9.3752521565607E-01  1.1287089519095E+00
   119  1.1800000000000E+00 -9.5361793196709E-01  1.1149601561803E+00
   120  1.1900000000000E+00 -9.6603118489187E-01  1.1000185671703E+00
   121  1.2000000000000E+00 -9.7448366772760E-01  1.0838117038787E+00
   122  1.2100000000000E+00 -9.7872869136810E-01  1.0662760124057E+00
   123  1.2200000000000E+00 -9.7855958154920E-01  1.0473586518183E+00
   124  1.2300000000000E+00 -9.7381451597706E-01  1.0270191270169E+00
   125  1.2400000000000E+00 -9.6438070727101E-01  1.0052307367280E+00
   126  1.2500000000000E+00 -9.5019784812207E-01  9.8198180779375E-01
   127  1.2600000000000E+00 -9.3126074702956E-01  9.5727669048173E-01
   128  1.2700000000000E+00 -9.0762109643341E-01  9.3113649360311E-01
   129  1.2800000000000E+00 -8.7938832956171E-01  9.0359954266424E-01
   130  1.2900000000000E+00 -8.4672953768365E-01  8.7472154903115E-01
   131  1.3000000000000E+00 -8.0986843556890E-01  8.4457548311737E-01
   132  1.3100000000000E+00 -7.6908337929308E-01  8.1325114975171E-01
   133  1.3200000000000E+00 -7.2470445691715E-01  7.8085446908548E-01
   134  1.3300000000000E+00 -6.7710968882594E-01  7.4750647160137E-01
   135  1.3400000000000E+00 -6.2672039012727E-01  7.1334202082454E-01
   136  1.3500000000000E+00 -5.7399576238002E-01  6.7850828217389E-01
   137  1.3600000000000E+00 -5.1942679567551E-01  6.4316296091065E-01
   138  1.3700000000000E+00 -4.6352957460056E-01  6.0747233629637E-01
   139  1.3800000000000E+00 -4.0683809246228E-01  5.7160912270193E-01
   140  1.3900000000000E+00 -3.4989668728299E-01  5.3575019149372E-01
   141  1.4000000000000E+00 -2.9325222189733E-01  5.0007419315586E-01
   142  1.4100000000000E+00 -2.3744613115008E-01  4.6475911249987E-01
   143  1.4200000000000E+00 -1.8300664141487E-01  4.2998014866717E-01
   144  1.4300000000000E+00 -1.3044133670454E-01  3.9590793035388E-01
   145  1.4400000000000E+00 -8.0229853441256E-02  3.6270637611417E-01
   146  1.4500000000000E+00 -3.2816904868821E-02  3.3053050767946E-01
   147  1.4600000000000E+00  1.1394183595514E-02  2.9952440335687E-01
   148  1.4700000000000E+00  5.2047320805816E-02  2.6981932035145E-01
   149  1.4800000000000E+00  8.8838777683566E-02  2.4153201886172E-01
   150  1.4900000000000E+00  1.2152150786299E-01  2.1476331665841E-01
   151  1.5000000000000E+00  1.4990858589030E-01  1.8959689893573E-01
   152  1.5100000000000E+00  1.7387570222310E-01  1.6609840386301E-01
   153  1.5200000000000E+00  1.9336266992362E-01  1.4431479953379E-01
   154  1.5300000000000E+00  2.0837391447744E-01  1.2427406297628E-01
   155  1.5400000000000E+00  2.1897793518382E-01  1.0598516668162E-01
   156  1.5500000000000E+00  2.2530574389992E-01  8.9438372774524E-02
   157  1.5600000000000E+00  2.2754830420417E-01  7.4605829611556E-02
   158  1.5700000000000E+00  2.2595301099476E-01  6.1442460333572E-02
   159  1.5800000000000E+00  2.2081926686738E-01  4.9887127813035E-02
   160  1.5900000000000E+00  2.1249322703260E-01  3.9864055614834E-02
   161  1.6000000000000E+00  2.0136179877189E-01  3.1284480120111E-02
   162  1.6100000000000E+00  1.8784599425522E-01  2.4048504905837E-02
   163  1.6200000000000E+00  1.7239374669232E-01  1.8047124948067E-02
   164  1.6300000000000E+00  1.5547230896924E-01  1.3164385209121E-02
   165  1.6400000000000E+00  1.3756036362525E-01  9.2796357446371E-03
   166  1.6500000000000E+00  1.1913996273211E-01  6.2698453924843E-03
   167  1.6600000000000E+00  1.0068847902795E-01  4.0119230383095E-03
   168  1.6700000000000E+00  8.2671128840146E-02  2.3850708744819E-03
   169  1.6800000000000E+00  6.5532550250532E-02  1.2732868023053E-03
   170  1.6900000000000E+00  4.9687175409684E-02  5.6725848802544E-04
   171  1.7000000000000E+00  3.5515822825986E-02  1.6602409373904E-04
   172  1.7100000000000E+00  2.3359361518640E-02 -2.1152251198383E-05
   173  1.7200000000000E+00  1.3513513229794E-02 -7.3129893365572E-05
   174  1.7300000000000E+00  6.2207443478384E-03 -5.5422842065677E-05
   175  1.7400000000000E+00  1.6730126491271E-03 -1.9130938084128E-05
   176  1.7500000000000E+00  3.3248180397783E-05 -3.9498677110558E-07
   177  1.7600000000000E+00 -1.8954059163376E-05  2.8071797104145E-07
   178  1.7700000000000E+00  1.0530873343133E-05 -1.4429944390447E-07
   179  1.78  0.  0.
   180  1.79  0.  0.
   181  1.80  0.  0.
   182  1.81  0.  0.
   183  1.82  0.  0.
   184  1.83  0.  0.
   185  1.84  0.  0.
   186  1.85  0.  0.
   187  1.86  0.  0.
   188  1.87  0.  0.
   189  1.88  0.  0.
   190  1.89  0.  0.
   191  1.90  0.  0.
   192  1.91  0.  0.
   193  1.92  0.  0.
   194  1.93  0.  0.
   195  1.94  0.  0.
   196  1.95  0.  0.
   197  1.96  0.  0.
   198  1.97  0.  0.
   199  1.98  0.  0.
   200  1.99  0.  0.
   201  2.00  0.  0.
   202  2.01  0.  0.
   203  2.02  0.  0.
   204  2.03  0.  0.
   205  2.04  0.  0.
   206  2.05  0.  0.
   207  2.06  0.  0.
   208  2.07  0.  0.
   209  2.08  0.  0.
   210  2.09  0.  0.
   211  2.10  0.  0.
   212  2.11  0.  0.
   213  2.12  0.  0.
   214  2.13  0.  0.
   215  2.14  0.  0.
   216  2.15  0.  0.
   217  2.16  0.  0.
   218  2.17  0.  0.
   219  2.18  0.  0.
   220  2.19  0.  0.
   221  2.20  0.  0.
   222  2.21  0.  0.
   223  2.22  0.  0.
   224  2.23  0.  0.
   225  2.24  0.  0.
   226  2.25  0.  0.
   227  2.26  0.  0.
   228  2.27  0.  0.
   229  2.28  0.  0.
   230  2.29  0.  0.
   231  2.30  0.  0.
   232  2.31  0.  0.
   233  2.32  0.  0.
   234  2.33  0.  0.
   235  2.34  0.  0.
   236  2.35  0.  0.
   237  2.36  0.  0.
   238  2.37  0.  0.
   239  2.38  0.  0.
   240  2.39  0.  0.
   241  2.40  0.  0.
   242  2.41  0.  0.
   243  2.42  0.  0.
   244  2.43  0.  0.
   245  2.44  0.  0.
   246  2.45  0.  0.
   247  2.46  0.  0.
   248  2.47  0.  0.
   249  2.48  0.  0.
   250  2.49  0.  0.
   251  2.50  0.  0.
   252  2.51  0.  0.
   253  2.52  0.  0.
   254  2.53  0.  0.
   255  2.54  0.  0.
   256  2.55  0.  0.
   257  2.56  0.  0.
   258  2.57  0.  0.
   259  2.58  0.  0.
   260  2.59  0.  0.
   261  2.60  0.  0.
   262  2.61  0.  0.
   263  2.62  0.  0.
   264  2.63  0.  0.
   265  2.64  0.  0.
   266  2.65  0.  0.
   267  2.66  0.  0.
   268  2.67  0.  0.
   269  2.68  0.  0.
   270  2.69  0.  0.
   271  2.70  0.  0.
   272  2.71  0.  0.
   273  2.72  0.  0.
   274  2.73  0.  0.
   275  2.74  0.  0.
   276  2.75  0.  0.
   277  2.76  0.  0.
   278  2.77  0.  0.
   279  2.78  0.  0.
   280  2.79  0.  0.
   281  2.80  0.  0.
   282  2.81  0.  0.
   283  2.82  0.  0.
   284  2.83  0.  0.
   285  2.84  0.  0.
   286  2.85  0.  0.
   287  2.86  0.  0.
   288  2.87  0.  0.
   289  2.88  0.  0.
   290  2.89  0.  0.
   291  2.90  0.  0.
   292  2.91  0.  0.
   293  2.92  0.  0.
   294  2.93  0.  0.
   295  2.94  0.  0.
   296  2.95  0.  0.
   297  2.96  0.  0.
   298  2.97  0.  0.
   299  2.98  0.  0.
   300  2.99  0.  0.
   301  3.00  0.  0.
   302  3.01  0.  0.
   303  3.02  0.  0.
   304  3.03  0.  0.
   305  3.04  0.  0.
   306  3.05  0.  0.
   307  3.06  0.  0.
   308  3.07  0.  0.
   309  3.08  0.  0.
   310  3.09  0.  0.
   311  3.10  0.  0.
   312  3.11  0.  0.
   313  3.12  0.  0.
   314  3.13  0.  0.
   315  3.14  0.  0.
   316  3.15  0.  0.
   317  3.16  0.  0.
   318  3.17  0.  0.
   319  3.18  0.  0.
   320  3.19  0.  0.
   321  3.20  0.  0.
   322  3.21  0.  0.
   323  3.22  0.  0.
   324  3.23  0.  0.
   325  3.24  0.  0.
   326  3.25  0.  0.
   327  3.26  0.  0.
   328  3.27  0.  0.
   329  3.28  0.  0.
   330  3.29  0.  0.
   331  3.30  0.  0.
   332  3.31  0.  0.
   333  3.32  0.  0.
   334  3.33  0.  0.
   335  3.34  0.  0.
   336  3.35  0.  0.
   337  3.36  0.  0.
   338  3.37  0.  0.
   339  3.38  0.  0.
   340  3.39  0.  0.
   341  3.40  0.  0.
   342  3.41  0.  0.
   343  3.42  0.  0.
   344  3.43  0.  0.
   345  3.44  0.  0.
   346  3.45  0.  0.
   347  3.46  0.  0.
   348  3.47  0.  0.
   349  3.48  0.  0.
   350  3.49  0.  0.
   351  3.50  0.  0.
   352  3.51  0.  0.
   353  3.52  0.  0.
   354  3.53  0.  0.
   355  3.54  0.  0.
   356  3.55  0.  0.
   357  3.56  0.  0.
   358  3.57  0.  0.
   359  3.58  0.  0.
   360  3.59  0.  0.
   361  3.60  0.  0.
   362  3.61  0.  0.
   363  3.62  0.  0.
   364  3.63  0.  0.
   365  3.64  0.  0.
   366  3.65  0.  0.
   367  3.66  0.  0.
   368  3.67  0.  0.
   369  3.68  0.  0.
   370  3.69  0.  0.
   371  3.70  0.  0.
   372  3.71  0.  0.
   373  3.72  0.  0.
   374  3.73  0.  0.
   375  3.74  0.  0.
   376  3.75  0.  0.
   377  3.76  0.  0.
   378  3.77  0.  0.
   379  3.78  0.  0.
   380  3.79  0.  0.
   381  3.80  0.  0.
   382  3.81  0.  0.
   383  3.82  0.  0.
   384  3.83  0.  0.
   385  3.84  0.  0.
   386  3.85  0.  0.
   387  3.86  0.  0.
   388  3.87  0.  0.
   389  3.88  0.  0.
   390  3.89  0.  0.
   391  3.90  0.  0.
   392  3.91  0.  0.
   393  3.92  0.  0.
   394  3.93  0.  0.
   395  3.94  0.  0.
   396  3.95  0.  0.
   397  3.96  0.  0.
   398  3.97  0.  0.
   399  3.98  0.  0.
   400  3.99  0.  0.
   401  4.00  0.  0.
   402  4.01  0.  0.
   403  4.02  0.  0.
   404  4.03  0.  0.
   405  4.04  0.  0.
   406  4.05  0.  0.
   407  4.06  0.  0.
   408  4.07  0.  0.
   409  4.08  0.  0.
   410  4.09  0.  0.
   411  4.10  0.  0.
   412  4.11  0.  0.
   413  4.12  0.  0.
   414  4.13  0.  0.
   415  4.14  0.  0.
   416  4.15  0.  0.
   417  4.16  0.  0.
   418  4.17  0.  0.
   419  4.18  0.  0.
   420  4.19  0.  0.
   421  4.20  0.  0.
   422  4.21  0.  0.
   423  4.22  0.  0.
   424  4.23  0.  0.
   425  4.24  0.  0.
   426  4.25  0.  0.
   427  4.26  0.  0.
   428  4.27  0.  0.
   429  4.28  0.  0.
   430  4.29  0.  0.
   431  4.30  0.  0.
   432  4.31  0.  0.
   433  4.32  0.  0.
   434  4.33  0.  0.
   435  4.34  0.  0.
   436  4.35  0.  0.
   437  4.36  0.  0.
   438  4.37  0.  0.
   439  4.38  0.  0.
   440  4.39  0.  0.
   441  4.40  0.  0.
   442  4.41  0.  0.
   443  4.42  0.  0.
   444  4.43  0.  0.
   445  4.44  0.  0.
   446  4.45  0.  0.
   447  4.46  0.  0.
   448  4.47  0.  0.
   449  4.48  0.  0.
   450  4.49  0.  0.
   451  4.50  0.  0.
   452  4.51  0.  0.
   453  4.52  0.  0.
   454  4.53  0.  0.
   455  4.54  0.  0.
   456  4.55  0.  0.
   457  4.56  0.  0.
   458  4.57  0.  0.
   459  4.58  0.  0.
   460  4.59  0.  0.
   461  4.60  0.  0.
   462  4.61  0.  0.
   463  4.62  0.  0.
   464  4.63  0.  0.
   465  4.64  0.  0.
   466  4.65  0.  0.
   467  4.66  0.  0.
   468  4.67  0.  0.
   469  4.68  0.  0.
   470  4.69  0.  0.
   471  4.70  0.  0.
   472  4.71  0.  0.
   473  4.72  0.  0.
   474  4.73  0.  0.
   475  4.74  0.  0.
   476  4.75  0.  0.
   477  4.76  0.  0.
   478  4.77  0.  0.
   479  4.78  0.  0.
   480  4.79  0.  0.
   481  4.80  0.  0.
   482  4.81  0.  0.
   483  4.82  0.  0.
   484  4.83  0.  0.
   485  4.84  0.  0.
   486  4.85  0.  0.
   487  4.86  0.  0.
   488  4.87  0.  0.
   489  4.88  0.  0.
   490  4.89  0.  0.
   491  4.90  0.  0.
   492  4.91  0.  0.
   493  4.92  0.  0.
   494  4.93  0.  0.
   495  4.94  0.  0.
   496  4.95  0.  0.
   497  4.96  0.  0.
   498  4.97  0.  0.
   499  4.98  0.  0.
   500  4.99  0.  0.
   501  5.00  0.  0.
   502  5.01  0.  0.
   503  5.02  0.  0.
   504  5.03  0.  0.
   505  5.04  0.  0.
   506  5.05  0.  0.
   507  5.06  0.  0.
   508  5.07  0.  0.
   509  5.08  0.  0.
   510  5.09  0.  0.
   511  5.10  0.  0.
   512  5.11  0.  0.
   513  5.12  0.  0.
   514  5.13  0.  0.
   515  5.14  0.  0.
   516  5.15  0.  0.
   517  5.16  0.  0.
   518  5.17  0.  0.
   519  5.18  0.  0.
   520  5.19  0.  0.
   521  5.20  0.  0.
   522  5.21  0.  0.
   523  5.22  0.  0.
   524  5.23  0.  0.
   525  5.24  0.  0.
   526  5.25  0.  0.
   527  5.26  0.  0.
   528  5.27  0.  0.
   529  5.28  0.  0.
   530  5.29  0.  0.
   531  5.30  0.  0.
   532  5.31  0.  0.
   533  5.32  0.  0.
   534  5.33  0.  0.
   535  5.34  0.  0.
   536  5.35  0.  0.
   537  5.36  0.  0.
   538  5.37  0.  0.
   539  5.38  0.  0.
   540  5.39  0.  0.
   541  5.40  0.  0.
   542  5.41  0.  0.
   543  5.42  0.  0.
   544  5.43  0.  0.
   545  5.44  0.  0.
   546  5.45  0.  0.
   547  5.46  0.  0.
   548  5.47  0.  0.
   549  5.48  0.  0.
   550  5.49  0.  0.
   551  5.50  0.  0.
   552  5.51  0.  0.
   553  5.52  0.  0.
   554  5.53  0.  0.
   555  5.54  0.  0.
   556  5.55  0.  0.
   557  5.56  0.  0.
   558  5.57  0.  0.
   559  5.58  0.  0.
   560  5.59  0.  0.
   561  5.60  0.  0.
   562  5.61  0.  0.
   563  5.62  0.  0.
   564  5.63  0.  0.
   565  5.64  0.  0.
   566  5.65  0.  0.
   567  5.66  0.  0.
   568  5.67  0.  0.
   569  5.68  0.  0.
   570  5.69  0.  0.
   571  5.70  0.  0.
   572  5.71  0.  0.
   573  5.72  0.  0.
   574  5.73  0.  0.
   575  5.74  0.  0.
   576  5.75  0.  0.
   577  5.76  0.  0.
   578  5.77  0.  0.
   579  5.78  0.  0.
   580  5.79  0.  0.
   581  5.80  0.  0.
   582  5.81  0.  0.
   583  5.82  0.  0.
   584  5.83  0.  0.
   585  5.84  0.  0.
   586  5.85  0.  0.
   587  5.86  0.  0.
   588  5.87  0.  0.
   589  5.88  0.  0.
   590  5.89  0.  0.
   591  5.90  0.  0.
   592  5.91  0.  0.
   593  5.92  0.  0.
   594  5.93  0.  0.
   595  5.94  0.  0.
   596  5.95  0.  0.
   597  5.96  0.  0.
   598  5.97  0.  0.
   599  5.98  0.  0.
   600  5.99  0.  0.
   1                         6.1576007745764E+00  9.1961996066450E-01
     1  0.0000000000000E+00  4.6300802858390E-08  2.7644735764443E-08
     2  1.0000000000000E-02  2.0485928087656E-03  1.2347346489921E-03
     3  2.0000000000000E-02  8.1408876613798E-03  4.9087318026611E-03
     4  3.0000000000000E-02  1.8117678356837E-02  1.0932099597377E-02
     5  4.0000000000000E-02  3.1717741739329E-02  1.9157429939893E-02
     6  5.0000000000000E-02  4.8583921468658E-02  2.9383357918529E-02
     7  6.0000000000000E-02  6.8271453478781E-02  4.1359430089216E-02
     8  7.0000000000000E-02  9.0258346336195E-02  5.4792169812428E-02
     9  8.0000000000000E-02  1.1395758340908E-01  6.9352200172320E-02
    10  9.0000000000000E-02  1.3873087254920E-01  8.4682260464471E-02
    11  1.0000000000000E-01  1.6390363377644E-01  1.0040593134287E-01
    12  1.1000000000000E-01  1.8878088701724E-01  1.1613686693990E-01
    13  1.2000000000000E-01  2.1266368091475E-01  1.3148831999579E-01
    14  1.3000000000000E-01  2.3486569057295E-01  1.4608273853893E-01
    15  1.4000000000000E-01  2.5472960712242E-01  1.5956121012405E-01
    16  1.5000000000000E-01  2.7164294533088E-01  1.7159253213212E-01
    17  1.6000000000000E-01  2.8505290707370E-01  1.8188169412421E-01
    18  1.7000000000000E-01  2.9447995810096E-01  1.9017757057245E-01
    19  1.8000000000000E-01  2.9952980278338E-01  1.9627963920923E-01
    20  1.9000000000000E-01  2.9990347582150E-01  2.0004356138484E-01
    21  2.0000000000000E-01  2.9540531053846E-01  2.0138548575193E-01
    22  2.1000000000000E-01  2.8594858948419E-01  2.0028496476992E-01
    23  2.2000000000000E-01  2.7155873367693E-01  1.9678640433368E-01
    24  2.3000000000000E-01  2.5237394081331E-01  1.9099899961159E-01
    25  2.4000000000000E-01  2.2864323903120E-01  1.8309514421422E-01
    26  2.5000000000000E-01  2.0072198009764E-01  1.7330733436074E-01
    27  2.6000000000000E-01  1.6906485297716E-01  1.6192362400692E-01
    28  2.7000000000000E-01  1.3421655437255E-01  1.4928172018693E-01
    29  2.8000000000000E-01  9.6800305806231E-02  1.3576183936206E-01
    30  2.9000000000000E-01  5.7504455960496E-02  1.2177847465529E-01
    31  3.0000000000000E-01  1.7067451233826E-02  1.0777124982536E-01
    32  3.1000000000000E-01 -2.3738504190417E-02  9.4195058103998E-02
    33  3.2000000000000E-01 -6.4124745891624E-02  8.1509702069208E-02
    34  3.3000000000000E-01 -1.0330402741895E-01  7.0169264128364E-02
    35  3.4000000000000E-01 -1.4050858617226E-01  6.0611445607705E-02
    36  3.5000000000000E-01 -1.7500799639866E-01  5.3247115666539E-02
    37  3.6000000000000E-01 -2.0612640984813E-01  4.8450309162518E-02
    38  3.7000000000000E-01 -2.3325879444372E-01  4.6548905191478E-02
    39  3.8000000000000E-01 -2.5588579969132E-01  4.7816205429129E-02
    40  3.9000000000000E-01 -2.7358690414666E-01  5.2463613843242E-02
    41  4.0000000000000E-01 -2.8605153455790E-01  6.0634597164613E-02
    42  4.1000000000000E-01 -2.9308788762994E-01  7.2400079145701E-02
    43  4.2000000000000E-01 -2.9462923287383E-01  8.7755391634847E-02
    44  4.3000000000000E-01 -2.9073752773773E-01  1.0661887247130E-01
    45  4.4000000000000E-01 -2.8160423307050E-01  1.2883216485272E-01
    46  4.5000000000000E-01 -2.6754827675824E-01  1.5416223588908E-01
    47  4.6000000000000E-01 -2.4901117483761E-01  1.8230509432263E-01
    48  4.7000000000000E-01 -2.2654938122268E-01  2.1289114967418E-01
    49  4.8000000000000E-01 -2.0082399806322E-01  2.4549211819000E-01
    50  4.9000000000000E-01 -1.7258803736942E-01  2.7962934571950E-01
    51  5.0000000000000E-01 -1.4267147961750E-01  3.1478338483100E-01
    52  5.1000000000000E-01 -1.1196442538406E-01  3.5040463380778E-01
    53  5.2000000000000E-01 -8.1398680528114E-02  3.8592481933300E-01
    54  5.3000000000000E-01 -5.1928153045814E-02  4.2076908326955E-01
    55  5.4000000000000E-01 -2.4508469602019E-02  4.5436841747915E-01
    56  5.5000000000000E-01 -7.6241186199964E-05  4.8617217951253E-01
    57  5.6000000000000E-01  2.0471580184415E-02  5.1566041653932E-01
    58  5.7000000000000E-01  3.6297808633721E-02  5.4235572525099E-01
    59  5.8000000000000E-01  4.6644156700055E-02  5.6583438172371E-01
    60  5.9000000000000E-01  5.0848969685758E-02  5.8573648730073E-01
    61  6.0000000000000E-01  4.8363163975629E-02  6.0177489425627E-01
    62  6.1000000000000E-01  3.8764004878473E-02  6.1374269801972E-01
    63  6.2000000000000E-01  2.1766401319149E-02  6.2151911064112E-01
    64  6.3000000000000E-01 -2.7685562134315E-03  6.2507356242655E-01
    65  6.4000000000000E-01 -3.4828032639627E-02  6.2446791462966E-01
    66  6.5000000000000E-01 -7.4245017715290E-02  6.1985670502980E-01
    67  6.6000000000000E-01 -1.2069912079796E-01  6.1148538936374E-01
    68  6.7000000000000E-01 -1.7372061652036E-01  5.9968658405931E-01
    69  6.8000000000000E-01 -2.3269769833737E-01  5.8487435865777E-01
    70  6.9000000000000E-01 -2.9688682846600E-01  5.6753666879917E-01
    71  7.0000000000000E-01 -3.6542600588132E-01  5.4822606177926E-01
    72  7.1000000000000E-01 -4.3735071019928E-01  5.2754882557172E-01
    73  7.2000000000000E-01 -5.1161221982990E-01  5.0615278800229E-01
    74  7.3000000000000E-01 -5.8709794902715E-01  4.8471400465898E-01
    75  7.4000000000000E-01 -6.6265340157465E-01  4.6392260140686E-01
    76  7.5000000000000E-01 -7.3710529988508E-01  4.4446805941101E-01
    77  7.6000000000000E-01 -8.0928541815799E-01  4.2702424682543E-01
    78  7.7000000000000E-01 -8.7805462765390E-01  4.1223451136502E-01
    79  7.8000000000000E-01 -9.4232665163541E-01  4.0069715155026E-01
    80  7.9000000000000E-01 -1.0010910274231E+00  3.9295158134188E-01
    81  8.0000000000000E-01 -1.0534347834265E+00  3.8946549314601E-01
    82  8.1000000000000E-01 -1.0985623598315E+00  3.9062330788580E-01
    83  8.2000000000000E-01 -1.1358133325304E+00  3.9671617826200E-01
    84  8.3000000000000E-01 -1.1646775403338E+00  4.0793378285123E-01
    85  8.4000000000000E-01 -1.1848072647606E+00  4.2435811483707E-01
    86  8.5000000000000E-01 -1.1960261688349E+00  4.4595943057173E-01
    87  8.6000000000000E-01 -1.1983347652202E+00  4.7259448056800E-01
    88  8.7000000000000E-01 -1.1919122534382E+00  5.0400709975759E-01
    89  8.8000000000000E-01 -1.1771146394721E+00  5.3983118583337E-01
    90  8.9000000000000E-01 -1.1544691272557E+00  5.7959604518802E-01
    91  9.0000000000000E-01 -1.1246648488572E+00  6.2273403637415E-01
    92  9.1000000000000E-01 -1.0885400769859E+00  6.6859039217104E-01
    93  9.2000000000000E-01 -1.0470661381925E+00  7.1643505426122E-01
    94  9.3000000000000E-01 -1.0013283162317E+00  7.6547631020225E-01
    95  9.4000000000000E-01 -9.5250410100075E-01  8.1487598177051E-01
    96  9.5000000000000E-01 -9.0183919784931E-01  8.6376587774043E-01
    97  9.6000000000000E-01 -8.5062176358206E-01  9.1126519354589E-01
    98  9.7000000000000E-01 -8.0015537799179E-01  9.5649851575332E-01
    99  9.8000000000000E-01 -7.5173129232121E-01  9.9861407142934E-01
   100  9.9000000000000E-01 -7.0660051785550E-01  1.0368018517750E+00
   101  1.0000000000000E+00 -6.6594632834812E-01  1.0703112361294E+00
   102  1.0100000000000E+00 -6.3085774885661E-01  1.0984677467656E+00
   103  1.0200000000000E+00 -6.0230459069085E-01  1.1206885768450E+00
   104  1.0300000000000E+00 -5.8111456769741E-01  1.1364965533022E+00
   105  1.0400000000000E+00 -5.6795299345576E-01  1.1455322229678E+00
   106  1.0500000000000E+00 -5.6330551264764E-01  1.1475637835259E+00
   107  1.0600000000000E+00 -5.6746426380507E-01  1.1424946202848E+00
   108  1.0700000000000E+00 -5.8051780593829E-01  1.1303682544654E+00
   109  1.0800000000000E+00 -6.0234506915249E-01  1.1113705581095E+00
   110  1.0900000000000E+00 -6.3261351113716E-01  1.0858291435399E+00
   111  1.1000000000000E+00 -6.7078157835538E-01  1.0542098908769E+00
   112  1.1100000000000E+00 -7.1610548496034E-01  1.0171106340568E+00
   113  1.1200000000000E+00 -7.6765023537632E-01  9.7525208313451E-01
   114  1.1300000000000E+00 -8.2430472987402E-01  9.2946611722262E-01
   115  1.1400000000000E+00 -8.8480070830611E-01  8.8068163694360E-01
   116  1.1500000000000E+00 -9.4773520680457E-01  8.2990821686758E-01