Co    ONCVPSP-4.0.1  r_core=   1.25099   1.32018   1.65713
     27.0000     17.0000      250925    zatom,zion,pspd
     8   -1012   2     4   600     0    pspcod,pspxc,lmax,lloc,mmax,r2well
  5.99000000  6.00000000  0.00000000    rchrg fchrg qchrg
     2     2     2     0    nproj
     3     1           extension_switch
     4     4     0    nprojso
   0                         6.5125012122136E+00 -3.6209852321919E-01
     1  0.0000000000000E+00 -1.0117673365784E-09 -1.9783212956703E-08
     2  1.0000000000000E-02  9.6803425769825E-02  7.4953578700955E-02
     3  2.0000000000000E-02  1.9328078151402E-01  1.4903881135741E-01
     4  3.0000000000000E-02  2.8910771570524E-01  2.2140115382818E-01
     5  4.0000000000000E-02  3.8396329699483E-01  2.9121340348936E-01
     6  5.0000000000000E-02  4.7753168252236E-01  3.5768871946693E-01
     7  6.0000000000000E-02  5.6950373682685E-01  4.2009287668875E-01
     8  7.0000000000000E-02  6.5957858610769E-01  4.7775552214426E-01
     9  8.0000000000000E-02  7.4746509359516E-01  5.3008022152278E-01
    10  9.0000000000000E-02  8.3288324301970E-01  5.7655310839409E-01
    11  1.0000000000000E-01  9.1556541859253E-01  6.1674997582452E-01
    12  1.1000000000000E-01  9.9525757150286E-01  6.5034168124445E-01
    13  1.2000000000000E-01  1.0717202646674E+00  6.7709776889123E-01
    14  1.3000000000000E-01  1.1447295893062E+00  6.9688824958391E-01
    15  1.4000000000000E-01  1.2140779488305E+00  7.0968351424330E-01
    16  1.5000000000000E-01  1.2795747074757E+00  7.1555239472981E-01
    17  1.6000000000000E-01  1.3410467030666E+00  7.1465842249161E-01
    18  1.7000000000000E-01  1.3983386252186E+00  7.0725437146651E-01
    19  1.8000000000000E-01  1.4513132621272E+00  6.9367520594147E-01
    20  1.9000000000000E-01  1.4998516208493E+00  6.7432958595896E-01
    21  2.0000000000000E-01  1.5438529275911E+00  6.4969011172534E-01
    22  2.1000000000000E-01  1.5832345159716E+00  6.2028251373828E-01
    23  2.2000000000000E-01  1.6179316124958E+00  5.8667401648905E-01
    24  2.3000000000000E-01  1.6478970295259E+00  5.4946112017398E-01
    25  2.4000000000000E-01  1.6731007768684E+00  5.0925705651745E-01
    26  2.5000000000000E-01  1.6935296036820E+00  4.6667918130802E-01
    27  2.6000000000000E-01  1.7091864827508E+00  4.2233656743034E-01
    28  2.7000000000000E-01  1.7200900492545E+00  3.7681805798255E-01
    29  2.8000000000000E-01  1.7262740060014E+00  3.3068102956237E-01
    30  2.9000000000000E-01  1.7277865066854E+00  2.8444110114320E-01
    31  3.0000000000000E-01  1.7246895280850E+00  2.3856300441235E-01
    32  3.1000000000000E-01  1.7170582412649E+00  1.9345280736670E-01
    33  3.2000000000000E-01  1.7049803907881E+00  1.4945165481707E-01
    34  3.3000000000000E-01  1.6885556897221E+00  1.0683115777761E-01
    35  3.4000000000000E-01  1.6678952368514E+00  6.5790529128743E-02
    36  3.5000000000000E-01  1.6431209610300E+00  2.6455526116439E-02
    37  3.6000000000000E-01  1.6143650960457E+00 -1.1120778084246E-02
    38  3.7000000000000E-01  1.5817696877623E+00 -4.6955410592659E-02
    39  3.8000000000000E-01  1.5454861336964E+00 -8.1131158724000E-02
    40  3.9000000000000E-01  1.5056747535977E+00 -1.1379056766687E-01
    41  4.0000000000000E-01  1.4625043880842E+00 -1.4512840662666E-01
    42  4.1000000000000E-01  1.4161520209637E+00 -1.7538276834267E-01
    43  4.2000000000000E-01  1.3668024195829E+00 -2.0482499801326E-01
    44  4.3000000000000E-01  1.3146477864240E+00 -2.3374867503420E-01
    45  4.4000000000000E-01  1.2598874142298E+00 -2.6245789397268E-01
    46  4.5000000000000E-01  1.2027273362194E+00 -2.9125510935074E-01
    47  4.6000000000000E-01  1.1433799624687E+00 -3.2042882167044E-01
    48  4.7000000000000E-01  1.0820636932837E+00 -3.5024138935663E-01
    49  4.8000000000000E-01  1.0190025004159E+00 -3.8091725270758E-01
    50  4.9000000000000E-01  9.5442546723889E-01 -4.1263185142700E-01
    51  5.0000000000000E-01  8.8856627954287E-01 -4.4550150688057E-01
    52  5.1000000000000E-01  8.2166265938743E-01 -4.7957452400941E-01
    53  5.2000000000000E-01  7.5395573548138E-01 -5.1482374609597E-01
    54  5.3000000000000E-01  6.8568934480294E-01 -5.5114076867604E-01
    55  5.4000000000000E-01  6.1710926162188E-01 -5.8833198730146E-01
    56  5.5000000000000E-01  5.4846235170185E-01 -6.2611661815063E-01
    57  5.6000000000000E-01  4.7999565121988E-01 -6.6412679132163E-01
    58  5.7000000000000E-01  4.1195537180300E-01 -7.0190977476616E-01
    59  5.8000000000000E-01  3.4458583501220E-01 -7.3893234303463E-01
    60  5.9000000000000E-01  2.7812834156205E-01 -7.7458726015643E-01
    61  6.0000000000000E-01  2.1281998250762E-01 -8.0820180096194E-01
    62  6.1000000000000E-01  1.4889240151770E-01 -8.3904819086298E-01
    63  6.2000000000000E-01  8.6570519143039E-02 -8.6635580144948E-01
    64  6.3000000000000E-01  2.6071231639104E-02 -8.8932489910728E-01
    65  6.4000000000000E-01 -3.2397901623031E-02 -9.0714170706398E-01
    66  6.5000000000000E-01 -8.8639966863277E-02 -9.1899450860744E-01
    67  6.6000000000000E-01 -1.4246998440673E-01 -9.2409049141992E-01
    68  6.7000000000000E-01 -1.9371615995347E-01 -9.2167301065605E-01
    69  6.8000000000000E-01 -2.4222108110684E-01 -9.1103893209918E-01
    70  6.9000000000000E-01 -2.8784284153212E-01 -8.9155570688012E-01
    71  7.0000000000000E-01 -3.3045607531349E-01 -8.6267782613278E-01
    72  7.1000000000000E-01 -3.6995288460501E-01 -8.2396230776457E-01
    73  7.2000000000000E-01 -4.0624364453066E-01 -7.7508287827562E-01
    74  7.3000000000000E-01 -4.3925767047240E-01 -7.1584253016561E-01
    75  7.4000000000000E-01 -4.6894373437908E-01 -6.4618415969208E-01
    76  7.5000000000000E-01 -4.9527041851366E-01 -5.6619902021718E-01
    77  7.6000000000000E-01 -5.1822629710457E-01 -4.7613276260240E-01
    78  7.7000000000000E-01 -5.3781993864811E-01 -3.7638887547591E-01
    79  7.8000000000000E-01 -5.5407972408497E-01 -2.6752938396726E-01
    80  7.9000000000000E-01 -5.6705347870382E-01 -1.5027271486707E-01
    81  8.0000000000000E-01 -5.7680791836378E-01 -2.5488688216514E-02
    82  8.1000000000000E-01 -5.8342791342656E-01  1.0580935090740E-01
    83  8.2000000000000E-01 -5.8701557659847E-01  2.4247519217695E-01
    84  8.3000000000000E-01 -5.8768918365058E-01  3.8324308901796E-01
    85  8.4000000000000E-01 -5.8558193866105E-01  5.2674358175243E-01
    86  8.5000000000000E-01 -5.8084059795606E-01  6.7152158950356E-01
    87  8.6000000000000E-01 -5.7362396926623E-01  8.1605649862866E-01
    88  8.7000000000000E-01 -5.6410130471794E-01  9.5878393297429E-01
    89  8.8000000000000E-01 -5.5245060810169E-01  1.0981188540445E+00
    90  8.9000000000000E-01 -5.3885687836413E-01  1.2324796080242E+00
    91  9.0000000000000E-01 -5.2351031242580E-01  1.3603125121894E+00
    92  9.1000000000000E-01 -5.0660449120504E-01  1.4801165561182E+00
    93  9.2000000000000E-01 -4.8833457311249E-01  1.5904677837280E+00
    94  9.3000000000000E-01 -4.6889551925631E-01  1.6900429207738E+00
    95  9.4000000000000E-01 -4.4848037416101E-01  1.7776418191934E+00
    96  9.5000000000000E-01 -4.2727862495668E-01  1.8522083045509E+00
    97  9.6000000000000E-01 -4.0547466074844E-01  1.9128490356257E+00
    98  9.7000000000000E-01 -3.8324635224866E-01  1.9588500156051E+00
    99  9.8000000000000E-01 -3.6076376977076E-01  1.9896904318429E+00
   100  9.9000000000000E-01 -3.3818805537467E-01  2.0050535451845E+00
   101  1.0000000000000E+00 -3.1567046236116E-01  2.0048343996100E+00
   102  1.0100000000000E+00 -2.9335157247684E-01  1.9891441775803E+00
   103  1.0200000000000E+00 -2.7136069816535E-01  1.9583110849913E+00
   104  1.0300000000000E+00 -2.4981547403255E-01  1.9128777110376E+00
   105  1.0400000000000E+00 -2.2882163844503E-01  1.8535948713614E+00
   106  1.0500000000000E+00 -2.0847300290772E-01  1.7814120065008E+00
   107  1.0600000000000E+00 -1.8885160362326E-01  1.6974642707338E+00
   108  1.0700000000000E+00 -1.7002802649212E-01  1.6030565075626E+00
   109  1.0800000000000E+00 -1.5206189381202E-01  1.4996443664016E+00
   110  1.0900000000000E+00 -1.3500249814446E-01  1.3888128692014E+00
   111  1.1000000000000E+00 -1.1888956628228E-01  1.2722527847907E+00
   112  1.1100000000000E+00 -1.0375413401725E-01  1.1517352117983E+00
   113  1.1200000000000E+00 -8.9619510525358E-02  1.0290848070399E+00
   114  1.1300000000000E+00 -7.6502309676988E-02  9.0615212483954E-01
   115  1.1400000000000E+00 -6.4413524487197E-02  7.8478555296564E-01
   116  1.1500000000000E+00 -5.3359620251977E-02  6.6680334258339E-01
   117  1.1600000000000E+00 -4.3343621693725E-02  5.5396623239414E-01
   118  1.1700000000000E+00 -3.4366167787228E-02  4.4795117872073E-01
   119  1.1800000000000E+00 -2.6426526558191E-02  3.5032649682900E-01
   120  1.1900000000000E+00 -1.9523846115449E-02  2.6252628974580E-01
   121  1.2000000000000E+00 -1.3665163268177E-02  1.8575807574615E-01
   122  1.2100000000000E+00 -8.8497217523686E-03  1.2113754568994E-01
   123  1.2200000000000E+00 -5.0731263890530E-03  6.9649915123051E-02
   124  1.2300000000000E+00 -2.3360968688921E-03  3.2041928158136E-02
   125  1.2400000000000E+00 -6.3884712033095E-04  8.7205274320805E-03
   126  1.2500000000000E+00 -1.4014694262715E-05  1.8954185090381E-04
   127  1.2600000000000E+00 -3.0669612029147E-06  4.1610012195926E-05
   128  1.2700000000000E+00  7.7431450362574E-07 -1.0540028093120E-05
   129  1.28  0.  0.
   130  1.29  0.  0.
   131  1.30  0.  0.
   132  1.31  0.  0.
   133  1.32  0.  0.
   134  1.33  0.  0.
   135  1.34  0.  0.
   136  1.35  0.  0.
   137  1.36  0.  0.
   138  1.37  0.  0.
   139  1.38  0.  0.
   140  1.39  0.  0.
   141  1.40  0.  0.
   142  1.41  0.  0.
   143  1.42  0.  0.
   144  1.43  0.  0.
   145  1.44  0.  0.
   146  1.45  0.  0.
   147  1.46  0.  0.
   148  1.47  0.  0.
   149  1.48  0.  0.
   150  1.49  0.  0.
   151  1.50  0.  0.
   152  1.51  0.  0.
   153  1.52  0.  0.
   154  1.53  0.  0.
   155  1.54  0.  0.
   156  1.55  0.  0.
   157  1.56  0.  0.
   158  1.57  0.  0.
   159  1.58  0.  0.
   160  1.59  0.  0.
   161  1.60  0.  0.
   162  1.61  0.  0.
   163  1.62  0.  0.
   164  1.63  0.  0.
   165  1.64  0.  0.
   166  1.65  0.  0.
   167  1.66  0.  0.
   168  1.67  0.  0.
   169  1.68  0.  0.
   170  1.69  0.  0.
   171  1.70  0.  0.
   172  1.71  0.  0.
   173  1.72  0.  0.
   174  1.73  0.  0.
   175  1.74  0.  0.
   176  1.75  0.  0.
   177  1.76  0.  0.
   178  1.77  0.  0.
   179  1.78  0.  0.
   180  1.79  0.  0.
   181  1.80  0.  0.
   182  1.81  0.  0.
   183  1.82  0.  0.
   184  1.83  0.  0.
   185  1.84  0.  0.
   186  1.85  0.  0.
   187  1.86  0.  0.
   188  1.87  0.  0.
   189  1.88  0.  0.
   190  1.89  0.  0.
   191  1.90  0.  0.
   192  1.91  0.  0.
   193  1.92  0.  0.
   194  1.93  0.  0.
   195  1.94  0.  0.
   196  1.95  0.  0.
   197  1.96  0.  0.
   198  1.97  0.  0.
   199  1.98  0.  0.
   200  1.99  0.  0.
   201  2.00  0.  0.
   202  2.01  0.  0.
   203  2.02  0.  0.
   204  2.03  0.  0.
   205  2.04  0.  0.
   206  2.05  0.  0.
   207  2.06  0.  0.
   208  2.07  0.  0.
   209  2.08  0.  0.
   210  2.09  0.  0.
   211  2.10  0.  0.
   212  2.11  0.  0.
   213  2.12  0.  0.
   214  2.13  0.  0.
   215  2.14  0.  0.
   216  2.15  0.  0.
   217  2.16  0.  0.
   218  2.17  0.  0.
   219  2.18  0.  0.
   220  2.19  0.  0.
   221  2.20  0.  0.
   222  2.21  0.  0.
   223  2.22  0.  0.
   224  2.23  0.  0.
   225  2.24  0.  0.
   226  2.25  0.  0.
   227  2.26  0.  0.
   228  2.27  0.  0.
   229  2.28  0.  0.
   230  2.29  0.  0.
   231  2.30  0.  0.
   232  2.31  0.  0.
   233  2.32  0.  0.
   234  2.33  0.  0.
   235  2.34  0.  0.
   236  2.35  0.  0.
   237  2.36  0.  0.
   238  2.37  0.  0.
   239  2.38  0.  0.
   240  2.39  0.  0.
   241  2.40  0.  0.
   242  2.41  0.  0.
   243  2.42  0.  0.
   244  2.43  0.  0.
   245  2.44  0.  0.
   246  2.45  0.  0.
   247  2.46  0.  0.
   248  2.47  0.  0.
   249  2.48  0.  0.
   250  2.49  0.  0.
   251  2.50  0.  0.
   252  2.51  0.  0.
   253  2.52  0.  0.
   254  2.53  0.  0.
   255  2.54  0.  0.
   256  2.55  0.  0.
   257  2.56  0.  0.
   258  2.57  0.  0.
   259  2.58  0.  0.
   260  2.59  0.  0.
   261  2.60  0.  0.
   262  2.61  0.  0.
   263  2.62  0.  0.
   264  2.63  0.  0.
   265  2.64  0.  0.
   266  2.65  0.  0.
   267  2.66  0.  0.
   268  2.67  0.  0.
   269  2.68  0.  0.
   270  2.69  0.  0.
   271  2.70  0.  0.
   272  2.71  0.  0.
   273  2.72  0.  0.
   274  2.73  0.  0.
   275  2.74  0.  0.
   276  2.75  0.  0.
   277  2.76  0.  0.
   278  2.77  0.  0.
   279  2.78  0.  0.
   280  2.79  0.  0.
   281  2.80  0.  0.
   282  2.81  0.  0.
   283  2.82  0.  0.
   284  2.83  0.  0.
   285  2.84  0.  0.
   286  2.85  0.  0.
   287  2.86  0.  0.
   288  2.87  0.  0.
   289  2.88  0.  0.
   290  2.89  0.  0.
   291  2.90  0.  0.
   292  2.91  0.  0.
   293  2.92  0.  0.
   294  2.93  0.  0.
   295  2.94  0.  0.
   296  2.95  0.  0.
   297  2.96  0.  0.
   298  2.97  0.  0.
   299  2.98  0.  0.
   300  2.99  0.  0.
   301  3.00  0.  0.
   302  3.01  0.  0.
   303  3.02  0.  0.
   304  3.03  0.  0.
   305  3.04  0.  0.
   306  3.05  0.  0.
   307  3.06  0.  0.
   308  3.07  0.  0.
   309  3.08  0.  0.
   310  3.09  0.  0.
   311  3.10  0.  0.
   312  3.11  0.  0.
   313  3.12  0.  0.
   314  3.13  0.  0.
   315  3.14  0.  0.
   316  3.15  0.  0.
   317  3.16  0.  0.
   318  3.17  0.  0.
   319  3.18  0.  0.
   320  3.19  0.  0.
   321  3.20  0.  0.
   322  3.21  0.  0.
   323  3.22  0.  0.
   324  3.23  0.  0.
   325  3.24  0.  0.
   326  3.25  0.  0.
   327  3.26  0.  0.
   328  3.27  0.  0.
   329  3.28  0.  0.
   330  3.29  0.  0.
   331  3.30  0.  0.
   332  3.31  0.  0.
   333  3.32  0.  0.
   334  3.33  0.  0.
   335  3.34  0.  0.
   336  3.35  0.  0.
   337  3.36  0.  0.
   338  3.37  0.  0.
   339  3.38  0.  0.
   340  3.39  0.  0.
   341  3.40  0.  0.
   342  3.41  0.  0.
   343  3.42  0.  0.
   344  3.43  0.  0.
   345  3.44  0.  0.
   346  3.45  0.  0.
   347  3.46  0.  0.
   348  3.47  0.  0.
   349  3.48  0.  0.
   350  3.49  0.  0.
   351  3.50  0.  0.
   352  3.51  0.  0.
   353  3.52  0.  0.
   354  3.53  0.  0.
   355  3.54  0.  0.
   356  3.55  0.  0.
   357  3.56  0.  0.
   358  3.57  0.  0.
   359  3.58  0.  0.
   360  3.59  0.  0.
   361  3.60  0.  0.
   362  3.61  0.  0.
   363  3.62  0.  0.
   364  3.63  0.  0.
   365  3.64  0.  0.
   366  3.65  0.  0.
   367  3.66  0.  0.
   368  3.67  0.  0.
   369  3.68  0.  0.
   370  3.69  0.  0.
   371  3.70  0.  0.
   372  3.71  0.  0.
   373  3.72  0.  0.
   374  3.73  0.  0.
   375  3.74  0.  0.
   376  3.75  0.  0.
   377  3.76  0.  0.
   378  3.77  0.  0.
   379  3.78  0.  0.
   380  3.79  0.  0.
   381  3.80  0.  0.
   382  3.81  0.  0.
   383  3.82  0.  0.
   384  3.83  0.  0.
   385  3.84  0.  0.
   386  3.85  0.  0.
   387  3.86  0.  0.
   388  3.87  0.  0.
   389  3.88  0.  0.
   390  3.89  0.  0.
   391  3.90  0.  0.
   392  3.91  0.  0.
   393  3.92  0.  0.
   394  3.93  0.  0.
   395  3.94  0.  0.
   396  3.95  0.  0.
   397  3.96  0.  0.
   398  3.97  0.  0.
   399  3.98  0.  0.
   400  3.99  0.  0.
   401  4.00  0.  0.
   402  4.01  0.  0.
   403  4.02  0.  0.
   404  4.03  0.  0.
   405  4.04  0.  0.
   406  4.05  0.  0.
   407  4.06  0.  0.
   408  4.07  0.  0.
   409  4.08  0.  0.
   410  4.09  0.  0.
   411  4.10  0.  0.
   412  4.11  0.  0.
   413  4.12  0.  0.
   414  4.13  0.  0.
   415  4.14  0.  0.
   416  4.15  0.  0.
   417  4.16  0.  0.
   418  4.17  0.  0.
   419  4.18  0.  0.
   420  4.19  0.  0.
   421  4.20  0.  0.
   422  4.21  0.  0.
   423  4.22  0.  0.
   424  4.23  0.  0.
   425  4.24  0.  0.
   426  4.25  0.  0.
   427  4.26  0.  0.
   428  4.27  0.  0.
   429  4.28  0.  0.
   430  4.29  0.  0.
   431  4.30  0.  0.
   432  4.31  0.  0.
   433  4.32  0.  0.
   434  4.33  0.  0.
   435  4.34  0.  0.
   436  4.35  0.  0.
   437  4.36  0.  0.
   438  4.37  0.  0.
   439  4.38  0.  0.
   440  4.39  0.  0.
   441  4.40  0.  0.
   442  4.41  0.  0.
   443  4.42  0.  0.
   444  4.43  0.  0.
   445  4.44  0.  0.
   446  4.45  0.  0.
   447  4.46  0.  0.
   448  4.47  0.  0.
   449  4.48  0.  0.
   450  4.49  0.  0.
   451  4.50  0.  0.
   452  4.51  0.  0.
   453  4.52  0.  0.
   454  4.53  0.  0.
   455  4.54  0.  0.
   456  4.55  0.  0.
   457  4.56  0.  0.
   458  4.57  0.  0.
   459  4.58  0.  0.
   460  4.59  0.  0.
   461  4.60  0.  0.
   462  4.61  0.  0.
   463  4.62  0.  0.
   464  4.63  0.  0.
   465  4.64  0.  0.
   466  4.65  0.  0.
   467  4.66  0.  0.
   468  4.67  0.  0.
   469  4.68  0.  0.
   470  4.69  0.  0.
   471  4.70  0.  0.
   472  4.71  0.  0.
   473  4.72  0.  0.
   474  4.73  0.  0.
   475  4.74  0.  0.
   476  4.75  0.  0.
   477  4.76  0.  0.
   478  4.77  0.  0.
   479  4.78  0.  0.
   480  4.79  0.  0.
   481  4.80  0.  0.
   482  4.81  0.  0.
   483  4.82  0.  0.
   484  4.83  0.  0.
   485  4.84  0.  0.
   486  4.85  0.  0.
   487  4.86  0.  0.
   488  4.87  0.  0.
   489  4.88  0.  0.
   490  4.89  0.  0.
   491  4.90  0.  0.
   492  4.91  0.  0.
   493  4.92  0.  0.
   494  4.93  0.  0.
   495  4.94  0.  0.
   496  4.95  0.  0.
   497  4.96  0.  0.
   498  4.97  0.  0.
   499  4.98  0.  0.
   500  4.99  0.  0.
   501  5.00  0.  0.
   502  5.01  0.  0.
   503  5.02  0.  0.
   504  5.03  0.  0.
   505  5.04  0.  0.
   506  5.05  0.  0.
   507  5.06  0.  0.
   508  5.07  0.  0.
   509  5.08  0.  0.
   510  5.09  0.  0.
   511  5.10  0.  0.
   512  5.11  0.  0.
   513  5.12  0.  0.
   514  5.13  0.  0.
   515  5.14  0.  0.
   516  5.15  0.  0.
   517  5.16  0.  0.
   518  5.17  0.  0.
   519  5.18  0.  0.
   520  5.19  0.  0.
   521  5.20  0.  0.
   522  5.21  0.  0.
   523  5.22  0.  0.
   524  5.23  0.  0.
   525  5.24  0.  0.
   526  5.25  0.  0.
   527  5.26  0.  0.
   528  5.27  0.  0.
   529  5.28  0.  0.
   530  5.29  0.  0.
   531  5.30  0.  0.
   532  5.31  0.  0.
   533  5.32  0.  0.
   534  5.33  0.  0.
   535  5.34  0.  0.
   536  5.35  0.  0.
   537  5.36  0.  0.
   538  5.37  0.  0.
   539  5.38  0.  0.
   540  5.39  0.  0.
   541  5.40  0.  0.
   542  5.41  0.  0.
   543  5.42  0.  0.
   544  5.43  0.  0.
   545  5.44  0.  0.
   546  5.45  0.  0.
   547  5.46  0.  0.
   548  5.47  0.  0.
   549  5.48  0.  0.
   550  5.49  0.  0.
   551  5.50  0.  0.
   552  5.51  0.  0.
   553  5.52  0.  0.
   554  5.53  0.  0.
   555  5.54  0.  0.
   556  5.55  0.  0.
   557  5.56  0.  0.
   558  5.57  0.  0.
   559  5.58  0.  0.
   560  5.59  0.  0.
   561  5.60  0.  0.
   562  5.61  0.  0.
   563  5.62  0.  0.
   564  5.63  0.  0.
   565  5.64  0.  0.
   566  5.65  0.  0.
   567  5.66  0.  0.
   568  5.67  0.  0.
   569  5.68  0.  0.
   570  5.69  0.  0.
   571  5.70  0.  0.
   572  5.71  0.  0.
   573  5.72  0.  0.
   574  5.73  0.  0.
   575  5.74  0.  0.
   576  5.75  0.  0.
   577  5.76  0.  0.
   578  5.77  0.  0.
   579  5.78  0.  0.
   580  5.79  0.  0.
   581  5.80  0.  0.
   582  5.81  0.  0.
   583  5.82  0.  0.
   584  5.83  0.  0.
   585  5.84  0.  0.
   586  5.85  0.  0.
   587  5.86  0.  0.
   588  5.87  0.  0.
   589  5.88  0.  0.
   590  5.89  0.  0.
   591  5.90  0.  0.
   592  5.91  0.  0.
   593  5.92  0.  0.
   594  5.93  0.  0.
   595  5.94  0.  0.
   596  5.95  0.  0.
   597  5.96  0.  0.
   598  5.97  0.  0.
   599  5.98  0.  0.
   600  5.99  0.  0.
   1                        -2.1957063104935E+00 -1.1088376119346E-01
     1  0.0000000000000E+00 -2.7564922566725E-11  4.5260235490008E-09
     2  1.0000000000000E-02  1.4103664829811E-03  1.0368095071562E-03
     3  2.0000000000000E-02  5.6369808917159E-03  4.1260554116245E-03
     4  3.0000000000000E-02  1.2666397384992E-02  9.2044585735493E-03
     5  4.0000000000000E-02  2.2476237169553E-02  1.6167447210969E-02
     6  5.0000000000000E-02  3.5035234951026E-02  2.4870489195489E-02
     7  6.0000000000000E-02  5.0303304042285E-02  3.5130941494752E-02
     8  7.0000000000000E-02  6.8231620209712E-02  4.6730400975676E-02
     9  8.0000000000000E-02  8.8762724365362E-02  5.9417536256395E-02
    10  9.0000000000000E-02  1.1183064424363E-01  7.2911375767031E-02
    11  1.0000000000000E-01  1.3736103523475E-01  8.6905022666087E-02
    12  1.1000000000000E-01  1.6527134058430E-01  1.0106976277156E-01
    13  1.2000000000000E-01  1.9547097120761E-01  1.1505952723647E-01
    14  1.3000000000000E-01  2.2786150540965E-01  1.2851566735544E-01
    15  1.4000000000000E-01  2.6233690884370E-01  1.4107199467640E-01
    16  1.5000000000000E-01  2.9878377508502E-01  1.5236003555362E-01
    17  1.6000000000000E-01  3.3708158723632E-01  1.6201444547791E-01
    18  1.7000000000000E-01  3.7710300101914E-01  1.6967852501108E-01
    19  1.8000000000000E-01  4.1871414983642E-01  1.7500977600622E-01
    20  1.9000000000000E-01  4.6177497231474E-01  1.7768543408615E-01
    21  2.0000000000000E-01  5.0613956284701E-01  1.7740791115113E-01
    22  2.1000000000000E-01  5.5165654565530E-01  1.7391008006823E-01
    23  2.2000000000000E-01  5.9816947287666E-01  1.6696033273908E-01
    24  2.3000000000000E-01  6.4551724713892E-01  1.5636734251488E-01
    25  2.4000000000000E-01  6.9353456903685E-01  1.4198446249680E-01
    26  2.5000000000000E-01  7.4205240983866E-01  1.2371369268989E-01
    27  2.6000000000000E-01  7.9089850964714E-01  1.0150915131210E-01
    28  2.7000000000000E-01  8.3989790110681E-01  7.5379988842015E-02
    29  2.8000000000000E-01  8.8887345858701E-01  4.5392687643768E-02
    30  2.9000000000000E-01  9.3764647258020E-01  1.1672695243715E-02
    31  3.0000000000000E-01  9.8603724883467E-01 -2.5594654452067E-02
    32  3.1000000000000E-01  1.0338657314917E+00 -6.6163970542626E-02
    33  3.2000000000000E-01  1.0809521492198E+00 -1.0973041558333E-01
    34  3.3000000000000E-01  1.1271176830358E+00 -1.5593111864040E-01
    35  3.4000000000000E-01  1.1721851541736E+00 -2.0434740278845E-01
    36  3.5000000000000E-01  1.2159797300161E+00 -2.5450782852889E-01
    37  3.6000000000000E-01  1.2583296457372E+00 -3.0589204369434E-01
    38  3.7000000000000E-01  1.2990669389263E+00 -3.5793541908278E-01
    39  3.8000000000000E-01  1.3380281940819E+00 -4.1003443748428E-01
    40  3.9000000000000E-01  1.3750552934736E+00 -4.6155279209172E-01
    41  4.0000000000000E-01  1.4099961704924E+00 -5.1182813870112E-01
    42  4.1000000000000E-01  1.4427055612362E+00 -5.6017943480102E-01
    43  4.2000000000000E-01  1.4730457497269E+00 -6.0591478780738E-01
    44  4.3000000000000E-01  1.5008873018267E+00 -6.4833972452739E-01
    45  4.4000000000000E-01  1.5261097826280E+00 -6.8676578462106E-01
    46  4.5000000000000E-01  1.5486024518351E+00 -7.2051933256575E-01
    47  4.6000000000000E-01  1.5682649314470E+00 -7.4895047560062E-01
    48  4.7000000000000E-01  1.5850078398944E+00 -7.7144196950094E-01
    49  4.8000000000000E-01  1.5987533866903E+00 -7.8741798996307E-01
    50  4.9000000000000E-01  1.6094359216170E+00 -7.9635264500497E-01
    51  5.0000000000000E-01  1.6170024325161E+00 -7.9777810321012E-01
    52  5.1000000000000E-01  1.6214129858537E+00 -7.9129221395615E-01
    53  5.2000000000000E-01  1.6226411044271E+00 -7.7656549902453E-01
    54  5.3000000000000E-01  1.6206740768407E+00 -7.5334740021171E-01
    55  5.4000000000000E-01  1.6155131937302E+00 -7.2147167474493E-01
    56  5.5000000000000E-01  1.6071739061346E+00 -6.8086083940581E-01
    57  5.6000000000000E-01  1.5956859019226E+00 -6.3152957520866E-01
    58  5.7000000000000E-01  1.5810930967538E+00 -5.7358701714554E-01
    59  5.8000000000000E-01  1.5634535367038E+00 -5.0723786776463E-01
    60  5.9000000000000E-01  1.5428392103957E+00 -4.3278228900046E-01
    61  6.0000000000000E-01  1.5193357692464E+00 -3.5061454352366E-01
    62  6.1000000000000E-01  1.4930421552619E+00 -2.6122037468163E-01
    63  6.2000000000000E-01  1.4640701366708E+00 -1.6517313259785E-01
    64  6.3000000000000E-01  1.4325437525836E+00 -6.3128672908717E-02
    65  6.4000000000000E-01  1.3985986687723E+00  4.4180926367896E-02
    66  6.5000000000000E-01  1.3623814475929E+00  1.5595476551498E-01
    67  6.6000000000000E-01  1.3240487359850E+00  2.7133155873505E-01
    68  6.7000000000000E-01  1.2837663763942E+00  3.8939900461990E-01
    69  6.8000000000000E-01  1.2417084463300E+00  5.0920397507584E-01
    70  6.9000000000000E-01  1.1980562331164E+00  6.2976339143888E-01
    71  7.0000000000000E-01  1.1529971511673E+00  7.5007564339194E-01
    72  7.1000000000000E-01  1.1067236098443E+00  8.6913239517291E-01
    73  7.2000000000000E-01  1.0594318405949E+00  9.8593061467617E-01
    74  7.3000000000000E-01  1.0113206926287E+00  1.0994846546125E+00
    75  7.4000000000000E-01  9.6259040685313E-01  1.2088382110646E+00
    76  7.5000000000000E-01  9.1344137815288E-01  1.3130759836827E+00
    77  7.6000000000000E-01  8.6407291634706E-01  1.4113348634986E+00
    78  7.7000000000000E-01  8.1468201629782E-01  1.5028144789207E+00
    79  7.8000000000000E-01  7.6546214766291E-01  1.5867869379032E+00
    80  7.9000000000000E-01  7.1660207468425E-01  1.6626056144962E+00
    81  8.0000000000000E-01  6.6828471618376E-01  1.7297128408598E+00
    82  8.1000000000000E-01  6.2068605559800E-01  1.7876463812157E+00
    83  8.2000000000000E-01  5.7397411042775E-01  1.8360445819041E+00
    84  8.3000000000000E-01  5.2830796991242E-01  1.8746501114498E+00
    85  8.4000000000000E-01  4.8383690906912E-01  1.9033122260446E+00
    86  8.5000000000000E-01  4.4069958646937E-01  1.9219875187875E+00
    87  8.6000000000000E-01  3.9902333227380E-01  1.9307391350274E+00
    88  8.7000000000000E-01  3.5892353211613E-01  1.9297344608532E+00
    89  8.8000000000000E-01  3.2050311143526E-01  1.9192413167611E+00
    90  8.9000000000000E-01  2.8385212381073E-01  1.8996227133936E+00
    91  9.0000000000000E-01  2.4904744577560E-01  1.8713302505682E+00
    92  9.1000000000000E-01  2.1615257947687E-01  1.8348962641808E+00
    93  9.2000000000000E-01  1.8521756343987E-01  1.7909248475792E+00
    94  9.3000000000000E-01  1.5627899058565E-01  1.7400818942726E+00
    95  9.4000000000000E-01  1.2936013156198E-01  1.6830843270013E+00
    96  9.5000000000000E-01  1.0447116039427E-01  1.6206886939307E+00
    97  9.6000000000000E-01  8.1609478454331E-02  1.5536793257415E+00
    98  9.7000000000000E-01  6.0760131796306E-02  1.4828562574400E+00
    99  9.8000000000000E-01  4.1896316030348E-02  1.4090231255967E+00
   100  9.9000000000000E-01  2.4979962105828E-02  1.3329752553112E+00
   101  1.0000000000000E+00  9.9623956668955E-03  1.2554881513917E+00
   102  1.0100000000000E+00 -3.2149379703998E-03  1.1773066050237E+00
   103  1.0200000000000E+00 -1.4619691681337E-02  1.0991346205993E+00
   104  1.0300000000000E+00 -2.4327786104327E-02  1.0216263574885E+00
   105  1.0400000000000E+00 -3.2422540086880E-02  9.4537826850215E-01
   106  1.0500000000000E+00 -3.8993771361334E-02  8.7092260085080E-01
   107  1.0600000000000E+00 -4.4136876888035E-02  7.9872240675731E-01
   108  1.0700000000000E+00 -4.7951902281781E-02  7.2916818992174E-01
   109  1.0800000000000E+00 -5.0542609615403E-02  6.6257629103259E-01
   110  1.0900000000000E+00 -5.2015552678186E-02  5.9918909091864E-01
   111  1.1000000000000E+00 -5.2479168464146E-02  5.3917708417042E-01
   112  1.1100000000000E+00 -5.2042893282591E-02  4.8264284946974E-01
   113  1.1200000000000E+00 -5.0816311433598E-02  4.2962691612244E-01
   114  1.1300000000000E+00 -4.8908343878512E-02  3.8011549954669E-01
   115  1.1400000000000E+00 -4.6426483778354E-02  3.3405005258087E-01
   116  1.1500000000000E+00 -4.3476085173153E-02  2.9133855445627E-01
   117  1.1600000000000E+00 -4.0159710454132E-02  2.5186843603148E-01
   118  1.1700000000000E+00 -3.6576541637583E-02  2.1552101834056E-01
   119  1.1800000000000E+00 -3.2821859807927E-02  1.8218732249782E-01
   120  1.1900000000000E+00 -2.8986596553058E-02  1.5178509699779E-01
   121  1.2000000000000E+00 -2.5156959447505E-02  1.2427684170074E-01
   122  1.2100000000000E+00 -2.1414139972607E-02  9.9688923032435E-02
   123  1.2200000000000E+00 -1.7833582250316E-02  7.8107527182952E-02
   124  1.2300000000000E+00 -1.4482358512905E-02  5.9588668508590E-02
   125  1.2400000000000E+00 -1.1417258323901E-02  4.4108452433494E-02
   126  1.2500000000000E+00 -8.6842604301518E-03  3.1570790429236E-02
   127  1.2600000000000E+00 -6.3121685782488E-03  2.1683175266595E-02
   128  1.2700000000000E+00 -4.3058332442220E-03  1.3813732640743E-02
   129  1.2800000000000E+00 -2.6865087825868E-03  7.9106407765417E-03
   130  1.2900000000000E+00 -1.4622298383376E-03  3.8635672397918E-03
   131  1.3000000000000E+00 -6.2530120558422E-04  1.4490601077671E-03
   132  1.3100000000000E+00 -1.5036606150567E-04  3.2902018422820E-04
   133  1.3200000000000E+00 -2.0787584769934E-06  7.0475515043126E-05
   134  1.3300000000000E+00 -8.6480933613580E-07 -4.5704949696124E-06
   135  1.3400000000000E+00  1.9866418498658E-07  1.1862320526537E-06
   136  1.35  0.  0.
   137  1.36  0.  0.
   138  1.37  0.  0.
   139  1.38  0.  0.
   140  1.39  0.  0.
   141  1.40  0.  0.
   142  1.41  0.  0.
   143  1.42  0.  0.
   144  1.43  0.  0.
   145  1.44  0.  0.
   146  1.45  0.  0.
   147  1.46  0.  0.
   148  1.47  0.  0.
   149  1.48  0.  0.
   150  1.49  0.  0.
   151  1.50  0.  0.
   152  1.51  0.  0.
   153  1.52  0.  0.
   154  1.53  0.  0.
   155  1.54  0.  0.
   156  1.55  0.  0.
   157  1.56  0.  0.
   158  1.57  0.  0.
   159  1.58  0.  0.
   160  1.59  0.  0.
   161  1.60  0.  0.
   162  1.61  0.  0.
   163  1.62  0.  0.
   164  1.63  0.  0.
   165  1.64  0.  0.
   166  1.65  0.  0.
   167  1.66  0.  0.
   168  1.67  0.  0.
   169  1.68  0.  0.
   170  1.69  0.  0.
   171  1.70  0.  0.
   172  1.71  0.  0.
   173  1.72  0.  0.
   174  1.73  0.  0.
   175  1.74  0.  0.
   176  1.75  0.  0.
   177  1.76  0.  0.
   178  1.77  0.  0.
   179  1.78  0.  0.
   180  1.79  0.  0.
   181  1.80  0.  0.
   182  1.81  0.  0.
   183  1.82  0.  0.
   184  1.83  0.  0.
   185  1.84  0.  0.
   186  1.85  0.  0.
   187  1.86  0.  0.
   188  1.87  0.  0.
   189  1.88  0.  0.
   190  1.89  0.  0.
   191  1.90  0.  0.