Co    ONCVPSP-4.0.1  r_core=   1.25099   1.32018   1.65713
     27.0000     17.0000      250217    zatom,zion,pspd
     8       2   2     4   600     0    pspcod,pspxc,lmax,lloc,mmax,r2well
  5.99000000  6.00000000  0.00000000    rchrg fchrg qchrg
     2     2     2     0    nproj
     3     1           extension_switch
     4     4     0    nprojso
   0                         6.5124733862721E+00 -3.6221859972226E-01
     1  0.0000000000000E+00 -1.0111672610336E-09 -1.9782817051173E-08
     2  1.0000000000000E-02  9.6801869296948E-02  7.4975200983395E-02
     3  2.0000000000000E-02  1.9327769232594E-01  1.4908186295768E-01
     4  3.0000000000000E-02  2.8910314090519E-01  2.2146525020202E-01
     5  4.0000000000000E-02  3.8395730621541E-01  2.9129797127819E-01
     6  5.0000000000000E-02  4.7752436672147E-01  3.5779300063449E-01
     7  6.0000000000000E-02  5.6949520671926E-01  4.2021593401501E-01
     8  7.0000000000000E-02  6.5956897026324E-01  4.7789624605702E-01
     9  8.0000000000000E-02  7.4745453624093E-01  5.3023733824169E-01
    10  9.0000000000000E-02  8.3287190158923E-01  5.7672518935518E-01
    11  1.0000000000000E-01  9.1555346107043E-01  6.1693544834593E-01
    12  1.1000000000000E-01  9.9524517361663E-01  6.5053884038620E-01
    13  1.2000000000000E-01  1.0717076069817E+00  6.7730479045314E-01
    14  1.3000000000000E-01  1.1447168542764E+00  6.9710320417588E-01
    15  1.4000000000000E-01  1.2140653178725E+00  7.0990438235242E-01
    16  1.5000000000000E-01  1.2795623581103E+00  7.1577708269767E-01
    17  1.6000000000000E-01  1.3410348061925E+00  7.1488477930409E-01
    18  1.7000000000000E-01  1.3983273425674E+00  7.0748020624683E-01
    19  1.8000000000000E-01  1.4513027439495E+00  6.9389830602543E-01
    20  1.9000000000000E-01  1.4998420038756E+00  6.7454773542026E-01
    21  2.0000000000000E-01  1.5438443333056E+00  6.4990111020733E-01
    22  2.1000000000000E-01  1.5832270492319E+00  6.2048419543819E-01
    23  2.2000000000000E-01  1.6179253605220E+00  5.8686426913116E-01
    24  2.3000000000000E-01  1.6478920612773E+00  5.4963790379997E-01
    25  2.4000000000000E-01  1.6730971428156E+00  5.0941842191473E-01
    26  2.5000000000000E-01  1.6935273359767E+00  4.6682328789216E-01
    27  2.6000000000000E-01  1.7091855957848E+00  4.2246170039417E-01
    28  2.7000000000000E-01  1.7200905405921E+00  3.7692264452364E-01
    29  2.8000000000000E-01  1.7262758576626E+00  3.3076365400143E-01
    30  2.9000000000000E-01  1.7277896867489E+00  2.8450051875096E-01
    31  3.0000000000000E-01  1.7246939925721E+00  2.3859815376767E-01
    32  3.1000000000000E-01  1.7170639362617E+00  1.9346282107935E-01
    33  3.2000000000000E-01  1.7049872547573E+00  1.4943586845996E-01
    34  3.3000000000000E-01  1.6885636559494E+00  1.0678911688882E-01
    35  3.4000000000000E-01  1.6679042359725E+00  6.5721994160990E-02
    36  3.5000000000000E-01  1.6431309235782E+00  2.6360475232037E-02
    37  3.6000000000000E-01  1.6143759549615E+00 -1.1242148451822E-02
    38  3.7000000000000E-01  1.5817813808068E+00 -4.7102687465222E-02
    39  3.8000000000000E-01  1.5454986057108E+00 -8.1303716620684E-02
    40  3.9000000000000E-01  1.5056879585549E+00 -1.1398757496100E-01
    41  4.0000000000000E-01  1.4625182908828E+00 -1.4534883418755E-01
    42  4.1000000000000E-01  1.4161665989184E+00 -1.7562540040219E-01
    43  4.2000000000000E-01  1.3668176635732E+00 -2.0508844516677E-01
    44  4.3000000000000E-01  1.3146637016682E+00 -2.3403138925508E-01
    45  4.4000000000000E-01  1.2599040206608E+00 -2.6275818549037E-01
    46  4.5000000000000E-01  1.2027446684456E+00 -2.9157116521401E-01
    47  4.6000000000000E-01  1.1433980693123E+00 -3.2075872579087E-01
    48  4.7000000000000E-01  1.0820826368990E+00 -3.5058314380287E-01
    49  4.8000000000000E-01  1.0190223549970E+00 -3.8126879999946E-01
    50  4.9000000000000E-01  9.5444631733743E-01 -4.1299109755967E-01
    51  5.0000000000000E-01  8.8858821802316E-01 -4.4586634479342E-01
    52  5.1000000000000E-01  8.2168578505634E-01 -4.7994285720393E-01
    53  5.2000000000000E-01  7.5398015043644E-01 -5.1519351209821E-01
    54  5.3000000000000E-01  6.8571515154997E-01 -5.5150996203726E-01
    55  5.4000000000000E-01  6.1713656001882E-01 -5.8869868183204E-01
    56  5.5000000000000E-01  5.4849123579044E-01 -6.2647898808763E-01
    57  5.6000000000000E-01  4.8002620601057E-01 -6.6448313114205E-01
    58  5.7000000000000E-01  4.1198767008061E-01 -7.0225851737238E-01
    59  5.8000000000000E-01  3.4461993423127E-01 -7.3927207605868E-01
    60  5.9000000000000E-01  2.7816428090013E-01 -7.7491674015299E-01
    61  6.0000000000000E-01  2.1285778014343E-01 -8.0851996528800E-01
    62  6.1000000000000E-01  1.4893205219775E-01 -8.3935416707310E-01
    63  6.2000000000000E-01  8.6611992096129E-02 -8.6664891406939E-01
    64  6.3000000000000E-01  2.6114468892479E-02 -8.8960467368637E-01
    65  6.4000000000000E-01 -3.2352986478935E-02 -9.0740787144449E-01
    66  6.5000000000000E-01 -8.8593489422327E-02 -9.1924699138995E-01
    67  6.6000000000000E-01 -1.4242208967635E-01 -9.2432941764503E-01
    68  6.7000000000000E-01 -1.9366702204470E-01 -9.2189869476309E-01
    69  6.8000000000000E-01 -2.4217090237419E-01 -9.1125186826447E-01
    70  6.9000000000000E-01 -2.8779185116273E-01 -8.9175655687614E-01
    71  7.0000000000000E-01 -3.3040452737562E-01 -8.6286740488776E-01
    72  7.1000000000000E-01 -3.6990105557639E-01 -8.2414156683736E-01
    73  7.2000000000000E-01 -4.0619183033786E-01 -7.7525288749310E-01
    74  7.3000000000000E-01 -4.3920618308191E-01 -7.1600445769846E-01
    75  7.4000000000000E-01 -4.6889289799045E-01 -6.4633925087000E-01
    76  7.5000000000000E-01 -4.9522056541326E-01 -5.6634857540400E-01
    77  7.6000000000000E-01 -5.1817776324624E-01 -4.7627811446796E-01
    78  7.7000000000000E-01 -5.3777305903319E-01 -3.7653136601028E-01
    79  7.8000000000000E-01 -5.5403482801927E-01 -2.6767034158910E-01
    80  7.9000000000000E-01 -5.6701088501288E-01 -1.5041343197626E-01
    81  8.0000000000000E-01 -5.7676793064992E-01 -2.5630399535053E-02
    82  8.1000000000000E-01 -5.8339081545181E-01  1.0566548887337E-01
    83  8.2000000000000E-01 -5.8698162787665E-01  2.4232812023930E-01
    84  8.3000000000000E-01 -5.8765861532931E-01  3.8309186267888E-01
    85  8.4000000000000E-01 -5.8555494977043E-01  5.2658738658082E-01
    86  8.5000000000000E-01 -5.8081735209524E-01  6.7135975427995E-01
    87  8.6000000000000E-01 -5.7360459179222E-01  8.1588850605815E-01
    88  8.7000000000000E-01 -5.6408588049285E-01  9.5860942780526E-01
    89  8.8000000000000E-01 -5.5243917984521E-01  1.0979376484715E+00
    90  8.9000000000000E-01 -5.3884944564791E-01  1.2322916842970E+00
    91  9.0000000000000E-01 -5.2350683133514E-01  1.3601180223926E+00
    92  9.1000000000000E-01 -5.0660487468180E-01  1.4799158191329E+00
    93  9.2000000000000E-01 -4.8833869198112E-01  1.5902612794302E+00
    94  9.3000000000000E-01 -4.6890320392249E-01  1.6898312815674E+00
    95  9.4000000000000E-01 -4.4849141696071E-01  1.7774258190196E+00
    96  9.5000000000000E-01 -4.2729278312126E-01  1.8519888455541E+00
    97  9.6000000000000E-01 -4.0549165994049E-01  1.9126271326942E+00
    98  9.7000000000000E-01 -3.8326589061263E-01  1.9586267790367E+00
    99  9.8000000000000E-01 -3.6078552243286E-01  1.9894670484176E+00
   100  9.9000000000000E-01 -3.3821167931835E-01  2.0048312579483E+00
   101  1.0000000000000E+00 -3.1569560159706E-01  2.0046144866957E+00
   102  1.0100000000000E+00 -2.9337786342082E-01  1.9889279304056E+00
   103  1.0200000000000E+00 -2.7138777513387E-01  1.9580997861835E+00
   104  1.0300000000000E+00 -2.4984297476235E-01  1.9126726124378E+00
   105  1.0400000000000E+00 -2.2884920954342E-01  1.8533971724593E+00
   106  1.0500000000000E+00 -2.0850030514068E-01  1.7812228336435E+00
   107  1.0600000000000E+00 -1.8887831695137E-01  1.6972846574405E+00
   108  1.0700000000000E+00 -1.7005385476879E-01  1.6028873762553E+00
   109  1.0800000000000E+00 -1.5208656906441E-01  1.4994865118446E+00
   110  1.0900000000000E+00 -1.3502578436522E-01  1.3886669439106E+00
   111  1.1000000000000E+00 -1.1891126266890E-01  1.2721192866439E+00
   112  1.1100000000000E+00 -1.0377407760607E-01  1.1516144740444E+00
   113  1.1200000000000E+00 -8.9637578178466E-02  1.0289769908676E+00
   114  1.1300000000000E+00 -7.6518419392015E-02  9.0605721462473E-01
   115  1.1400000000000E+00 -6.4427636012783E-02  7.8470335427965E-01
   116  1.1500000000000E+00 -5.3371735004448E-02  6.6673348300053E-01
   117  1.1600000000000E+00 -4.3353781983652E-02  5.5390816509751E-01
   118  1.1700000000000E+00 -3.4374455378285E-02  4.4790418886195E-01
   119  1.1800000000000E+00 -2.6433060585021E-02  3.5028971058665E-01
   120  1.1900000000000E+00 -1.9528780284849E-02  2.6249868633967E-01
   121  1.2000000000000E+00 -1.3668679170645E-02  1.8573851270130E-01
   122  1.2100000000000E+00 -8.8520286224097E-03  1.2112476465428E-01
   123  1.2200000000000E+00 -5.0744597390775E-03  6.9642551207726E-02
   124  1.2300000000000E+00 -2.3367129741396E-03  3.2038532630204E-02
   125  1.2400000000000E+00 -6.3901538602171E-04  8.7196009882007E-03
   126  1.2500000000000E+00 -1.4018348392464E-05  1.8952185116004E-04
   127  1.2600000000000E+00 -3.0677673360107E-06  4.1605563303496E-05
   128  1.2700000000000E+00  7.7451842640862E-07 -1.0538902233144E-05
   129  1.28  0.  0.
   130  1.29  0.  0.
   131  1.30  0.  0.
   132  1.31  0.  0.
   133  1.32  0.  0.
   134  1.33  0.  0.
   135  1.34  0.  0.
   136  1.35  0.  0.
   137  1.36  0.  0.
   138  1.37  0.  0.
   139  1.38  0.  0.
   140  1.39  0.  0.
   141  1.40  0.  0.
   142  1.41  0.  0.
   143  1.42  0.  0.
   144  1.43  0.  0.
   145  1.44  0.  0.
   146  1.45  0.  0.
   147  1.46  0.  0.
   148  1.47  0.  0.
   149  1.48  0.  0.
   150  1.49  0.  0.
   151  1.50  0.  0.
   152  1.51  0.  0.
   153  1.52  0.  0.
   154  1.53  0.  0.
   155  1.54  0.  0.
   156  1.55  0.  0.
   157  1.56  0.  0.
   158  1.57  0.  0.
   159  1.58  0.  0.
   160  1.59  0.  0.
   161  1.60  0.  0.
   162  1.61  0.  0.
   163  1.62  0.  0.
   164  1.63  0.  0.
   165  1.64  0.  0.
   166  1.65  0.  0.
   167  1.66  0.  0.
   168  1.67  0.  0.
   169  1.68  0.  0.
   170  1.69  0.  0.
   171  1.70  0.  0.
   172  1.71  0.  0.
   173  1.72  0.  0.
   174  1.73  0.  0.
   175  1.74  0.  0.
   176  1.75  0.  0.
   177  1.76  0.  0.
   178  1.77  0.  0.
   179  1.78  0.  0.
   180  1.79  0.  0.
   181  1.80  0.  0.
   182  1.81  0.  0.
   183  1.82  0.  0.
   184  1.83  0.  0.
   185  1.84  0.  0.
   186  1.85  0.  0.
   187  1.86  0.  0.
   188  1.87  0.  0.
   189  1.88  0.  0.
   190  1.89  0.  0.
   191  1.90  0.  0.
   192  1.91  0.  0.
   193  1.92  0.  0.
   194  1.93  0.  0.
   195  1.94  0.  0.
   196  1.95  0.  0.
   197  1.96  0.  0.
   198  1.97  0.  0.
   199  1.98  0.  0.
   200  1.99  0.  0.
   201  2.00  0.  0.
   202  2.01  0.  0.
   203  2.02  0.  0.
   204  2.03  0.  0.
   205  2.04  0.  0.
   206  2.05  0.  0.
   207  2.06  0.  0.
   208  2.07  0.  0.
   209  2.08  0.  0.
   210  2.09  0.  0.
   211  2.10  0.  0.
   212  2.11  0.  0.
   213  2.12  0.  0.
   214  2.13  0.  0.
   215  2.14  0.  0.
   216  2.15  0.  0.
   217  2.16  0.  0.
   218  2.17  0.  0.
   219  2.18  0.  0.
   220  2.19  0.  0.
   221  2.20  0.  0.
   222  2.21  0.  0.
   223  2.22  0.  0.
   224  2.23  0.  0.
   225  2.24  0.  0.
   226  2.25  0.  0.
   227  2.26  0.  0.
   228  2.27  0.  0.
   229  2.28  0.  0.
   230  2.29  0.  0.
   231  2.30  0.  0.
   232  2.31  0.  0.
   233  2.32  0.  0.
   234  2.33  0.  0.
   235  2.34  0.  0.
   236  2.35  0.  0.
   237  2.36  0.  0.
   238  2.37  0.  0.
   239  2.38  0.  0.
   240  2.39  0.  0.
   241  2.40  0.  0.
   242  2.41  0.  0.
   243  2.42  0.  0.
   244  2.43  0.  0.
   245  2.44  0.  0.
   246  2.45  0.  0.
   247  2.46  0.  0.
   248  2.47  0.  0.
   249  2.48  0.  0.
   250  2.49  0.  0.
   251  2.50  0.  0.
   252  2.51  0.  0.
   253  2.52  0.  0.
   254  2.53  0.  0.
   255  2.54  0.  0.
   256  2.55  0.  0.
   257  2.56  0.  0.
   258  2.57  0.  0.
   259  2.58  0.  0.
   260  2.59  0.  0.
   261  2.60  0.  0.
   262  2.61  0.  0.
   263  2.62  0.  0.
   264  2.63  0.  0.
   265  2.64  0.  0.
   266  2.65  0.  0.
   267  2.66  0.  0.
   268  2.67  0.  0.
   269  2.68  0.  0.
   270  2.69  0.  0.
   271  2.70  0.  0.
   272  2.71  0.  0.
   273  2.72  0.  0.
   274  2.73  0.  0.
   275  2.74  0.  0.
   276  2.75  0.  0.
   277  2.76  0.  0.
   278  2.77  0.  0.
   279  2.78  0.  0.
   280  2.79  0.  0.
   281  2.80  0.  0.
   282  2.81  0.  0.
   283  2.82  0.  0.
   284  2.83  0.  0.
   285  2.84  0.  0.
   286  2.85  0.  0.
   287  2.86  0.  0.
   288  2.87  0.  0.
   289  2.88  0.  0.
   290  2.89  0.  0.
   291  2.90  0.  0.
   292  2.91  0.  0.
   293  2.92  0.  0.
   294  2.93  0.  0.
   295  2.94  0.  0.
   296  2.95  0.  0.
   297  2.96  0.  0.
   298  2.97  0.  0.
   299  2.98  0.  0.
   300  2.99  0.  0.
   301  3.00  0.  0.
   302  3.01  0.  0.
   303  3.02  0.  0.
   304  3.03  0.  0.
   305  3.04  0.  0.
   306  3.05  0.  0.
   307  3.06  0.  0.
   308  3.07  0.  0.
   309  3.08  0.  0.
   310  3.09  0.  0.
   311  3.10  0.  0.
   312  3.11  0.  0.
   313  3.12  0.  0.
   314  3.13  0.  0.
   315  3.14  0.  0.
   316  3.15  0.  0.
   317  3.16  0.  0.
   318  3.17  0.  0.
   319  3.18  0.  0.
   320  3.19  0.  0.
   321  3.20  0.  0.
   322  3.21  0.  0.
   323  3.22  0.  0.
   324  3.23  0.  0.
   325  3.24  0.  0.
   326  3.25  0.  0.
   327  3.26  0.  0.
   328  3.27  0.  0.
   329  3.28  0.  0.
   330  3.29  0.  0.
   331  3.30  0.  0.
   332  3.31  0.  0.
   333  3.32  0.  0.
   334  3.33  0.  0.
   335  3.34  0.  0.
   336  3.35  0.  0.
   337  3.36  0.  0.
   338  3.37  0.  0.
   339  3.38  0.  0.
   340  3.39  0.  0.
   341  3.40  0.  0.
   342  3.41  0.  0.
   343  3.42  0.  0.
   344  3.43  0.  0.
   345  3.44  0.  0.
   346  3.45  0.  0.
   347  3.46  0.  0.
   348  3.47  0.  0.
   349  3.48  0.  0.
   350  3.49  0.  0.
   351  3.50  0.  0.
   352  3.51  0.  0.
   353  3.52  0.  0.
   354  3.53  0.  0.
   355  3.54  0.  0.
   356  3.55  0.  0.
   357  3.56  0.  0.
   358  3.57  0.  0.
   359  3.58  0.  0.
   360  3.59  0.  0.
   361  3.60  0.  0.
   362  3.61  0.  0.
   363  3.62  0.  0.
   364  3.63  0.  0.
   365  3.64  0.  0.
   366  3.65  0.  0.
   367  3.66  0.  0.
   368  3.67  0.  0.
   369  3.68  0.  0.
   370  3.69  0.  0.
   371  3.70  0.  0.
   372  3.71  0.  0.
   373  3.72  0.  0.
   374  3.73  0.  0.
   375  3.74  0.  0.
   376  3.75  0.  0.
   377  3.76  0.  0.
   378  3.77  0.  0.
   379  3.78  0.  0.
   380  3.79  0.  0.
   381  3.80  0.  0.
   382  3.81  0.  0.
   383  3.82  0.  0.
   384  3.83  0.  0.
   385  3.84  0.  0.
   386  3.85  0.  0.
   387  3.86  0.  0.
   388  3.87  0.  0.
   389  3.88  0.  0.
   390  3.89  0.  0.
   391  3.90  0.  0.
   392  3.91  0.  0.
   393  3.92  0.  0.
   394  3.93  0.  0.
   395  3.94  0.  0.
   396  3.95  0.  0.
   397  3.96  0.  0.
   398  3.97  0.  0.
   399  3.98  0.  0.
   400  3.99  0.  0.
   401  4.00  0.  0.
   402  4.01  0.  0.
   403  4.02  0.  0.
   404  4.03  0.  0.
   405  4.04  0.  0.
   406  4.05  0.  0.
   407  4.06  0.  0.
   408  4.07  0.  0.
   409  4.08  0.  0.
   410  4.09  0.  0.
   411  4.10  0.  0.
   412  4.11  0.  0.
   413  4.12  0.  0.
   414  4.13  0.  0.
   415  4.14  0.  0.
   416  4.15  0.  0.
   417  4.16  0.  0.
   418  4.17  0.  0.
   419  4.18  0.  0.
   420  4.19  0.  0.
   421  4.20  0.  0.
   422  4.21  0.  0.
   423  4.22  0.  0.
   424  4.23  0.  0.
   425  4.24  0.  0.
   426  4.25  0.  0.
   427  4.26  0.  0.
   428  4.27  0.  0.
   429  4.28  0.  0.
   430  4.29  0.  0.
   431  4.30  0.  0.
   432  4.31  0.  0.
   433  4.32  0.  0.
   434  4.33  0.  0.
   435  4.34  0.  0.
   436  4.35  0.  0.
   437  4.36  0.  0.
   438  4.37  0.  0.
   439  4.38  0.  0.
   440  4.39  0.  0.
   441  4.40  0.  0.
   442  4.41  0.  0.
   443  4.42  0.  0.
   444  4.43  0.  0.
   445  4.44  0.  0.
   446  4.45  0.  0.
   447  4.46  0.  0.
   448  4.47  0.  0.
   449  4.48  0.  0.
   450  4.49  0.  0.
   451  4.50  0.  0.
   452  4.51  0.  0.
   453  4.52  0.  0.
   454  4.53  0.  0.
   455  4.54  0.  0.
   456  4.55  0.  0.
   457  4.56  0.  0.
   458  4.57  0.  0.
   459  4.58  0.  0.
   460  4.59  0.  0.
   461  4.60  0.  0.
   462  4.61  0.  0.
   463  4.62  0.  0.
   464  4.63  0.  0.
   465  4.64  0.  0.
   466  4.65  0.  0.
   467  4.66  0.  0.
   468  4.67  0.  0.
   469  4.68  0.  0.
   470  4.69  0.  0.
   471  4.70  0.  0.
   472  4.71  0.  0.
   473  4.72  0.  0.
   474  4.73  0.  0.
   475  4.74  0.  0.
   476  4.75  0.  0.
   477  4.76  0.  0.
   478  4.77  0.  0.
   479  4.78  0.  0.
   480  4.79  0.  0.
   481  4.80  0.  0.
   482  4.81  0.  0.
   483  4.82  0.  0.
   484  4.83  0.  0.
   485  4.84  0.  0.
   486  4.85  0.  0.
   487  4.86  0.  0.
   488  4.87  0.  0.
   489  4.88  0.  0.
   490  4.89  0.  0.
   491  4.90  0.  0.
   492  4.91  0.  0.
   493  4.92  0.  0.
   494  4.93  0.  0.
   495  4.94  0.  0.
   496  4.95  0.  0.
   497  4.96  0.  0.
   498  4.97  0.  0.
   499  4.98  0.  0.
   500  4.99  0.  0.
   501  5.00  0.  0.
   502  5.01  0.  0.
   503  5.02  0.  0.
   504  5.03  0.  0.
   505  5.04  0.  0.
   506  5.05  0.  0.
   507  5.06  0.  0.
   508  5.07  0.  0.
   509  5.08  0.  0.
   510  5.09  0.  0.
   511  5.10  0.  0.
   512  5.11  0.  0.
   513  5.12  0.  0.
   514  5.13  0.  0.
   515  5.14  0.  0.
   516  5.15  0.  0.
   517  5.16  0.  0.
   518  5.17  0.  0.
   519  5.18  0.  0.
   520  5.19  0.  0.
   521  5.20  0.  0.
   522  5.21  0.  0.
   523  5.22  0.  0.
   524  5.23  0.  0.
   525  5.24  0.  0.
   526  5.25  0.  0.
   527  5.26  0.  0.
   528  5.27  0.  0.
   529  5.28  0.  0.
   530  5.29  0.  0.
   531  5.30  0.  0.
   532  5.31  0.  0.
   533  5.32  0.  0.
   534  5.33  0.  0.
   535  5.34  0.  0.
   536  5.35  0.  0.
   537  5.36  0.  0.
   538  5.37  0.  0.
   539  5.38  0.  0.
   540  5.39  0.  0.
   541  5.40  0.  0.
   542  5.41  0.  0.
   543  5.42  0.  0.
   544  5.43  0.  0.
   545  5.44  0.  0.
   546  5.45  0.  0.
   547  5.46  0.  0.
   548  5.47  0.  0.
   549  5.48  0.  0.
   550  5.49  0.  0.
   551  5.50  0.  0.
   552  5.51  0.  0.
   553  5.52  0.  0.
   554  5.53  0.  0.
   555  5.54  0.  0.
   556  5.55  0.  0.
   557  5.56  0.  0.
   558  5.57  0.  0.
   559  5.58  0.  0.
   560  5.59  0.  0.
   561  5.60  0.  0.
   562  5.61  0.  0.
   563  5.62  0.  0.
   564  5.63  0.  0.
   565  5.64  0.  0.
   566  5.65  0.  0.
   567  5.66  0.  0.
   568  5.67  0.  0.
   569  5.68  0.  0.
   570  5.69  0.  0.
   571  5.70  0.  0.
   572  5.71  0.  0.
   573  5.72  0.  0.
   574  5.73  0.  0.
   575  5.74  0.  0.
   576  5.75  0.  0.
   577  5.76  0.  0.
   578  5.77  0.  0.
   579  5.78  0.  0.
   580  5.79  0.  0.
   581  5.80  0.  0.
   582  5.81  0.  0.
   583  5.82  0.  0.
   584  5.83  0.  0.
   585  5.84  0.  0.
   586  5.85  0.  0.
   587  5.86  0.  0.
   588  5.87  0.  0.
   589  5.88  0.  0.
   590  5.89  0.  0.
   591  5.90  0.  0.
   592  5.91  0.  0.
   593  5.92  0.  0.
   594  5.93  0.  0.
   595  5.94  0.  0.
   596  5.95  0.  0.
   597  5.96  0.  0.
   598  5.97  0.  0.
   599  5.98  0.  0.
   600  5.99  0.  0.
   1                        -2.1955993603800E+00 -1.1091167811487E-01
     1  0.0000000000000E+00 -2.9341890028789E-11  4.5775654586300E-09
     2  1.0000000000000E-02  1.4101542407772E-03  1.0390720021331E-03
     3  2.0000000000000E-02  5.6361352289978E-03  4.1350402417634E-03
     4  3.0000000000000E-02  1.2664506986429E-02  9.2244315681451E-03
     5  4.0000000000000E-02  2.2472906974672E-02  1.6202355615855E-02
     6  5.0000000000000E-02  3.5030092274457E-02  2.4923844148693E-02
     7  6.0000000000000E-02  5.0296004320650E-02  3.5205710168201E-02
     8  7.0000000000000E-02  6.8221852280193E-02  4.6828910803540E-02
     9  8.0000000000000E-02  8.8750215189499E-02  5.9541393421919E-02
    10  9.0000000000000E-02  1.1181516299993E-01  7.3061399829093E-02
    11  1.0000000000000E-01  1.3734239671512E-01  8.7081198875371E-02
    12  1.1000000000000E-01  1.6524940784181E-01  1.0127121326370E-01
    13  1.2000000000000E-01  1.9544565741661E-01  1.1528450189957E-01
    14  1.3000000000000E-01  2.2783277491337E-01  1.2876155476563E-01
    15  1.4000000000000E-01  2.6230477737897E-01  1.4133535307664E-01
    16  1.5000000000000E-01  2.9874830918836E-01  1.5263664343772E-01
    17  1.6000000000000E-01  3.3704290285013E-01  1.6229937093007E-01
    18  1.7000000000000E-01  3.7706126133074E-01  1.6996621255770E-01
    19  1.8000000000000E-01  4.1866956239609E-01  1.7529414936630E-01
    20  1.9000000000000E-01  4.6172778549125E-01  1.7796001286644E-01
    21  2.0000000000000E-01  5.0609006169034E-01  1.7766593922911E-01
    22  2.1000000000000E-01  5.5160504724625E-01  1.7414466314860E-01
    23  2.2000000000000E-01  5.9811632125121E-01  1.6716458235780E-01
    24  2.3000000000000E-01  6.4546280788179E-01  1.5653452361023E-01
    25  2.4000000000000E-01  6.9347922364356E-01  1.4210814156693E-01
    26  2.5000000000000E-01  7.4199654994822E-01  1.2378788351521E-01
    27  2.6000000000000E-01  7.9084253124840E-01  1.0152845524079E-01
    28  2.7000000000000E-01  8.3984219882044E-01  7.5339726716423E-02
    29  2.8000000000000E-01  8.8881842012220E-01  4.5289020582481E-02
    30  2.9000000000000E-01  9.3759247346022E-01  1.1502731688842E-02
    31  3.0000000000000E-01  9.8598464747911E-01 -2.5832767766539E-02
    32  3.1000000000000E-01  1.0338148647347E+00 -6.6470975751255E-02
    33  3.2000000000000E-01  1.0809033283344E+00 -1.1010589069157E-01
    34  3.3000000000000E-01  1.1270711903231E+00 -1.5637344570873E-01
    35  3.4000000000000E-01  1.1721412401646E+00 -2.0485375823767E-01
    36  3.5000000000000E-01  1.2159386113201E+00 -2.5507419608224E-01
    37  3.6000000000000E-01  1.2582915035582E+00 -3.0651325003798E-01
    38  3.7000000000000E-01  1.2990319182564E+00 -3.5860519188571E-01
    39  3.8000000000000E-01  1.3379964035646E+00 -4.1074548498352E-01
    40  3.9000000000000E-01  1.3750268059202E+00 -4.6229690302576E-01
    41  4.0000000000000E-01  1.4099710240191E+00 -5.1259630097385E-01
    42  4.1000000000000E-01  1.4426837609796E+00 -5.6096197088463E-01
    43  4.2000000000000E-01  1.4730272700836E+00 -6.0670150455661E-01
    44  4.3000000000000E-01  1.5008720891548E+00 -6.4912007478546E-01
    45  4.4000000000000E-01  1.5260977583382E+00 -6.8752903775230E-01
    46  4.5000000000000E-01  1.5485935157933E+00 -7.2125475086046E-01
    47  4.6000000000000E-01  1.5682589656060E+00 -7.4964749336437E-01
    48  4.7000000000000E-01  1.5850047120691E+00 -7.7209037156921E-01
    49  4.8000000000000E-01  1.5987529543878E+00 -7.8800808637302E-01
    50  4.9000000000000E-01  1.6094380358370E+00 -7.9687543860727E-01
    51  5.0000000000000E-01  1.6170069414349E+00 -7.9822544711994E-01
    52  5.1000000000000E-01  1.6214197383143E+00 -7.9165695591515E-01
    53  5.2000000000000E-01  1.6226499531589E+00 -7.7684160997787E-01
    54  5.3000000000000E-01  1.6206848813441E+00 -7.5353008468507E-01
    55  5.4000000000000E-01  1.6155258227654E+00 -7.2155746093643E-01
    56  5.5000000000000E-01  1.6071882397691E+00 -6.8084764727913E-01
    57  5.6000000000000E-01  1.5957018330979E+00 -6.3141676127316E-01
    58  5.7000000000000E-01  1.5811105323461E+00 -5.7337539504154E-01
    59  5.8000000000000E-01  1.5634723980660E+00 -5.0692970421505E-01
    60  5.9000000000000E-01  1.5428594333777E+00 -4.3238127514642E-01
    61  6.0000000000000E-01  1.5193573037052E+00 -3.5012574211464E-01
    62  6.1000000000000E-01  1.4930649640840E+00 -2.6065014403611E-01
    63  6.2000000000000E-01  1.4640941943414E+00 -1.6452902868043E-01
    64  6.3000000000000E-01  1.4325690433460E+00 -6.2419331267337E-02
    65  6.4000000000000E-01  1.3986251844329E+00  4.4945926688320E-02
    66  6.5000000000000E-01  1.3624091850325E+00  1.5676505364235E-01
    67  6.6000000000000E-01  1.3240776944473E+00  2.7217613649987E-01
    68  6.7000000000000E-01  1.2837965546234E+00  3.9026642099714E-01
    69  6.8000000000000E-01  1.2417398396385E+00  5.1008250741498E-01
    70  6.9000000000000E-01  1.1980888304590E+00  6.3064123025266E-01
    71  7.0000000000000E-01  1.1530309323041E+00  7.5094107742037E-01
    72  7.1000000000000E-01  1.1067585426689E+00  8.6997399345487E-01
    73  7.2000000000000E-01  1.0594678787025E+00  9.8673740243615E-01
    74  7.3000000000000E-01  1.0113577731935E+00  1.1002462799062E+00
    75  7.4000000000000E-01  9.6262844887696E-01  1.2095450993203E+00
    76  7.5000000000000E-01  9.1348028113883E-01  1.3137194775236E+00
    77  7.6000000000000E-01  8.6411255944303E-01  1.4119073455254E+00
    78  7.7000000000000E-01  8.1472225794358E-01  1.5033094754723E+00
    79  7.8000000000000E-01  7.6550282576311E-01  1.5871992021888E+00
    80  7.9000000000000E-01  7.1664300731791E-01  1.6629311878872E+00
    81  8.0000000000000E-01  6.6832570284847E-01  1.7299490915573E+00
    82  8.1000000000000E-01  6.2072687897458E-01  1.7877920199378E+00
    83  8.2000000000000E-01  5.7401453863916E-01  1.8360996546710E+00
    84  8.3000000000000E-01  5.2834775923902E-01  1.8746159699740E+00
    85  8.4000000000000E-01  4.8387580707143E-01  1.9031914766475E+00
    86  8.5000000000000E-01  4.4073733545974E-01  1.9217839511526E+00
    87  8.6000000000000E-01  3.9905967306952E-01  1.9304576324613E+00
    88  8.7000000000000E-01  3.5895820799944E-01  1.9293808940481E+00
    89  8.8000000000000E-01  3.2053587223991E-01  1.9188224233298E+00
    90  8.9000000000000E-01  2.8388273005069E-01  1.8991459656808E+00
    91  9.0000000000000E-01  2.4907567272957E-01  1.8708037144147E+00
    92  9.1000000000000E-01  2.1617822114162E-01  1.8343284514398E+00
    93  9.2000000000000E-01  1.8524043626735E-01  1.7903245652463E+00
    94  9.3000000000000E-01  1.5629893692200E-01  1.7394580930928E+00
    95  9.4000000000000E-01  1.2937702271201E-01  1.6824459523625E+00
    96  9.5000000000000E-01  1.0448489924174E-01  1.6200445417422E+00
    97  9.6000000000000E-01  8.1620001577170E-02  1.5530379058298E+00
    98  9.7000000000000E-01  6.0767411025621E-02  1.4822256667798E+00
    99  9.8000000000000E-01  4.1900359413245E-02  1.4084109334386E+00
   100  9.9000000000000E-01  2.4980814244248E-02  1.3323884019658E+00
   101  1.0000000000000E+00  9.9601374173294E-03  1.2549328621050E+00
   102  1.0100000000000E+00 -3.2201904380633E-03  1.1767883200212E+00
   103  1.0200000000000E+00 -1.4627788454350E-02  1.0986579420104E+00
   104  1.0300000000000E+00 -2.4338545702059E-02  1.0211950134788E+00
   105  1.0400000000000E+00 -3.2435752202600E-02  9.4499509456695E-01
   106  1.0500000000000E+00 -3.9009200120854E-02  8.7058953784935E-01
   107  1.0600000000000E+00 -4.4154264564129E-02  7.9844051491271E-01
   108  1.0700000000000E+00 -4.7970973393195E-02  7.2893767767928E-01
   109  1.0800000000000E+00 -5.0563075330786E-02  6.6239655736837E-01
   110  1.0900000000000E+00 -5.2037115438155E-02  5.9905877942439E-01
   111  1.1000000000000E+00 -5.2501526729558E-02  5.3909414701709E-01
   112  1.1100000000000E+00 -5.2065746313836E-02  4.8260461917756E-01
   113  1.1200000000000E+00 -5.0839364004339E-02  4.2963018293571E-01
   114  1.1300000000000E+00 -4.8931310827974E-02  3.8015659213846E-01
   115  1.1400000000000E+00 -4.6449094309212E-02  3.3412491979138E-01
   116  1.1500000000000E+00 -4.3498086806548E-02  2.9144284579906E-01
   117  1.1600000000000E+00 -4.0180872560221E-02  2.5199757878673E-01
   118  1.1700000000000E+00 -3.6596658468312E-02  2.1567028918724E-01
   119  1.1800000000000E+00 -3.2840752968869E-02  1.8235191181533E-01
   120  1.1900000000000E+00 -2.9004116862625E-02  1.5196016418937E-01
   121  1.2000000000000E+00 -2.5172988144563E-02  1.2445756015867E-01
   122  1.2100000000000E+00 -2.1428589247140E-02  9.9870513589987E-02
   123  1.2200000000000E+00 -1.7846395086124E-02  7.8285284700429E-02
   124  1.2300000000000E+00 -1.4493507842533E-02  5.9758000590121E-02
   125  1.2400000000000E+00 -1.1426745512546E-02  4.4264920561988E-02
   126  1.2500000000000E+00 -8.6921130883965E-03  3.1710139599691E-02
   127  1.2600000000000E+00 -6.3184385304409E-03  2.1801400997075E-02
   128  1.2700000000000E+00 -4.3105952009406E-03  1.3907199528221E-02
   129  1.2800000000000E+00 -2.6898527825826E-03  7.9758502274439E-03
   130  1.2900000000000E+00 -1.4642564923907E-03  3.8971434292116E-03
   131  1.3000000000000E+00 -6.2611256978353E-04  1.4475018559621E-03
   132  1.3100000000000E+00 -1.5011510865739E-04  2.9174109692822E-04
   133  1.3200000000000E+00 -7.6483517247029E-07 -1.1166074035833E-05
   134  1.3300000000000E+00 -9.8888995868172E-07  2.8850543179430E-06
   135  1.3400000000000E+00  2.3040064320486E-07 -7.3911882829152E-07
   136  1.35  0.  0.
   137  1.36  0.  0.
   138  1.37  0.  0.
   139  1.38  0.  0.
   140  1.39  0.  0.
   141  1.40  0.  0.
   142  1.41  0.  0.
   143  1.42  0.  0.
   144  1.43  0.  0.
   145  1.44  0.  0.
   146  1.45  0.  0.
   147  1.46  0.  0.
   148  1.47  0.  0.
   149  1.48  0.  0.
   150  1.49  0.  0.
   151  1.50  0.  0.
   152  1.51  0.  0.
   153  1.52  0.  0.
   154  1.53  0.  0.
   155  1.54  0.  0.
   156  1.55  0.  0.
   157  1.56  0.  0.
   158  1.57  0.  0.
   159  1.58  0.  0.
   160  1.59  0.  0.
   161  1.60  0.  0.
   162  1.61  0.  0.
   163  1.62  0.  0.
   164  1.63  0.  0.
   165  1.64  0.  0.
   166  1.65  0.  0.
   167  1.66  0.  0.
   168  1.67  0.  0.
   169  1.68  0.  0.
   170  1.69  0.  0.
   171  1.70  0.  0.
   172  1.71  0.  0.
   173  1.72  0.  0.
   174  1.73  0.  0.
   175  1.74  0.  0.
   176  1.75  0.  0.
   177  1.76  0.  0.
   178  1.77  0.  0.
   179  1.78  0.  0.
   180  1.79  0.  0.
   181  1.80  0.  0.
   182  1.81  0.  0.
   183  1.82  0.  0.
   184  1.83  0.  0.
   185  1.84  0.  0.
   186  1.85  0.  0.
   187  1.86  0.  0.
   188  1.87  0.  0.
   189  1.88  0.  0.
   190  1.89  0.  0.
   191  1.90  0.  0.