Co    ONCVPSP-4.0.1  r_core=   1.25099   1.32018   1.65713
     27.0000     17.0000      231019    zatom,zion,pspd
     8       2   2     4   600     0    pspcod,pspxc,lmax,lloc,mmax,r2well
  5.99000000  6.00000000  0.00000000    rchrg fchrg qchrg
     2     2     2     0     0    nproj
     1     1           extension_switch
   0                         6.5117572498666E+00 -3.6102522615395E-01
     1  0.0000000000000E+00 -1.0168036412850E-09 -1.9784166527259E-08
     2  1.0000000000000E-02  9.6831888045095E-02  7.4921087784812E-02
     3  2.0000000000000E-02  1.9333739172162E-01  1.4897401650858E-01
     4  3.0000000000000E-02  2.8919184915473E-01  2.2130442947443E-01
     5  4.0000000000000E-02  3.8407402657073E-01  2.9108531240886E-01
     6  5.0000000000000E-02  4.7766779039809E-01  3.5753001410846E-01
     7  6.0000000000000E-02  5.6966372977006E-01  4.1990450086001E-01
     8  7.0000000000000E-02  6.5976071411630E-01  4.7753861300744E-01
     9  8.0000000000000E-02  7.4766737154759E-01  5.2983611182324E-01
    10  9.0000000000000E-02  8.3310347497320E-01  5.7628332883467E-01
    11  1.0000000000000E-01  9.1580122432093E-01  6.1645625748667E-01
    12  1.1000000000000E-01  9.9550641483005E-01  6.5002595794648E-01
    13  1.2000000000000E-01  1.0719794831267E+00  6.7676217936526E-01
    14  1.3000000000000E-01  1.1449964246383E+00  6.9653513934496E-01
    15  1.4000000000000E-01  1.2143495778239E+00  7.0931543701860E-01
    16  1.5000000000000E-01  1.2798482726567E+00  7.1517211331169E-01
    17  1.6000000000000E-01  1.3413193427541E+00  7.1426890887525E-01
    18  1.7000000000000E-01  1.3986075024799E+00  7.0685880613340E-01
    19  1.8000000000000E-01  1.4515755922011E+00  6.9327697615083E-01
    20  1.9000000000000E-01  1.5001046966364E+00  6.7393228291289E-01
    21  2.0000000000000E-01  1.5440941428569E+00  6.4929752647937E-01
    22  2.1000000000000E-01  1.5834613859601E+00  6.1989863173609E-01
    23  2.2000000000000E-01  1.6181417917038E+00  5.8630301061012E-01
    24  2.3000000000000E-01  1.6480883264523E+00  5.4910734219448E-01
    25  2.4000000000000E-01  1.6732711656140E+00  5.0892502689748E-01
    26  2.5000000000000E-01  1.6936772323421E+00  4.6637357723438E-01
    27  2.6000000000000E-01  1.7093096786082E+00  4.2206220906025E-01
    28  2.7000000000000E-01  1.7201873208456E+00  3.7657989285202E-01
    29  2.8000000000000E-01  1.7263440421926E+00  3.3048411514299E-01
    30  2.9000000000000E-01  1.7278281729552E+00  2.8429058555178E-01
    31  3.0000000000000E-01  1.7247018602622E+00  2.3846410529940E-01
    32  3.1000000000000E-01  1.7170404370242E+00  1.9341078903263E-01
    33  3.2000000000000E-01  1.7049317992458E+00  1.4947180362782E-01
    34  3.3000000000000E-01  1.6884757995090E+00  1.0691875597482E-01
    35  3.4000000000000E-01  1.6677836630682E+00  6.5950827152529E-02
    36  3.5000000000000E-01  1.6429774315058E+00  2.6693713581959E-02
    37  3.6000000000000E-01  1.6141894373305E+00 -1.0799602592695E-02
    38  3.7000000000000E-01  1.5815618112820E+00 -4.6546270725052E-02
    39  3.8000000000000E-01  1.5452460224868E+00 -8.0629232360295E-02
    40  3.9000000000000E-01  1.5054024500159E+00 -1.1319121948067E-01
    41  4.0000000000000E-01  1.4621999828648E+00 -1.4442722097491E-01
    42  4.1000000000000E-01  1.4158156439495E+00 -1.7457558222529E-01
    43  4.2000000000000E-01  1.3664342324159E+00 -2.0390793383247E-01
    44  4.3000000000000E-01  1.3142479774273E+00 -2.3271817287313E-01
    45  4.4000000000000E-01  1.2594561956566E+00 -2.6131074310516E-01
    46  4.5000000000000E-01  1.2022649439812E+00 -2.8998847868864E-01
    47  4.6000000000000E-01  1.1428866583873E+00 -3.1904028885312E-01
    48  4.7000000000000E-01  1.0815397698486E+00 -3.4872896818794E-01
    49  4.8000000000000E-01  1.0184482879564E+00 -3.7927941865014E-01
    50  4.9000000000000E-01  9.5384134335575E-01 -4.1086756487110E-01
    51  5.0000000000000E-01  8.8795268057959E-01 -4.4361023391550E-01
    52  5.1000000000000E-01  8.2102009366032E-01 -4.7755625443975E-01
    53  5.2000000000000E-01  7.5328479793265E-01 -5.1267900846200E-01
    54  5.3000000000000E-01  6.8499073269238E-01 -5.4887064205834E-01
    55  5.4000000000000E-01  6.1638379083143E-01 -5.8593810971314E-01
    56  5.5000000000000E-01  5.4771097319528E-01 -6.2360119134652E-01
    57  5.6000000000000E-01  4.7921946717665E-01 -6.6149258188308E-01
    58  5.7000000000000E-01  4.1115565093285E-01 -6.9916011135066E-01
    59  5.8000000000000E-01  3.4376402655485E-01 -7.3607110971333E-01
    60  5.9000000000000E-01  2.7728608748538E-01 -7.7161888579685E-01
    61  6.0000000000000E-01  2.1195912743714E-01 -8.0513124464967E-01
    62  6.1000000000000E-01  1.4801499996091E-01 -8.3588092339379E-01
    63  6.2000000000000E-01  8.5678839612690E-02 -8.6309778295986E-01
    64  6.3000000000000E-01  2.5167757330253E-02 -8.8598255295115E-01
    65  6.4000000000000E-01 -3.3310475888415E-02 -9.0372189007909E-01
    66  6.5000000000000E-01 -8.9558741642956E-02 -9.1550447795340E-01
    67  6.6000000000000E-01 -1.4339186674128E-01 -9.2053786820451E-01
    68  6.7000000000000E-01 -1.9463787863195E-01 -9.1806574060156E-01
    69  6.8000000000000E-01 -2.4313920607846E-01 -9.0738524353188E-01
    70  6.9000000000000E-01 -2.8875380736229E-01 -8.8786406635612E-01
    71  7.0000000000000E-01 -3.3135620849725E-01 -8.5895689204036E-01
    72  7.1000000000000E-01 -3.7083843446646E-01 -8.2022088226674E-01
    73  7.2000000000000E-01 -4.0711081735576E-01 -7.7132985797685E-01
    74  7.3000000000000E-01 -4.4010266644553E-01 -7.1208685590270E-01
    75  7.4000000000000E-01 -4.6976278682333E-01 -6.4243476586215E-01
    76  7.5000000000000E-01 -4.9605983487175E-01 -5.6246478406255E-01
    77  7.6000000000000E-01 -5.1898250104375E-01 -4.7242245387716E-01
    78  7.7000000000000E-01 -5.3853951262901E-01 -3.7271110691638E-01
    79  7.8000000000000E-01 -5.5475945170234E-01 -2.6389256298398E-01
    80  7.9000000000000E-01 -5.6769038608768E-01 -1.4668499686526E-01
    81  8.0000000000000E-01 -5.7739931392284E-01 -2.1957931936914E-02
    82  8.1000000000000E-01 -5.8397142522249E-01  1.0927562565388E-01
    83  8.2000000000000E-01 -5.8750918665979E-01  2.4586984403183E-01
    84  8.3000000000000E-01 -5.8813125856862E-01  3.8655939153294E-01
    85  8.4000000000000E-01 -5.8597125585704E-01  5.2997525649155E-01
    86  8.5000000000000E-01 -5.8117636706726E-01  6.7466283553386E-01
    87  8.6000000000000E-01 -5.7390584816962E-01  8.1910201818071E-01
    88  8.7000000000000E-01 -5.6432940979074E-01  9.6172895309460E-01
    89  8.8000000000000E-01 -5.5262551840784E-01  1.1009591441036E+00
    90  8.9000000000000E-01 -5.3897963355334E-01  1.2352114929886E+00
    91  9.0000000000000E-01 -5.2358240423477E-01  1.3629328816098E+00
    92  9.1000000000000E-01 -5.0662784855777E-01  1.4826228688325E+00
    93  9.2000000000000E-01 -4.8831154092582E-01  1.5928580683229E+00
    94  9.3000000000000E-01 -4.6882883116595E-01  1.6923157718927E+00
    95  9.4000000000000E-01 -4.4837311949079E-01  1.7797963898230E+00
    96  9.5000000000000E-01 -4.2713421035677E-01  1.8542442944598E+00
    97  9.6000000000000E-01 -4.0529676702597E-01  1.9147666761680E+00
    98  9.7000000000000E-01 -3.8303888700317E-01  1.9606500511382E+00
    99  9.8000000000000E-01 -3.6053081652694E-01  1.9913740980436E+00
   100  9.9000000000000E-01 -3.3793381997355E-01  2.0066225445743E+00
   101  1.0000000000000E+00 -3.1539921742646E-01  2.0062908746280E+00
   102  1.0100000000000E+00 -2.9306760081565E-01  1.9904906815621E+00
   103  1.0200000000000E+00 -2.7106823598940E-01  1.9595505514287E+00
   104  1.0300000000000E+00 -2.4951865489813E-01  1.9140134215041E+00
   105  1.0400000000000E+00 -2.2852443880569E-01  1.8546304224955E+00
   106  1.0500000000000E+00 -2.0817919015376E-01  1.7823512764378E+00
   107  1.0600000000000E+00 -1.8856468744609E-01  1.6983113853748E+00
   108  1.0700000000000E+00 -1.6975121436057E-01  1.6038158070560E+00
   109  1.0800000000000E+00 -1.5179805128172E-01  1.5003203722000E+00
   110  1.0900000000000E+00 -1.3475411464235E-01  1.3894102520360E+00
   111  1.1000000000000E+00 -1.1865872691674E-01  1.2727763338790E+00
   112  1.1100000000000E+00 -1.0354249786220E-01  1.1521898055747E+00
   113  1.1200000000000E+00 -8.9428295715625E-02  1.0294753856645E+00
   114  1.1300000000000E+00 -7.6332285534174E-02  9.0648366470312E-01
   115  1.1400000000000E+00 -6.4265010772251E-02  7.8506304337278E-01
   116  1.1500000000000E+00 -5.3232493514890E-02  6.6703176475079E-01
   117  1.1600000000000E+00 -4.3237328564455E-02  5.5415054086093E-01
   118  1.1700000000000E+00 -3.4279744923433E-02  4.4809628521854E-01
   119  1.1800000000000E+00 -2.6358626881191E-02  3.5043725664696E-01
   120  1.1900000000000E+00 -1.9472771440718E-02  2.6260749096764E-01
   121  1.2000000000000E+00 -1.3628917622442E-02  1.8581444302752E-01
   122  1.2100000000000E+00 -8.8260352855050E-03  1.2117372211850E-01
   123  1.2200000000000E+00 -5.0594896266876E-03  6.9670447806309E-02
   124  1.2300000000000E+00 -2.3298196955614E-03  3.2051271636524E-02
   125  1.2400000000000E+00 -6.3713840804813E-04  8.7230297817261E-03
   126  1.2500000000000E+00 -1.3976424329168E-05  1.8955615191618E-04
   127  1.2600000000000E+00 -3.0589059814731E-06  4.1625068215645E-05
   128  1.2700000000000E+00  7.7227665330666E-07 -1.0543958826289E-05
   129  1.28 -0.  0.
   130  1.29  0.  0.
   131  1.30  0.  0.
   132  1.31  0.  0.
   133  1.32  0.  0.
   134  1.33  0.  0.
   135  1.34  0.  0.
   136  1.35  0.  0.
   137  1.36  0.  0.
   138  1.37  0.  0.
   139  1.38  0.  0.
   140  1.39  0.  0.
   141  1.40  0.  0.
   142  1.41  0.  0.
   143  1.42  0.  0.
   144  1.43  0.  0.
   145  1.44  0.  0.
   146  1.45  0.  0.
   147  1.46  0.  0.
   148  1.47  0.  0.
   149  1.48  0.  0.
   150  1.49  0.  0.
   151  1.50  0.  0.
   152  1.51  0.  0.
   153  1.52  0.  0.
   154  1.53  0.  0.
   155  1.54  0.  0.
   156  1.55  0.  0.
   157  1.56  0.  0.
   158  1.57  0.  0.
   159  1.58  0.  0.
   160  1.59  0.  0.
   161  1.60  0.  0.
   162  1.61  0.  0.
   163  1.62  0.  0.
   164  1.63  0.  0.
   165  1.64  0.  0.
   166  1.65  0.  0.
   167  1.66  0.  0.
   168  1.67  0.  0.
   169  1.68  0.  0.
   170  1.69  0.  0.
   171  1.70  0.  0.
   172  1.71  0.  0.
   173  1.72  0.  0.
   174  1.73  0.  0.
   175  1.74  0.  0.
   176  1.75  0.  0.
   177  1.76  0.  0.
   178  1.77  0.  0.
   179  1.78  0.  0.
   180  1.79  0.  0.
   181  1.80  0.  0.
   182  1.81  0.  0.
   183  1.82  0.  0.
   184  1.83  0.  0.
   185  1.84  0.  0.
   186  1.85  0.  0.
   187  1.86  0.  0.
   188  1.87  0.  0.
   189  1.88  0.  0.
   190  1.89  0.  0.
   191  1.90  0.  0.
   192  1.91  0.  0.
   193  1.92  0.  0.
   194  1.93  0.  0.
   195  1.94  0.  0.
   196  1.95  0.  0.
   197  1.96  0.  0.
   198  1.97  0.  0.
   199  1.98  0.  0.
   200  1.99  0.  0.
   201  2.00  0.  0.
   202  2.01  0.  0.
   203  2.02  0.  0.
   204  2.03  0.  0.
   205  2.04  0.  0.
   206  2.05  0.  0.
   207  2.06  0.  0.
   208  2.07  0.  0.
   209  2.08  0.  0.
   210  2.09  0.  0.
   211  2.10  0.  0.
   212  2.11  0.  0.
   213  2.12  0.  0.
   214  2.13  0.  0.
   215  2.14  0.  0.
   216  2.15  0.  0.
   217  2.16  0.  0.
   218  2.17  0.  0.
   219  2.18  0.  0.
   220  2.19  0.  0.
   221  2.20  0.  0.
   222  2.21  0.  0.
   223  2.22  0.  0.
   224  2.23  0.  0.
   225  2.24  0.  0.
   226  2.25  0.  0.
   227  2.26  0.  0.
   228  2.27  0.  0.
   229  2.28  0.  0.
   230  2.29  0.  0.
   231  2.30  0.  0.
   232  2.31  0.  0.
   233  2.32  0.  0.
   234  2.33  0.  0.
   235  2.34  0.  0.
   236  2.35  0.  0.
   237  2.36  0.  0.
   238  2.37  0.  0.
   239  2.38  0.  0.
   240  2.39  0.  0.
   241  2.40  0.  0.
   242  2.41  0.  0.
   243  2.42  0.  0.
   244  2.43  0.  0.
   245  2.44  0.  0.
   246  2.45  0.  0.
   247  2.46  0.  0.
   248  2.47  0.  0.
   249  2.48  0.  0.
   250  2.49  0.  0.
   251  2.50  0.  0.
   252  2.51  0.  0.
   253  2.52  0.  0.
   254  2.53  0.  0.
   255  2.54  0.  0.
   256  2.55  0.  0.
   257  2.56  0.  0.
   258  2.57  0.  0.
   259  2.58  0.  0.
   260  2.59  0.  0.
   261  2.60  0.  0.
   262  2.61  0.  0.
   263  2.62  0.  0.
   264  2.63  0.  0.
   265  2.64  0.  0.
   266  2.65  0.  0.
   267  2.66  0.  0.
   268  2.67  0.  0.
   269  2.68  0.  0.
   270  2.69  0.  0.
   271  2.70  0.  0.
   272  2.71  0.  0.
   273  2.72  0.  0.
   274  2.73  0.  0.
   275  2.74  0.  0.
   276  2.75  0.  0.
   277  2.76  0.  0.
   278  2.77  0.  0.
   279  2.78  0.  0.
   280  2.79  0.  0.
   281  2.80  0.  0.
   282  2.81  0.  0.
   283  2.82  0.  0.
   284  2.83  0.  0.
   285  2.84  0.  0.
   286  2.85  0.  0.
   287  2.86  0.  0.
   288  2.87  0.  0.
   289  2.88  0.  0.
   290  2.89  0.  0.
   291  2.90  0.  0.
   292  2.91  0.  0.
   293  2.92  0.  0.
   294  2.93  0.  0.
   295  2.94  0.  0.
   296  2.95  0.  0.
   297  2.96  0.  0.
   298  2.97  0.  0.
   299  2.98  0.  0.
   300  2.99  0.  0.
   301  3.00  0.  0.
   302  3.01  0.  0.
   303  3.02  0.  0.
   304  3.03  0.  0.
   305  3.04  0.  0.
   306  3.05  0.  0.
   307  3.06  0.  0.
   308  3.07  0.  0.
   309  3.08  0.  0.
   310  3.09  0.  0.
   311  3.10  0.  0.
   312  3.11  0.  0.
   313  3.12  0.  0.
   314  3.13  0.  0.
   315  3.14  0.  0.
   316  3.15  0.  0.
   317  3.16  0.  0.
   318  3.17  0.  0.
   319  3.18  0.  0.
   320  3.19  0.  0.
   321  3.20  0.  0.
   322  3.21  0.  0.
   323  3.22  0.  0.
   324  3.23  0.  0.
   325  3.24  0.  0.
   326  3.25  0.  0.
   327  3.26  0.  0.
   328  3.27  0.  0.
   329  3.28  0.  0.
   330  3.29  0.  0.
   331  3.30  0.  0.
   332  3.31  0.  0.
   333  3.32  0.  0.
   334  3.33  0.  0.
   335  3.34  0.  0.
   336  3.35  0.  0.
   337  3.36  0.  0.
   338  3.37  0.  0.
   339  3.38  0.  0.
   340  3.39  0.  0.
   341  3.40  0.  0.
   342  3.41  0.  0.
   343  3.42  0.  0.
   344  3.43  0.  0.
   345  3.44  0.  0.
   346  3.45  0.  0.
   347  3.46  0.  0.
   348  3.47  0.  0.
   349  3.48  0.  0.
   350  3.49  0.  0.
   351  3.50  0.  0.
   352  3.51  0.  0.
   353  3.52  0.  0.
   354  3.53  0.  0.
   355  3.54  0.  0.
   356  3.55  0.  0.
   357  3.56  0.  0.
   358  3.57  0.  0.
   359  3.58  0.  0.
   360  3.59  0.  0.
   361  3.60  0.  0.
   362  3.61  0.  0.
   363  3.62  0.  0.
   364  3.63  0.  0.
   365  3.64  0.  0.
   366  3.65  0.  0.
   367  3.66  0.  0.
   368  3.67  0.  0.
   369  3.68  0.  0.
   370  3.69  0.  0.
   371  3.70  0.  0.
   372  3.71  0.  0.
   373  3.72  0.  0.
   374  3.73  0.  0.
   375  3.74  0.  0.
   376  3.75  0.  0.
   377  3.76  0.  0.
   378  3.77  0.  0.
   379  3.78  0.  0.
   380  3.79  0.  0.
   381  3.80  0.  0.
   382  3.81  0.  0.
   383  3.82  0.  0.
   384  3.83  0.  0.
   385  3.84  0.  0.
   386  3.85  0.  0.
   387  3.86  0.  0.
   388  3.87  0.  0.
   389  3.88  0.  0.
   390  3.89  0.  0.
   391  3.90  0.  0.
   392  3.91  0.  0.
   393  3.92  0.  0.
   394  3.93  0.  0.
   395  3.94  0.  0.
   396  3.95  0.  0.
   397  3.96  0.  0.
   398  3.97  0.  0.
   399  3.98  0.  0.
   400  3.99  0.  0.
   401  4.00  0.  0.
   402  4.01  0.  0.
   403  4.02  0.  0.
   404  4.03  0.  0.
   405  4.04  0.  0.
   406  4.05  0.  0.
   407  4.06  0.  0.
   408  4.07  0.  0.
   409  4.08  0.  0.
   410  4.09  0.  0.
   411  4.10  0.  0.
   412  4.11  0.  0.
   413  4.12  0.  0.
   414  4.13  0.  0.
   415  4.14  0.  0.
   416  4.15  0.  0.
   417  4.16  0.  0.
   418  4.17  0.  0.
   419  4.18  0.  0.
   420  4.19  0.  0.
   421  4.20  0.  0.
   422  4.21  0.  0.
   423  4.22  0.  0.
   424  4.23  0.  0.
   425  4.24  0.  0.
   426  4.25  0.  0.
   427  4.26  0.  0.
   428  4.27  0.  0.
   429  4.28  0.  0.
   430  4.29  0.  0.
   431  4.30  0.  0.
   432  4.31  0.  0.
   433  4.32  0.  0.
   434  4.33  0.  0.
   435  4.34  0.  0.
   436  4.35  0.  0.
   437  4.36  0.  0.
   438  4.37  0.  0.
   439  4.38  0.  0.
   440  4.39  0.  0.
   441  4.40  0.  0.
   442  4.41  0.  0.
   443  4.42  0.  0.
   444  4.43  0.  0.
   445  4.44  0.  0.
   446  4.45  0.  0.
   447  4.46  0.  0.
   448  4.47  0.  0.
   449  4.48  0.  0.
   450  4.49  0.  0.
   451  4.50  0.  0.
   452  4.51  0.  0.
   453  4.52  0.  0.
   454  4.53  0.  0.
   455  4.54  0.  0.
   456  4.55  0.  0.
   457  4.56  0.  0.
   458  4.57  0.  0.
   459  4.58  0.  0.
   460  4.59  0.  0.
   461  4.60  0.  0.
   462  4.61  0.  0.
   463  4.62  0.  0.
   464  4.63  0.  0.
   465  4.64  0.  0.
   466  4.65  0.  0.
   467  4.66  0.  0.
   468  4.67  0.  0.
   469  4.68  0.  0.
   470  4.69  0.  0.
   471  4.70  0.  0.
   472  4.71  0.  0.
   473  4.72  0.  0.
   474  4.73  0.  0.
   475  4.74  0.  0.
   476  4.75  0.  0.
   477  4.76  0.  0.
   478  4.77  0.  0.
   479  4.78  0.  0.
   480  4.79  0.  0.
   481  4.80  0.  0.
   482  4.81  0.  0.
   483  4.82  0.  0.
   484  4.83  0.  0.
   485  4.84  0.  0.
   486  4.85  0.  0.
   487  4.86  0.  0.
   488  4.87  0.  0.
   489  4.88  0.  0.
   490  4.89  0.  0.
   491  4.90  0.  0.
   492  4.91  0.  0.
   493  4.92  0.  0.
   494  4.93  0.  0.
   495  4.94  0.  0.
   496  4.95  0.  0.
   497  4.96  0.  0.
   498  4.97  0.  0.
   499  4.98  0.  0.
   500  4.99  0.  0.
   501  5.00  0.  0.
   502  5.01  0.  0.
   503  5.02  0.  0.
   504  5.03  0.  0.
   505  5.04  0.  0.
   506  5.05  0.  0.
   507  5.06  0.  0.
   508  5.07  0.  0.
   509  5.08  0.  0.
   510  5.09  0.  0.
   511  5.10  0.  0.
   512  5.11  0.  0.
   513  5.12  0.  0.
   514  5.13  0.  0.
   515  5.14  0.  0.
   516  5.15  0.  0.
   517  5.16  0.  0.
   518  5.17  0.  0.
   519  5.18  0.  0.
   520  5.19  0.  0.
   521  5.20  0.  0.
   522  5.21  0.  0.
   523  5.22  0.  0.
   524  5.23  0.  0.
   525  5.24  0.  0.
   526  5.25  0.  0.
   527  5.26  0.  0.
   528  5.27  0.  0.
   529  5.28  0.  0.
   530  5.29  0.  0.
   531  5.30  0.  0.
   532  5.31  0.  0.
   533  5.32  0.  0.
   534  5.33  0.  0.
   535  5.34  0.  0.
   536  5.35  0.  0.
   537  5.36  0.  0.
   538  5.37  0.  0.
   539  5.38  0.  0.
   540  5.39  0.  0.
   541  5.40  0.  0.
   542  5.41  0.  0.
   543  5.42  0.  0.
   544  5.43  0.  0.
   545  5.44  0.  0.
   546  5.45  0.  0.
   547  5.46  0.  0.
   548  5.47  0.  0.
   549  5.48  0.  0.
   550  5.49  0.  0.
   551  5.50  0.  0.
   552  5.51  0.  0.
   553  5.52  0.  0.
   554  5.53  0.  0.
   555  5.54  0.  0.
   556  5.55  0.  0.
   557  5.56  0.  0.
   558  5.57  0.  0.
   559  5.58  0.  0.
   560  5.59  0.  0.
   561  5.60  0.  0.
   562  5.61  0.  0.
   563  5.62  0.  0.
   564  5.63  0.  0.
   565  5.64  0.  0.
   566  5.65  0.  0.
   567  5.66  0.  0.
   568  5.67  0.  0.
   569  5.68  0.  0.
   570  5.69  0.  0.
   571  5.70  0.  0.
   572  5.71  0.  0.
   573  5.72  0.  0.
   574  5.73  0.  0.
   575  5.74  0.  0.
   576  5.75  0.  0.
   577  5.76  0.  0.
   578  5.77  0.  0.
   579  5.78  0.  0.
   580  5.79  0.  0.
   581  5.80  0.  0.
   582  5.81  0.  0.
   583  5.82  0.  0.
   584  5.83  0.  0.
   585  5.84  0.  0.
   586  5.85  0.  0.
   587  5.86  0.  0.
   588  5.87  0.  0.
   589  5.88  0.  0.
   590  5.89  0.  0.
   591  5.90  0.  0.
   592  5.91  0.  0.
   593  5.92  0.  0.
   594  5.93  0.  0.
   595  5.94  0.  0.
   596  5.95  0.  0.
   597  5.96  0.  0.
   598  5.97  0.  0.
   599  5.98  0.  0.
   600  5.99  0.  0.
   1                        -2.1979999269929E+00 -1.1115934964111E-01
     1  0.0000000000000E+00 -3.1392013988274E-11  4.7055589841305E-09
     2  1.0000000000000E-02  1.4100107140439E-03  1.0620946444216E-03
     3  2.0000000000000E-02  5.6355654596182E-03  4.2268225853162E-03
     4  3.0000000000000E-02  1.2663241197005E-02  9.4297903977606E-03
     5  4.0000000000000E-02  2.2470696706176E-02  1.6564588522293E-02
     6  5.0000000000000E-02  3.5026718401064E-02  2.5484152261945E-02
     7  6.0000000000000E-02  5.0291284561263E-02  3.6002650713153E-02
     8  7.0000000000000E-02  6.8215648075795E-02  4.7897887173121E-02
     9  8.0000000000000E-02  8.8742437824946E-02  6.0914189860639E-02
    10  9.0000000000000E-02  1.1180577886002E-01  7.4765767111374E-02
    11  1.0000000000000E-01  1.3733143157777E-01  8.9140496549181E-02
    12  1.1000000000000E-01  1.6523695012548E-01  1.0370411313491E-01
    13  1.2000000000000E-01  1.9543186031494E-01  1.1810475646869E-01
    14  1.3000000000000E-01  2.2781785736635E-01  1.3197783330946E-01
    15  1.4000000000000E-01  2.6228902384780E-01  1.4495114701432E-01
    16  1.5000000000000E-01  2.9873206821891E-01  1.5665024155106E-01
    17  1.6000000000000E-01  3.3702658442831E-01  1.6670390394005E-01
    18  1.7000000000000E-01  3.7704533305126E-01  1.7474976550814E-01
    19  1.8000000000000E-01  4.1865454448435E-01  1.8043993925627E-01
    20  1.9000000000000E-01  4.6171424473528E-01  1.8344662801354E-01
    21  2.0000000000000E-01  5.0607860435690E-01  1.8346763595875E-01
    22  2.1000000000000E-01  5.5159631107046E-01  1.8023171460131E-01
    23  2.2000000000000E-01  5.9811096660401E-01  1.7350367350130E-01
    24  2.3000000000000E-01  6.4546150823229E-01  1.6308918594503E-01
    25  2.4000000000000E-01  6.9348265544504E-01  1.4883922053345E-01
    26  2.5000000000000E-01  7.4200538208583E-01  1.3065403125513E-01
    27  2.6000000000000E-01  7.9085741419465E-01  1.0848664113725E-01
    28  2.7000000000000E-01  8.3986375365004E-01  8.2345758038879E-02
    29  2.8000000000000E-01  8.8884722754127E-01  5.2298065596091E-02
    30  2.9000000000000E-01  9.3762906300645E-01  1.8469837746688E-02
    31  3.0000000000000E-01  9.8602948704834E-01 -1.8952168348033E-02
    32  3.1000000000000E-01  1.0338683505866E+00 -5.9720578835667E-02
    33  3.2000000000000E-01  1.0809657757246E+00 -1.0352805878509E-01
    34  3.3000000000000E-01  1.1271428249016E+00 -1.5000877744402E-01
    35  3.4000000000000E-01  1.1722221902723E+00 -1.9874069390315E-01
    36  3.5000000000000E-01  1.2160289013015E+00 -2.4924866347201E-01
    37  3.6000000000000E-01  1.2583910482000E+00 -3.0100835409893E-01
    38  3.7000000000000E-01  1.2991405184421E+00 -3.5345095080101E-01
    39  3.8000000000000E-01  1.3381137432245E+00 -4.0596861447375E-01
    40  3.9000000000000E-01  1.3751524503365E+00 -4.5792064978803E-01
    41  4.0000000000000E-01  1.4101044195299E+00 -5.0864032532924E-01
    42  4.1000000000000E-01  1.4428242361059E+00 -5.5744227788218E-01
    43  4.2000000000000E-01  1.4731740380878E+00 -6.0363042200466E-01
    44  4.3000000000000E-01  1.5010242520165E+00 -6.4650627595820E-01
    45  4.4000000000000E-01  1.5262543121191E+00 -6.8537760586600E-01
    46  4.5000000000000E-01  1.5487533573411E+00 -7.1956728184249E-01
    47  4.6000000000000E-01  1.5684209005332E+00 -7.4842223295323E-01
    48  4.7000000000000E-01  1.5851674639225E+00 -7.7132238239832E-01
    49  4.8000000000000E-01  1.5989151749130E+00 -7.8768944040157E-01
    50  4.9000000000000E-01  1.6095983162242E+00 -7.9699543008440E-01
    51  5.0000000000000E-01  1.6171638244232E+00 -7.9877082118816E-01
    52  5.1000000000000E-01  1.6215717310173E+00 -7.9261214798717E-01
    53  5.2000000000000E-01  1.6227955404687E+00 -7.7818899114772E-01
    54  5.3000000000000E-01  1.6208225397597E+00 -7.5525020865362E-01
    55  5.4000000000000E-01  1.6156540344898E+00 -7.2362930824087E-01
    56  5.5000000000000E-01  1.6073055069134E+00 -6.8324886299828E-01
    57  5.6000000000000E-01  1.5958066918310E+00 -6.3412388283382E-01
    58  5.7000000000000E-01  1.5812015668288E+00 -5.7636406725395E-01
    59  5.8000000000000E-01  1.5635482540111E+00 -5.1017487921729E-01
    60  5.9000000000000E-01  1.5429188310835E+00 -4.3585739550736E-01
    61  6.0000000000000E-01  1.5193990504157E+00 -3.5380690593898E-01
    62  6.1000000000000E-01  1.4930879655383E+00 -2.6451025150049E-01
    63  6.2000000000000E-01  1.4640974653844E+00 -1.6854191000534E-01
    64  6.3000000000000E-01  1.4325517174858E+00 -6.6558856676341E-02
    65  6.4000000000000E-01  1.3985865222420E+00  4.0705753964512E-02
    66  6.5000000000000E-01  1.3623485813056E+00  1.5245001980349E-01
    67  6.6000000000000E-01  1.3239946840428E+00  2.6781175315131E-01
    68  6.7000000000000E-01  1.2836908169331E+00  3.8587787243142E-01
    69  6.8000000000000E-01  1.2416112016450E+00  5.0569460672943E-01
    70  6.9000000000000E-01  1.1979372683601E+00  6.2627838166155E-01
    71  7.0000000000000E-01  1.1528565716981E+00  7.4662724204992E-01
    72  7.1000000000000E-01  1.1065616573125E+00  8.6573265591034E-01
    73  7.2000000000000E-01  1.0592488878710E+00  9.8259153552596E-01
    74  7.3000000000000E-01  1.0111172376870E+00  1.0962183050829E+00
    75  7.4000000000000E-01  9.6236706573419E-01  1.2056568406441E+00
    76  7.5000000000000E-01  9.1319887713248E-01  1.3099921072799E+00
    77  7.6000000000000E-01  8.6381208344501E-01  1.4083613200025E+00
    78  7.7000000000000E-01  8.1440377226046E-01  1.4999644598428E+00
    79  7.8000000000000E-01  7.6516749655270E-01  1.5840739839015E+00
    80  7.9000000000000E-01  7.1629209420682E-01  1.6600435784829E+00
    81  8.0000000000000E-01  6.6796054787812E-01  1.7273158173254E+00
    82  8.1000000000000E-01  6.2034889500875E-01  1.7854286023491E+00
    83  8.2000000000000E-01  5.7362519737015E-01  1.8340202820194E+00
    84  8.3000000000000E-01  5.2794857893151E-01  1.8728333621349E+00
    85  8.4000000000000E-01  4.8346834018346E-01  1.9017167452969E+00
    86  8.5000000000000E-01  4.4032315627867E-01  1.9206264581760E+00
    87  8.6000000000000E-01  3.9864036549748E-01  1.9296248496073E+00
    88  8.7000000000000E-01  3.5853535361775E-01  1.9288782671360E+00
    89  8.8000000000000E-01  3.2011103877520E-01  1.9186532444996E+00
    90  8.9000000000000E-01  2.8345746035728E-01  1.8993112572665E+00
    91  9.0000000000000E-01  2.4865147439286E-01  1.8713021280299E+00
    92  9.1000000000000E-01  2.1575655679640E-01  1.8351561857846E+00
    93  9.2000000000000E-01  1.8482271471257E-01  1.7914753059716E+00
    94  9.3000000000000E-01  1.5588650510059E-01  1.7409229778041E+00
    95  9.4000000000000E-01  1.2897115861018E-01  1.6842135635087E+00
    96  9.5000000000000E-01  1.0408680574764E-01  1.6221009297207E+00
    97  9.6000000000000E-01  8.1230801323501E-02  1.5553666441639E+00
    98  9.7000000000000E-01  6.0388142225445E-02  1.4848079406911E+00
    99  9.8000000000000E-01  4.1531972682615E-02  1.4112256625564E+00
   100  9.9000000000000E-01  2.4624170389771E-02  1.3354123973125E+00
   101  1.0000000000000E+00  9.6160061515010E-03  1.2581410168674E+00
   102  1.0100000000000E+00 -3.5511309057367E-03  1.1801538329927E+00
   103  1.0200000000000E+00 -1.4944951016726E-02  1.1021525719751E+00
   104  1.0300000000000E+00 -2.4641433224015E-02  1.0247893622215E+00
   105  1.0400000000000E+00 -3.2723955753427E-02  9.4865891565193E-01
   106  1.0500000000000E+00 -3.9282396673367E-02  8.7429206782265E-01
   107  1.0600000000000E+00 -4.4412214275061E-02  8.0215082316722E-01
   108  1.0700000000000E+00 -4.8213516588594E-02  7.3262503088838E-01
   109  1.0800000000000E+00 -5.0790129328024E-02  6.6603079414933E-01
   110  1.0900000000000E+00 -5.2248671342626E-02  6.0261069075166E-01
   111  1.1000000000000E+00 -5.2697646349219E-02  5.4253585786983E-01
   112  1.1100000000000E+00 -5.2246559338194E-02  4.8590996698000E-01
   113  1.1200000000000E+00 -5.1005065596468E-02  4.3277508853631E-01
   114  1.1300000000000E+00 -4.9082159778762E-02  3.8311941937423E-01
   115  1.1400000000000E+00 -4.6585411901824E-02  3.3688682008879E-01
   116  1.1500000000000E+00 -4.3620256536828E-02  2.9398808477819E-01
   117  1.1600000000000E+00 -4.0289340854673E-02  2.5431384243771E-01
   118  1.1700000000000E+00 -3.6691936536220E-02  2.1774896788244E-01
   119  1.1800000000000E+00 -3.2923419918623E-02  1.8418836118752E-01
   120  1.1900000000000E+00 -2.9074824205428E-02  1.5355394275043E-01
   121  1.2000000000000E+00 -2.5232465791093E-02  1.2581264417825E-01
   122  1.2100000000000E+00 -2.1477653144756E-02  1.0099549194533E-01
   123  1.2200000000000E+00 -1.7885952163497E-02  7.9193425130086E-02
   124  1.2300000000000E+00 -1.4524542460836E-02  6.0466789097608E-02
   125  1.2400000000000E+00 -1.1450295301845E-02  4.4795266283753E-02
   126  1.2500000000000E+00 -8.7092451304537E-03  3.2085525851736E-02
   127  1.2600000000000E+00 -6.3301989392418E-03  2.2046197825328E-02
   128  1.2700000000000E+00 -4.3179278782609E-03  1.4044020251235E-02
   129  1.2800000000000E+00 -2.6937061036324E-03  8.0283597386268E-03
   130  1.2900000000000E+00 -1.4655592205948E-03  3.8889974019265E-03
   131  1.3000000000000E+00 -6.2573496223187E-04  1.4007609596194E-03
   132  1.3100000000000E+00 -1.4886934934244E-04  2.2719124002151E-04
   133  1.3200000000000E+00  7.6339740940366E-07 -8.1956655989155E-05
   134  1.3300000000000E+00 -1.1195369362659E-06  8.8906870689097E-06
   135  1.3400000000000E+00  2.6500178174397E-07 -2.3308016964948E-06
   136  1.35 -0.  0.
   137  1.36  0.  0.
   138  1.37  0.  0.
   139  1.38  0.  0.
   140  1.39  0.  0.
   141  1.40  0.  0.
   142  1.41  0.  0.
   143  1.42  0.  0.
   144  1.43  0.  0.
   145  1.44  0.  0.
   146  1.45  0.  0.
   147  1.46  0.  0.
   148  1.47  0.  0.
   149  1.48  0.  0.
   150  1.49  0.  0.
   151  1.50  0.  0.
   152  1.51  0.  0.
   153  1.52  0.  0.
   154  1.53  0.  0.
   155  1.54  0.  0.
   156  1.55  0.  0.
   157  1.56  0.  0.
   158  1.57  0.  0.
   159  1.58  0.  0.
   160  1.59  0.  0.
   161  1.60  0.  0.
   162  1.61  0.  0.
   163  1.62  0.  0.
   164  1.63  0.  0.
   165  1.64  0.  0.
   166  1.65  0.  0.
   167  1.66  0.  0.
   168  1.67  0.  0.
   169  1.68  0.  0.
   170  1.69  0.  0.
   171  1.70  0.  0.
   172  1.71  0.  0.
   173  1.72  0.  0.
   174  1.73  0.  0.
   175  1.74  0.  0.
   176  1.75  0.  0.
   177  1.76  0.  0.
   178  1.77  0.  0.
   179  1.78  0.  0.
   180  1.79  0.  0.
   181  1.80  0.  0.
   182  1.81  0.  0.
   183  1.82  0.  0.
   184  1.83  0.  0.
   185  1.84  0.  0.
   186  1.85  0.  0.
   187  1.86  0.  0.
   188  1.87  0.  0.
   189  1.88  0.  0.
   190  1.89  0.  0.
   191  1.90  0.  0.
   192  1.91  0.  0.