Zr    ONCVPSP-4.0.1  r_core=   1.55435   1.55435   1.50855
     40.0000     12.0000      231019    zatom,zion,pspd
     8       2   2     4   600     0    pspcod,pspxc,lmax,lloc,mmax,r2well
  5.99000000  5.00000000  0.00000000    rchrg fchrg qchrg
     2     2     2     0     0    nproj
     1     1           extension_switch
   0                         1.0558677045924E+01  8.7467060311269E-01
     1  0.0000000000000E+00  4.8308940181485E-10 -1.8185808692284E-09
     2  1.0000000000000E-02  5.2453022251888E-02 -2.0712003374656E-02
     3  2.0000000000000E-02  1.0485904348458E-01 -4.1412339150428E-02
     4  3.0000000000000E-02  1.5717075368430E-01 -6.2088239903690E-02
     5  4.0000000000000E-02  2.0934023181819E-01 -8.2724762960106E-02
     6  5.0000000000000E-02  2.6131865762360E-01 -1.0330376328942E-01
     7  6.0000000000000E-02  3.1305604380441E-01 -1.2380293769841E-01
     8  7.0000000000000E-02  3.6450099485738E-01 -1.4419496190456E-01
     9  8.0000000000000E-02  4.1560049826874E-01 -1.6444674025478E-01
    10  9.0000000000000E-02  4.6629975323352E-01 -1.8451878564474E-01
    11  1.0000000000000E-01  5.1654204136922E-01 -2.0436474463863E-01
    12  1.1000000000000E-01  5.6626864313274E-01 -2.2393107993263E-01
    13  1.2000000000000E-01  6.1541880281891E-01 -2.4315691920327E-01
    14  1.3000000000000E-01  6.6392974413605E-01 -2.6197407609290E-01
    15  1.4000000000000E-01  7.1173673743333E-01 -2.8030724566983E-01
    16  1.5000000000000E-01  7.5877321871459E-01 -2.9807437322719E-01
    17  1.6000000000000E-01  8.0497095962920E-01 -3.1518719181670E-01
    18  1.7000000000000E-01  8.5026028670042E-01 -3.3155192051905E-01
    19  1.8000000000000E-01  8.9457034715209E-01 -3.4707011219595E-01
    20  1.9000000000000E-01  9.3782941784208E-01 -3.6163963641407E-01
    21  2.0000000000000E-01  9.7996525302027E-01 -3.7515578043652E-01
    22  2.1000000000000E-01  1.0209054659157E+00 -3.8751244869932E-01
    23  2.2000000000000E-01  1.0605779385339E+00 -3.9860343907717E-01
    24  2.3000000000000E-01  1.0989112535232E+00 -4.0832377253728E-01
    25  2.4000000000000E-01  1.1358351415577E+00 -4.1657105151867E-01
    26  2.5000000000000E-01  1.1712809373915E+00 -4.2324682158283E-01
    27  2.6000000000000E-01  1.2051820375716E+00 -4.2825791057953E-01
    28  2.7000000000000E-01  1.2374743527546E+00 -4.3151771976844E-01
    29  2.8000000000000E-01  1.2680967476606E+00 -4.3294744203274E-01
    30  2.9000000000000E-01  1.2969914619130E+00 -4.3247718350621E-01
    31  3.0000000000000E-01  1.3241045053486E+00 -4.3004696659201E-01
    32  3.1000000000000E-01  1.3493860218414E+00 -4.2560759445139E-01
    33  3.2000000000000E-01  1.3727906162441E+00 -4.1912135954928E-01
    34  3.3000000000000E-01  1.3942776397196E+00 -4.1056258171437E-01
    35  3.4000000000000E-01  1.4138114294817E+00 -3.9991796435604E-01
    36  3.5000000000000E-01  1.4313614997914E+00 -3.8718676091764E-01
    37  3.6000000000000E-01  1.4469026819365E+00 -3.7238074727599E-01
    38  3.7000000000000E-01  1.4604152118477E+00 -3.5552399954952E-01
    39  3.8000000000000E-01  1.4718847649531E+00 -3.3665248058449E-01
    40  3.9000000000000E-01  1.4813024388292E+00 -3.1581344217637E-01
    41  4.0000000000000E-01  1.4886646851559E+00 -2.9306465377901E-01
    42  4.1000000000000E-01  1.4939731933938E+00 -2.6847347198721E-01
    43  4.2000000000000E-01  1.4972347294810E+00 -2.4211576837611E-01
    44  4.3000000000000E-01  1.4984609336474E+00 -2.1407473628118E-01
    45  4.4000000000000E-01  1.4976680821801E+00 -1.8443959973887E-01
    46  4.5000000000000E-01  1.4948768186077E+00 -1.5330425003062E-01
    47  4.6000000000000E-01  1.4901118603017E+00 -1.2076583702754E-01
    48  4.7000000000000E-01  1.4834016869101E+00 -8.6923343783338E-02
    49  4.8000000000000E-01  1.4747782173272E+00 -5.1876173535680E-02
    50  4.9000000000000E-01  1.4642764820595E+00 -1.5722778429009E-02
    51  5.0000000000000E-01  1.4519342978704E+00  2.1440641146573E-02
    52  5.1000000000000E-01  1.4377919514710E+00  5.9521338696836E-02
    53  5.2000000000000E-01  1.4218918987693E+00  9.8431098896469E-02
    54  5.3000000000000E-01  1.4042784858048E+00  1.3808716574368E-01
    55  5.4000000000000E-01  1.3849976969826E+00  1.7841299995805E-01
    56  5.5000000000000E-01  1.3640969355866E+00  2.1933884706840E-01
    57  5.6000000000000E-01  1.3416248408133E+00  2.6080210114592E-01
    58  5.7000000000000E-01  1.3176311447293E+00  3.0274745301158E-01
    59  5.8000000000000E-01  1.2921665716429E+00  3.4512681591772E-01
    60  5.9000000000000E-01  1.2652827813968E+00  3.8789902610286E-01
    61  6.0000000000000E-01  1.2370323570667E+00  4.3102932016303E-01
    62  6.1000000000000E-01  1.2074688364991E+00  4.7448859579322E-01
    63  6.2000000000000E-01  1.1766467860595E+00  5.1825246704313E-01
    64  6.3000000000000E-01  1.1446219139233E+00  5.6230012971454E-01
    65  6.4000000000000E-01  1.1114512192268E+00  6.0661305681856E-01
    66  6.5000000000000E-01  1.0771931724412E+00  6.5117354802647E-01
    67  6.6000000000000E-01  1.0419079214505E+00  6.9596316070478E-01
    68  6.7000000000000E-01  1.0056575170231E+00  7.4096105335030E-01
    69  6.8000000000000E-01  9.6850615068274E-01  7.8614227496499E-01
    70  6.9000000000000E-01  9.3052039743175E-01  8.3147603606953E-01
    71  7.0000000000000E-01  8.9176945535299E-01  8.7692399860021E-01
    72  7.1000000000000E-01  8.5232537384937E-01  9.2243862282037E-01
    73  7.2000000000000E-01  8.1226326216103E-01  9.6796160957668E-01
    74  7.3000000000000E-01  7.7166146984783E-01  1.0134224757200E+00
    75  7.4000000000000E-01  7.3060173113531E-01  1.0587372992870E+00
    76  7.5000000000000E-01  6.8916926539878E-01  1.1038076691037E+00
    77  7.6000000000000E-01  6.4745282659690E-01  1.1485198708482E+00
    78  7.7000000000000E-01  6.0554469515957E-01  1.1927443383251E+00
    79  7.8000000000000E-01  5.6354060667326E-01  1.2363353948044E+00
    80  7.9000000000000E-01  5.2153961268055E-01  1.2791313048179E+00
    81  8.0000000000000E-01  4.7964387000321E-01  1.3209546518509E+00
    82  8.1000000000000E-01  4.3795835619366E-01  1.3616130519970E+00
    83  8.2000000000000E-01  3.9659050999830E-01  1.4009002079424E+00
    84  8.3000000000000E-01  3.5564979705755E-01  1.4385973017015E+00
    85  8.4000000000000E-01  3.1524720244802E-01  1.4744747184501E+00
    86  8.5000000000000E-01  2.7549465306877E-01  1.5082940876831E+00
    87  8.6000000000000E-01  2.3650437426241E-01  1.5398106218796E+00
    88  8.7000000000000E-01  1.9838818641590E-01  1.5687757269908E+00
    89  8.8000000000000E-01  1.6125674858310E-01  1.5949398534804E+00
    90  8.9000000000000E-01  1.2521875738569E-01  1.6180555514515E+00
    91  9.0000000000000E-01  9.0380110557728E-02  1.6378806886804E+00
    92  9.1000000000000E-01  5.6843045481798E-02  1.6541817862426E+00
    93  9.2000000000000E-01  2.4705263898898E-02  1.6667374229426E+00
    94  9.3000000000000E-01 -5.9409453554352E-03  1.6753416570182E+00
    95  9.4000000000000E-01 -3.5009573246698E-02  1.6798074116487E+00
    96  9.5000000000000E-01 -6.2421734429109E-02  1.6799697696983E+00
    97  9.6000000000000E-01 -8.8106475390707E-02  1.6756891229178E+00
    98  9.7000000000000E-01 -1.1200153423306E-01  1.6668541215171E+00
    99  9.8000000000000E-01 -1.3405403978572E-01  1.6533843716296E+00
   100  9.9000000000000E-01 -1.5422113828736E-01  1.6352328306988E+00
   101  1.0000000000000E+00 -1.7247053660190E-01  1.6123878542040E+00
   102  1.0100000000000E+00 -1.8878095187051E-01  1.5848748513752E+00
   103  1.0200000000000E+00 -2.0314245861822E-01  1.5527575125572E+00
   104  1.0300000000000E+00 -2.1555672562041E-01  1.5161385766207E+00
   105  1.0400000000000E+00 -2.2603713627231E-01  1.4751601131759E+00
   106  1.0500000000000E+00 -2.3460878777408E-01  1.4300033012622E+00
   107  1.0600000000000E+00 -2.4130836611841E-01  1.3808876935226E+00
   108  1.0700000000000E+00 -2.4618389562307E-01  1.3280699625405E+00
   109  1.0800000000000E+00 -2.4929436356281E-01  1.2718421338908E+00
   110  1.0900000000000E+00 -2.5070922228435E-01  1.2125293183853E+00
   111  1.1000000000000E+00 -2.5050777302232E-01  1.1504869639033E+00
   112  1.1100000000000E+00 -2.4877843742251E-01  1.0860976548828E+00
   113  1.1200000000000E+00 -2.4561792451084E-01  1.0197674949555E+00
   114  1.1300000000000E+00 -2.4113030247812E-01  9.5192211515082E-01
   115  1.1400000000000E+00 -2.3542598616372E-01  8.8300235649270E-01
   116  1.1500000000000E+00 -2.2862065248351E-01  8.1345968152964E-01
   117  1.1600000000000E+00 -2.2083409723813E-01  7.4375137428427E-01
   118  1.1700000000000E+00 -2.1218904773203E-01  6.7433559218234E-01
   119  1.1800000000000E+00 -2.0280994641732E-01  6.0566633665549E-01
   120  1.1900000000000E+00 -1.9282172132817E-01  5.3818841122766E-01
   121  1.2000000000000E+00 -1.8234855938561E-01  4.7233243695967E-01
   122  1.2100000000000E+00 -1.7151269871656E-01  4.0850999509930E-01
   123  1.2200000000000E+00 -1.6043325594269E-01  3.4710896565115E-01
   124  1.2300000000000E+00 -1.4922510395441E-01  2.8848912835153E-01
   125  1.2400000000000E+00 -1.3799781499895E-01  2.3297808923480E-01
   126  1.2500000000000E+00 -1.2685468298041E-01  1.8086759161853E-01
   127  1.2600000000000E+00 -1.1589183772001E-01  1.3241026503624E-01
   128  1.2700000000000E+00 -1.0519746255747E-01  8.7816859408787E-02
   129  1.2800000000000E+00 -9.4851125117313E-02  4.7254004698547E-02
   130  1.2900000000000E+00 -8.4923229347322E-02  1.0842528567998E-02
   131  1.3000000000000E+00 -7.5474595067872E-02 -2.1343643802139E-02
   132  1.3100000000000E+00 -6.6556169295224E-02 -4.9277992387610E-02
   133  1.3200000000000E+00 -5.8208871548210E-02 -7.2981301265250E-02
   134  1.3300000000000E+00 -5.0463573240337E-02 -9.2520956936854E-02
   135  1.3400000000000E+00 -4.3341209134761E-02 -1.0800965852131E-01
   136  1.3500000000000E+00 -3.6853016737451E-02 -1.1960356155777E-01
   137  1.3600000000000E+00 -3.1000897457117E-02 -1.2749988614641E-01
   138  1.3700000000000E+00 -2.5777891386812E-02 -1.3193402878953E-01
   139  1.3800000000000E+00 -2.1168755717888E-02 -1.3317622533900E-01
   140  1.3900000000000E+00 -1.7150635094092E-02 -1.3152781985464E-01
   141  1.4000000000000E+00 -1.3693810689974E-02 -1.2731720076744E-01
   142  1.4100000000000E+00 -1.0762513470929E-02 -1.2089547144584E-01
   143  1.4200000000000E+00 -8.3157859902912E-03 -1.1263192696133E-01
   144  1.4300000000000E+00 -6.3083760256156E-03 -1.0290941355088E-01
   145  1.4400000000000E+00 -4.6916458977125E-03 -9.2119643065693E-02
   146  1.4500000000000E+00 -3.4144887315297E-03 -8.0658488554076E-02
   147  1.4600000000000E+00 -2.4241276860824E-03 -6.8921988669946E-02
   148  1.4700000000000E+00 -1.6707324210357E-03 -5.7280942225306E-02
   149  1.4800000000000E+00 -1.1042737065521E-03 -4.6101133923210E-02
   150  1.4900000000000E+00 -7.3583038561496E-04 -3.5419700327442E-02
   151  1.5000000000000E+00 -4.7175334385771E-04 -2.5826657474583E-02
   152  1.5100000000000E+00 -2.9156062446316E-04 -1.7495998241453E-02
   153  1.5200000000000E+00 -1.6951925009875E-04 -1.0628176984685E-02
   154  1.5300000000000E+00 -8.6741993727501E-05 -5.3850423272807E-03
   155  1.5400000000000E+00 -3.1908837523744E-05 -1.8660743593720E-03
   156  1.5500000000000E+00 -3.9944374787512E-06 -2.0930413718111E-04
   157  1.5600000000000E+00  6.1601952170714E-07  3.1072089236729E-05
   158  1.5700000000000E+00 -1.7349314815663E-07 -9.2157149572626E-06
   159  1.58  0.  0.
   160  1.59  0. -0.
   161  1.60  0.  0.
   162  1.61  0.  0.
   163  1.62  0.  0.
   164  1.63  0.  0.
   165  1.64  0.  0.
   166  1.65  0.  0.
   167  1.66  0.  0.
   168  1.67  0.  0.
   169  1.68  0.  0.
   170  1.69  0.  0.
   171  1.70  0.  0.
   172  1.71  0.  0.
   173  1.72  0.  0.
   174  1.73  0.  0.
   175  1.74  0.  0.
   176  1.75  0.  0.
   177  1.76  0.  0.
   178  1.77  0.  0.
   179  1.78  0.  0.
   180  1.79  0.  0.
   181  1.80  0.  0.
   182  1.81  0.  0.
   183  1.82  0.  0.
   184  1.83  0.  0.
   185  1.84  0.  0.
   186  1.85  0.  0.
   187  1.86  0.  0.
   188  1.87  0.  0.
   189  1.88  0.  0.
   190  1.89  0.  0.
   191  1.90  0.  0.
   192  1.91  0.  0.
   193  1.92  0.  0.
   194  1.93  0.  0.
   195  1.94  0.  0.
   196  1.95  0.  0.
   197  1.96  0.  0.
   198  1.97  0.  0.
   199  1.98  0.  0.
   200  1.99  0.  0.
   201  2.00  0.  0.
   202  2.01  0.  0.
   203  2.02  0.  0.
   204  2.03  0.  0.
   205  2.04  0.  0.
   206  2.05  0.  0.
   207  2.06  0.  0.
   208  2.07  0.  0.
   209  2.08  0.  0.
   210  2.09  0.  0.
   211  2.10  0.  0.
   212  2.11  0.  0.
   213  2.12  0.  0.
   214  2.13  0.  0.
   215  2.14  0.  0.
   216  2.15  0.  0.
   217  2.16  0.  0.
   218  2.17  0.  0.
   219  2.18  0.  0.
   220  2.19  0.  0.
   221  2.20  0.  0.
   222  2.21  0.  0.
   223  2.22  0.  0.
   224  2.23  0.  0.
   225  2.24  0.  0.
   226  2.25  0.  0.
   227  2.26  0.  0.
   228  2.27  0.  0.
   229  2.28  0.  0.
   230  2.29  0.  0.
   231  2.30  0.  0.
   232  2.31  0.  0.
   233  2.32  0.  0.
   234  2.33  0.  0.
   235  2.34  0.  0.
   236  2.35  0.  0.
   237  2.36  0.  0.
   238  2.37  0.  0.
   239  2.38  0.  0.
   240  2.39  0.  0.
   241  2.40  0.  0.
   242  2.41  0.  0.
   243  2.42  0.  0.
   244  2.43  0.  0.
   245  2.44  0.  0.
   246  2.45  0.  0.
   247  2.46  0.  0.
   248  2.47  0.  0.
   249  2.48  0.  0.
   250  2.49  0.  0.
   251  2.50  0.  0.
   252  2.51  0.  0.
   253  2.52  0.  0.
   254  2.53  0.  0.
   255  2.54  0.  0.
   256  2.55  0.  0.
   257  2.56  0.  0.
   258  2.57  0.  0.
   259  2.58  0.  0.
   260  2.59  0.  0.
   261  2.60  0.  0.
   262  2.61  0.  0.
   263  2.62  0.  0.
   264  2.63  0.  0.
   265  2.64  0.  0.
   266  2.65  0.  0.
   267  2.66  0.  0.
   268  2.67  0.  0.
   269  2.68  0.  0.
   270  2.69  0.  0.
   271  2.70  0.  0.
   272  2.71  0.  0.
   273  2.72  0.  0.
   274  2.73  0.  0.
   275  2.74  0.  0.
   276  2.75  0.  0.
   277  2.76  0.  0.
   278  2.77  0.  0.
   279  2.78  0.  0.
   280  2.79  0.  0.
   281  2.80  0.  0.
   282  2.81  0.  0.
   283  2.82  0.  0.
   284  2.83  0.  0.
   285  2.84  0.  0.
   286  2.85  0.  0.
   287  2.86  0.  0.
   288  2.87  0.  0.
   289  2.88  0.  0.
   290  2.89  0.  0.
   291  2.90  0.  0.
   292  2.91  0.  0.
   293  2.92  0.  0.
   294  2.93  0.  0.
   295  2.94  0.  0.
   296  2.95  0.  0.
   297  2.96  0.  0.
   298  2.97  0.  0.
   299  2.98  0.  0.
   300  2.99  0.  0.
   301  3.00  0.  0.
   302  3.01  0.  0.
   303  3.02  0.  0.
   304  3.03  0.  0.
   305  3.04  0.  0.
   306  3.05  0.  0.
   307  3.06  0.  0.
   308  3.07  0.  0.
   309  3.08  0.  0.
   310  3.09  0.  0.
   311  3.10  0.  0.
   312  3.11  0.  0.
   313  3.12  0.  0.
   314  3.13  0.  0.
   315  3.14  0.  0.
   316  3.15  0.  0.
   317  3.16  0.  0.
   318  3.17  0.  0.
   319  3.18  0.  0.
   320  3.19  0.  0.
   321  3.20  0.  0.
   322  3.21  0.  0.
   323  3.22  0.  0.
   324  3.23  0.  0.
   325  3.24  0.  0.
   326  3.25  0.  0.
   327  3.26  0.  0.
   328  3.27  0.  0.
   329  3.28  0.  0.
   330  3.29  0.  0.
   331  3.30  0.  0.
   332  3.31  0.  0.
   333  3.32  0.  0.
   334  3.33  0.  0.
   335  3.34  0.  0.
   336  3.35  0.  0.
   337  3.36  0.  0.
   338  3.37  0.  0.
   339  3.38  0.  0.
   340  3.39  0.  0.
   341  3.40  0.  0.
   342  3.41  0.  0.
   343  3.42  0.  0.
   344  3.43  0.  0.
   345  3.44  0.  0.
   346  3.45  0.  0.
   347  3.46  0.  0.
   348  3.47  0.  0.
   349  3.48  0.  0.
   350  3.49  0.  0.
   351  3.50  0.  0.
   352  3.51  0.  0.
   353  3.52  0.  0.
   354  3.53  0.  0.
   355  3.54  0.  0.
   356  3.55  0.  0.
   357  3.56  0.  0.
   358  3.57  0.  0.
   359  3.58  0.  0.
   360  3.59  0.  0.
   361  3.60  0.  0.
   362  3.61  0.  0.
   363  3.62  0.  0.
   364  3.63  0.  0.
   365  3.64  0.  0.
   366  3.65  0.  0.
   367  3.66  0.  0.
   368  3.67  0.  0.
   369  3.68  0.  0.
   370  3.69  0.  0.
   371  3.70  0.  0.
   372  3.71  0.  0.
   373  3.72  0.  0.
   374  3.73  0.  0.
   375  3.74  0.  0.
   376  3.75  0.  0.
   377  3.76  0.  0.
   378  3.77  0.  0.
   379  3.78  0.  0.
   380  3.79  0.  0.
   381  3.80  0.  0.
   382  3.81  0.  0.
   383  3.82  0.  0.
   384  3.83  0.  0.
   385  3.84  0.  0.
   386  3.85  0.  0.
   387  3.86  0.  0.
   388  3.87  0.  0.
   389  3.88  0.  0.
   390  3.89  0.  0.
   391  3.90  0.  0.
   392  3.91  0.  0.
   393  3.92  0.  0.
   394  3.93  0.  0.
   395  3.94  0.  0.
   396  3.95  0.  0.
   397  3.96  0.  0.
   398  3.97  0.  0.
   399  3.98  0.  0.
   400  3.99  0.  0.
   401  4.00  0.  0.
   402  4.01  0.  0.
   403  4.02  0.  0.
   404  4.03  0.  0.
   405  4.04  0.  0.
   406  4.05  0.  0.
   407  4.06  0.  0.
   408  4.07  0.  0.
   409  4.08  0.  0.
   410  4.09  0.  0.
   411  4.10  0.  0.
   412  4.11  0.  0.
   413  4.12  0.  0.
   414  4.13  0.  0.
   415  4.14  0.  0.
   416  4.15  0.  0.
   417  4.16  0.  0.
   418  4.17  0.  0.
   419  4.18  0.  0.
   420  4.19  0.  0.
   421  4.20  0.  0.
   422  4.21  0.  0.
   423  4.22  0.  0.
   424  4.23  0.  0.
   425  4.24  0.  0.
   426  4.25  0.  0.
   427  4.26  0.  0.
   428  4.27  0.  0.
   429  4.28  0.  0.
   430  4.29  0.  0.
   431  4.30  0.  0.
   432  4.31  0.  0.
   433  4.32  0.  0.
   434  4.33  0.  0.
   435  4.34  0.  0.
   436  4.35  0.  0.
   437  4.36  0.  0.
   438  4.37  0.  0.
   439  4.38  0.  0.
   440  4.39  0.  0.
   441  4.40  0.  0.
   442  4.41  0.  0.
   443  4.42  0.  0.
   444  4.43  0.  0.
   445  4.44  0.  0.
   446  4.45  0.  0.
   447  4.46  0.  0.
   448  4.47  0.  0.
   449  4.48  0.  0.
   450  4.49  0.  0.
   451  4.50  0.  0.
   452  4.51  0.  0.
   453  4.52  0.  0.
   454  4.53  0.  0.
   455  4.54  0.  0.
   456  4.55  0.  0.
   457  4.56  0.  0.
   458  4.57  0.  0.
   459  4.58  0.  0.
   460  4.59  0.  0.
   461  4.60  0.  0.
   462  4.61  0.  0.
   463  4.62  0.  0.
   464  4.63  0.  0.
   465  4.64  0.  0.
   466  4.65  0.  0.
   467  4.66  0.  0.
   468  4.67  0.  0.
   469  4.68  0.  0.
   470  4.69  0.  0.
   471  4.70  0.  0.
   472  4.71  0.  0.
   473  4.72  0.  0.
   474  4.73  0.  0.
   475  4.74  0.  0.
   476  4.75  0.  0.
   477  4.76  0.  0.
   478  4.77  0.  0.
   479  4.78  0.  0.
   480  4.79  0.  0.
   481  4.80  0.  0.
   482  4.81  0.  0.
   483  4.82  0.  0.
   484  4.83  0.  0.
   485  4.84  0.  0.
   486  4.85  0.  0.
   487  4.86  0.  0.
   488  4.87  0.  0.
   489  4.88  0.  0.
   490  4.89  0.  0.
   491  4.90  0.  0.
   492  4.91  0.  0.
   493  4.92  0.  0.
   494  4.93  0.  0.
   495  4.94  0.  0.
   496  4.95  0.  0.
   497  4.96  0.  0.
   498  4.97  0.  0.
   499  4.98  0.  0.
   500  4.99  0.  0.
   501  5.00  0.  0.
   502  5.01  0.  0.
   503  5.02  0.  0.
   504  5.03  0.  0.
   505  5.04  0.  0.
   506  5.05  0.  0.
   507  5.06  0.  0.
   508  5.07  0.  0.
   509  5.08  0.  0.
   510  5.09  0.  0.
   511  5.10  0.  0.
   512  5.11  0.  0.
   513  5.12  0.  0.
   514  5.13  0.  0.
   515  5.14  0.  0.
   516  5.15  0.  0.
   517  5.16  0.  0.
   518  5.17  0.  0.
   519  5.18  0.  0.
   520  5.19  0.  0.
   521  5.20  0.  0.
   522  5.21  0.  0.
   523  5.22  0.  0.
   524  5.23  0.  0.
   525  5.24  0.  0.
   526  5.25  0.  0.
   527  5.26  0.  0.
   528  5.27  0.  0.
   529  5.28  0.  0.
   530  5.29  0.  0.
   531  5.30  0.  0.
   532  5.31  0.  0.
   533  5.32  0.  0.
   534  5.33  0.  0.
   535  5.34  0.  0.
   536  5.35  0.  0.
   537  5.36  0.  0.
   538  5.37  0.  0.
   539  5.38  0.  0.
   540  5.39  0.  0.
   541  5.40  0.  0.
   542  5.41  0.  0.
   543  5.42  0.  0.
   544  5.43  0.  0.
   545  5.44  0.  0.
   546  5.45  0.  0.
   547  5.46  0.  0.
   548  5.47  0.  0.
   549  5.48  0.  0.
   550  5.49  0.  0.
   551  5.50  0.  0.
   552  5.51  0.  0.
   553  5.52  0.  0.
   554  5.53  0.  0.
   555  5.54  0.  0.
   556  5.55  0.  0.
   557  5.56  0.  0.
   558  5.57  0.  0.
   559  5.58  0.  0.
   560  5.59  0.  0.
   561  5.60  0.  0.
   562  5.61  0.  0.
   563  5.62  0.  0.
   564  5.63  0.  0.
   565  5.64  0.  0.
   566  5.65  0.  0.
   567  5.66  0.  0.
   568  5.67  0.  0.
   569  5.68  0.  0.
   570  5.69  0.  0.
   571  5.70  0.  0.
   572  5.71  0.  0.
   573  5.72  0.  0.
   574  5.73  0.  0.
   575  5.74  0.  0.
   576  5.75  0.  0.
   577  5.76  0.  0.
   578  5.77  0.  0.
   579  5.78  0.  0.
   580  5.79  0.  0.
   581  5.80  0.  0.
   582  5.81  0.  0.
   583  5.82  0.  0.
   584  5.83  0.  0.
   585  5.84  0.  0.
   586  5.85  0.  0.
   587  5.86  0.  0.
   588  5.87  0.  0.
   589  5.88  0.  0.
   590  5.89  0.  0.
   591  5.90  0.  0.
   592  5.91  0.  0.
   593  5.92  0.  0.
   594  5.93  0.  0.
   595  5.94  0.  0.
   596  5.95  0.  0.
   597  5.96  0.  0.
   598  5.97  0.  0.
   599  5.98  0.  0.
   600  5.99  0.  0.
   1                         5.9092327722409E+00  7.4400632306157E-01
     1  0.0000000000000E+00 -1.3927692887883E-09  3.6270639686142E-09
     2  1.0000000000000E-02  1.2424728661494E-03 -6.3200679311205E-04
     3  2.0000000000000E-02  4.9671929864423E-03 -2.5270470261712E-03
     4  3.0000000000000E-02  1.1166040005531E-02 -5.6821070071502E-03
     5  4.0000000000000E-02  1.9825397777009E-02 -1.0091921968114E-02
     6  5.0000000000000E-02  3.0926033983107E-02 -1.5748620892399E-02
     7  6.0000000000000E-02  4.4442937434181E-02 -2.2641244579624E-02
     8  7.0000000000000E-02  6.0345118718198E-02 -3.0755151814117E-02
     9  8.0000000000000E-02  7.8595381263158E-02 -4.0071332129383E-02
    10  9.0000000000000E-02  9.9150071104734E-02 -5.0565646843414E-02
    11  1.0000000000000E-01  1.2195881468781E-01 -6.2208022696702E-02
    12  1.1000000000000E-01  1.4696425484938E-01 -7.4961624491001E-02
    13  1.2000000000000E-01  1.7410179571133E-01 -8.8782034549116E-02
    14  1.3000000000000E-01  2.0329936753947E-01 -1.0361646755349E-01
    15  1.4000000000000E-01  2.3447722269075E-01 -1.1940304935227E-01
    16  1.5000000000000E-01  2.6754777356925E-01 -1.3607018763678E-01
    17  1.6000000000000E-01  3.0241548304598E-01 -1.5353606100303E-01
    18  1.7000000000000E-01  3.3897681707469E-01 -1.7170825083633E-01
    19  1.8000000000000E-01  3.7712026826988E-01 -1.9048353774265E-01
    20  1.9000000000000E-01  4.1672645802147E-01 -2.0974788094835E-01
    21  2.0000000000000E-01  4.5766832332907E-01 -2.2937659527050E-01
    22  2.1000000000000E-01  4.9981139297305E-01 -2.4923473600361E-01
    23  2.2000000000000E-01  5.4301415593440E-01 -2.6917769746905E-01
    24  2.3000000000000E-01  5.8712852316479E-01 -2.8905202612996E-01
    25  2.4000000000000E-01  6.3200038193089E-01 -3.0869644419522E-01
    26  2.5000000000000E-01  6.7747024005315E-01 -3.2794307463346E-01
    27  2.6000000000000E-01  7.2337395546920E-01 -3.4661885360428E-01
    28  2.7000000000000E-01  7.6954354471726E-01 -3.6454711160431E-01
    29  2.8000000000000E-01  8.1580806219554E-01 -3.8154930022801E-01
    30  2.9000000000000E-01  8.6199454044774E-01 -3.9744683746449E-01
    31  3.0000000000000E-01  9.0792898028939E-01 -4.1206304098671E-01
    32  3.1000000000000E-01  9.5343737835655E-01 -4.2522511602708E-01
    33  3.2000000000000E-01  9.9834677865743E-01 -4.3676616224659E-01
    34  3.3000000000000E-01  1.0424863339618E+00 -4.4652716255629E-01
    35  3.4000000000000E-01  1.0856883623927E+00 -4.5435891618372E-01
    36  3.5000000000000E-01  1.1277893844029E+00 -4.6012387842434E-01
    37  3.6000000000000E-01  1.1686311254317E+00 -4.6369787048873E-01
    38  3.7000000000000E-01  1.2080614699490E+00 -4.6497162464621E-01
    39  3.8000000000000E-01  1.2459353532953E+00 -4.6385213244987E-01
    40  3.9000000000000E-01  1.2821155787111E+00 -4.6026376716490E-01
    41  4.0000000000000E-01  1.3164735481952E+00 -4.5414915555399E-01
    42  4.1000000000000E-01  1.3488898973192E+00 -4.4546977882456E-01
    43  4.2000000000000E-01  1.3792550258263E+00 -4.3420628772423E-01
    44  4.3000000000000E-01  1.4074695177198E+00 -4.2035852238057E-01
    45  4.4000000000000E-01  1.4334444465688E+00 -4.0394523340536E-01
    46  4.5000000000000E-01  1.4571015638806E+00 -3.8500350690041E-01
    47  4.6000000000000E-01  1.4783733705666E+00 -3.6358790218333E-01
    48  4.7000000000000E-01  1.4972030737229E+00 -3.3976931716485E-01
    49  4.8000000000000E-01  1.5135444331071E+00 -3.1363360222263E-01
    50  4.9000000000000E-01  1.5273615037688E+00 -2.8527994899742E-01
    51  5.0000000000000E-01  1.5386282832552E+00 -2.5481908566148E-01
    52  5.1000000000000E-01  1.5473282735992E+00 -2.2237131475636E-01
    53  5.2000000000000E-01  1.5534539698874E+00 -1.8806443355899E-01
    54  5.3000000000000E-01  1.5570062885510E+00 -1.5203158001630E-01
    55  5.4000000000000E-01  1.5579939495944E+00 -1.1440904950681E-01
    56  5.5000000000000E-01  1.5564328277556E+00 -7.5334128979642E-02
    57  5.6000000000000E-01  1.5523452880498E+00 -3.4942995339671E-02
    58  5.7000000000000E-01  1.5457595212767E+00  6.6312757323457E-03
    59  5.8000000000000E-01  1.5367088948637E+00  4.9260546021724E-02
    60  5.9000000000000E-01  1.5252313338717E+00  9.2823254255490E-02
    61  6.0000000000000E-01  1.5113687461153E+00  1.3720582061132E-01
    62  6.1000000000000E-01  1.4951665041621E+00  1.8230378258337E-01
    63  6.2000000000000E-01  1.4766729954920E+00  2.2802263387013E-01
    64  6.3000000000000E-01  1.4559392503522E+00  2.7427834401477E-01
    65  6.4000000000000E-01  1.4330186548642E+00  3.2099754320261E-01
    66  6.5000000000000E-01  1.4079667547706E+00  3.6811736377677E-01
    67  6.6000000000000E-01  1.3808411528896E+00  4.1558493753046E-01
    68  6.7000000000000E-01  1.3517015009293E+00  4.6335655552275E-01
    69  6.8000000000000E-01  1.3206095838434E+00  5.1139650488658E-01
    70  6.9000000000000E-01  1.2876294924454E+00  5.5967560469153E-01
    71  7.0000000000000E-01  1.2528278775886E+00  6.0816947022792E-01
    72  7.1000000000000E-01  1.2162742769173E+00  6.5685654193418E-01
    73  7.2000000000000E-01  1.1780415030527E+00  7.0571592144184E-01
    74  7.3000000000000E-01  1.1382060801448E+00  7.5472506271989E-01
    75  7.4000000000000E-01  1.0968487140417E+00  8.0385737092937E-01
    76  7.5000000000000E-01  1.0540547799455E+00  8.5307976523443E-01
    77  7.6000000000000E-01  1.0099148103687E+00  9.0235026436126E-01
    78  7.7000000000000E-01  9.6452496551214E-01  9.5161565506920E-01
    79  7.8000000000000E-01  9.1798746787290E-01  1.0008093038494E+00
    80  7.9000000000000E-01  8.7041098297370E-01  1.0498491710582E+00
    81  8.0000000000000E-01  8.2191092859315E-01  1.0986360843238E+00
    82  8.1000000000000E-01  7.7260969576336E-01  1.1470523244468E+00
    83  8.2000000000000E-01  7.2263676608180E-01  1.1949605722055E+00
    84  8.3000000000000E-01  6.7212871153737E-01  1.2422032585272E+00
    85  8.4000000000000E-01  6.2122906505105E-01  1.2886023535090E+00
    86  8.5000000000000E-01  5.7008805224653E-01  1.3339596218694E+00
    87  8.6000000000000E-01  5.1886217755296E-01  1.3780573637304E+00
    88  8.7000000000000E-01  4.6771366055606E-01  1.4206596503220E+00
    89  8.8000000000000E-01  4.1680972150007E-01  1.4615140544373E+00
    90  8.9000000000000E-01  3.6632171794658E-01  1.5003538654398E+00
    91  9.0000000000000E-01  3.1642413775533E-01  1.5369007685110E+00
    92  9.1000000000000E-01  2.6729345670417E-01  1.5708679578505E+00
    93  9.2000000000000E-01  2.1910687214747E-01  1.6019636438726E+00
    94  9.3000000000000E-01  1.7204092705944E-01  1.6298949053124E+00
    95  9.4000000000000E-01  1.2627004156088E-01  1.6543718287229E+00
    96  9.5000000000000E-01  8.1964971523670E-02  1.6751118703166E+00
    97  9.6000000000000E-01  3.9291216033258E-02  1.6918443686362E+00
    98  9.7000000000000E-01 -1.5926026855721E-03  1.7043151312790E+00
    99  9.8000000000000E-01 -4.0536361853408E-02  1.7122910149825E+00
   100  9.9000000000000E-01 -7.7400037225442E-02  1.7155644159033E+00
   101  1.0000000000000E+00 -1.1205525216873E-01  1.7139575859739E+00
   102  1.0100000000000E+00 -1.4438675018937E-01  1.7073266918421E+00
   103  1.0200000000000E+00 -1.7429376484990E-01  1.6955655351153E+00
   104  1.0300000000000E+00 -2.0169126199625E-01  1.6786088564381E+00
   105  1.0400000000000E+00 -2.2651103068225E-01  1.6564351512693E+00
   106  1.0500000000000E+00 -2.4870260112493E-01  1.6290689320509E+00
   107  1.0600000000000E+00 -2.6823397040968E-01  1.5965823796461E+00
   108  1.0700000000000E+00 -2.8509211945908E-01  1.5590963363535E+00
   109  1.0800000000000E+00 -2.9928330793932E-01  1.5167806033347E+00
   110  1.0900000000000E+00 -3.1083313723555E-01  1.4698535166984E+00
   111  1.1000000000000E+00 -3.1978637534963E-01  1.4185807886518E+00
   112  1.1100000000000E+00 -3.2620654145813E-01  1.3632736127283E+00
   113  1.1200000000000E+00 -3.3017525188266E-01  1.3042860450272E+00
   114  1.1300000000000E+00 -3.3179133326196E-01  1.2420116863012E+00
   115  1.1400000000000E+00 -3.3116971272592E-01  1.1768797024595E+00
   116  1.1500000000000E+00 -3.2844009876134E-01  1.1093502332939E+00
   117  1.1600000000000E+00 -3.2374547016852E-01  1.0399092508218E+00
   118  1.1700000000000E+00 -3.1724039394889E-01  9.6906293926965E-01
   119  1.1800000000000E+00 -3.0908919608954E-01  8.9733167827118E-01
   120  1.1900000000000E+00 -2.9946401193074E-01  8.2524371902460E-01
   121  1.2000000000000E+00 -2.8854274509535E-01  7.5332864989446E-01
   122  1.2100000000000E+00 -2.7650696574007E-01  6.8211075298522E-01
   123  1.2200000000000E+00 -2.6353978015178E-01  6.1210235654817E-01
   124  1.2300000000000E+00 -2.4982370440262E-01  5.4379728954504E-01
   125  1.2400000000000E+00 -2.3553857489355E-01  4.7766454428396E-01
   126  1.2500000000000E+00 -2.2085952813545E-01  4.1414225070222E-01
   127  1.2600000000000E+00 -2.0595508105712E-01  3.5363206167135E-01
   128  1.2700000000000E+00 -1.9098534148999E-01  2.9649404263771E-01
   129  1.2800000000000E+00 -1.7610037628873E-01  2.4304215109898E-01
   130  1.2900000000000E+00 -1.6143876185768E-01  1.9354038202752E-01
   131  1.3000000000000E+00 -1.4712633867677E-01  1.4819964442870E-01