Zr    ONCVPSP-4.0.1  r_core=   1.55435   1.55435   1.50855
     40.0000     12.0000      250217    zatom,zion,pspd
     8       2   2     4   600     0    pspcod,pspxc,lmax,lloc,mmax,r2well
  5.99000000  5.00000000  0.00000000    rchrg fchrg qchrg
     2     2     2     0    nproj
     3     1           extension_switch
     4     3     0    nprojso
   0                         1.0559485979300E+01  8.7409338018356E-01
     1  0.0000000000000E+00  4.8132292596037E-10 -1.8123635925349E-09
     2  1.0000000000000E-02  5.2425560887330E-02 -2.0714102476571E-02
     3  2.0000000000000E-02  1.0480417485214E-01 -4.1416439669760E-02
     4  3.0000000000000E-02  1.5708858685999E-01 -6.2094150345143E-02
     5  4.0000000000000E-02  2.0923093259926E-01 -8.2732205680966E-02
     6  5.0000000000000E-02  2.6118245108347E-01 -1.0331238578621E-01
     7  6.0000000000000E-02  3.1289321759212E-01 -1.2381232727109E-01
     8  7.0000000000000E-02  3.6431190315281E-01 -1.4420466337815E-01
     9  8.0000000000000E-02  4.1538556628534E-01 -1.6445627636937E-01
    10  9.0000000000000E-02  4.6605948214393E-01 -1.8452767966432E-01
    11  1.0000000000000E-01  5.1627701351444E-01 -2.0437254467615E-01
    12  1.1000000000000E-01  5.6597952736397E-01 -2.2393738444602E-01
    13  1.2000000000000E-01  6.1510635981257E-01 -2.4316140308481E-01
    14  1.3000000000000E-01  6.6359483151673E-01 -2.6197651675265E-01
    15  1.4000000000000E-01  7.1138031453750E-01 -2.8030754850441E-01
    16  1.5000000000000E-01  7.5839635082884E-01 -2.9807259586709E-01
    17  1.6000000000000E-01  8.0457482154126E-01 -3.1518356655919E-01
    18  1.7000000000000E-01  8.4984616540915E-01 -3.3154687437939E-01
    19  1.8000000000000E-01  8.9413964359368E-01 -3.4706428404643E-01
    20  1.9000000000000E-01  9.3738364750351E-01 -3.6163389072787E-01
    21  2.0000000000000E-01  9.7950604532814E-01 -3.7515121721070E-01
    22  2.1000000000000E-01  1.0204345623078E+00 -3.8751040919754E-01
    23  2.2000000000000E-01  1.0600971891421E+00 -3.9860550710631E-01
    24  2.3000000000000E-01  1.0984226124205E+00 -4.0833177105295E-01
    25  2.4000000000000E-01  1.1353406605447E+00 -4.1658703443916E-01
    26  2.5000000000000E-01  1.1707827583266E+00 -4.2327306078024E-01
    27  2.6000000000000E-01  1.2046823832717E+00 -4.2829687810698E-01
    28  2.7000000000000E-01  1.2369755165220E+00 -4.3157206547293E-01
    29  2.8000000000000E-01  1.2676010815153E+00 -4.3301996679259E-01
    30  2.9000000000000E-01  1.2965013636355E+00 -4.3257080841778E-01
    31  3.0000000000000E-01  1.3236224044620E+00 -4.3016469851179E-01
    32  3.1000000000000E-01  1.3489143646806E+00 -4.2575248837475E-01
    33  3.2000000000000E-01  1.3723318502827E+00 -4.1929647837403E-01
    34  3.3000000000000E-01  1.3938341973381E+00 -4.1077095399634E-01
    35  3.4000000000000E-01  1.4133857113767E+00 -4.0016254071134E-01
    36  3.5000000000000E-01  1.4309558582348E+00 -3.8747036976398E-01
    37  3.6000000000000E-01  1.4465194041009E+00 -3.7270605063016E-01
    38  3.7000000000000E-01  1.4600565034174E+00 -3.5589344961130E-01
    39  3.8000000000000E-01  1.4715527342394E+00 -3.3706827783682E-01
    40  3.9000000000000E-01  1.4809990816063E+00 -3.1627749571860E-01
    41  4.0000000000000E-01  1.4883918704227E+00 -2.9357854458440E-01
    42  4.1000000000000E-01  1.4937326502594E+00 -2.6903841973700E-01
    43  4.2000000000000E-01  1.4970280353529E+00 -2.4273260247255E-01
    44  4.3000000000000E-01  1.4982895038865E+00 -2.1474387157957E-01
    45  4.4000000000000E-01  1.4975331613636E+00 -1.8516101746785E-01
    46  4.5000000000000E-01  1.4947794735180E+00 -1.5407748428808E-01
    47  4.6000000000000E-01  1.4900529747339E+00 -1.2158996715152E-01
    48  4.7000000000000E-01  1.4833819583625E+00 -8.7796992802604E-02
    49  4.8000000000000E-01  1.4747981556108E+00 -5.2797512804808E-02
    50  4.9000000000000E-01  1.4643364098316E+00 -1.6689538451112E-02
    51  5.0000000000000E-01  1.4520343530700E+00  2.0431153809990E-02
    52  5.1000000000000E-01  1.4379320916006E+00  5.8472218631793E-02
    53  5.2000000000000E-01  1.4220719069405E+00  9.7345813461512E-02
    54  5.3000000000000E-01  1.4044979784383E+00  1.3696952151261E-01
    55  5.4000000000000E-01  1.3852561330238E+00  1.7726710446899E-01
    56  5.5000000000000E-01  1.3643936270783E+00  2.1816906644983E-01
    57  5.6000000000000E-01  1.3419589646424E+00  2.5961301426312E-01
    58  5.7000000000000E-01  1.3180017553484E+00  3.0154380283893E-01
    59  5.8000000000000E-01  1.2925726145523E+00  3.4391345889349E-01
    60  5.9000000000000E-01  1.2657231071607E+00  3.8668088026000E-01
    61  6.0000000000000E-01  1.2375057356327E+00  4.2981131285456E-01
    62  6.1000000000000E-01  1.2079739715824E+00  4.7327561184039E-01
    63  6.2000000000000E-01  1.1771823293606E+00  5.1704929813092E-01
    64  6.3000000000000E-01  1.1451864789466E+00  5.6111142583990E-01
    65  6.4000000000000E-01  1.1120433944818E+00  6.0544328056458E-01
    66  6.5000000000000E-01  1.0778115338183E+00  6.5002693238881E-01
    67  6.6000000000000E-01  1.0425510435823E+00  6.9484367113723E-01
    68  6.7000000000000E-01  1.0063239834598E+00  7.3987235462498E-01
    69  6.8000000000000E-01  9.6919456273724E-01  7.8508770335958E-01
    70  6.9000000000000E-01  9.3122938157311E-01  8.3045857730248E-01
    71  7.0000000000000E-01  8.9249766905752E-01  8.7594627183431E-01
    72  7.1000000000000E-01  8.5307150984758E-01  9.2150287094896E-01
    73  7.2000000000000E-01  8.1302605105083E-01  9.6706969589586E-01
    74  7.3000000000000E-01  7.7243968107625E-01  1.0125758869768E+00
    75  7.4000000000000E-01  7.3139417238341E-01  1.0579371549794E+00
    76  7.5000000000000E-01  6.8997478043599E-01  1.1030547367972E+00
    77  7.6000000000000E-01  6.4827029170208E-01  1.1478145871623E+00
    78  7.7000000000000E-01  6.0637301423476E-01  1.1920868351428E+00
    79  7.8000000000000E-01  5.6437870520334E-01  1.2357255301589E+00
    80  7.9000000000000E-01  5.2238643071603E-01  1.2785686978258E+00
    81  8.0000000000000E-01  4.8049835436459E-01  1.3204387209845E+00
    82  8.1000000000000E-01  4.3881945211319E-01  1.3611430559237E+00
    83  8.2000000000000E-01  3.9745715242866E-01  1.4004752881102E+00
    84  8.3000000000000E-01  3.5652090188624E-01  1.4382165258128E+00
    85  8.4000000000000E-01  3.1612165786120E-01  1.4741371239457E+00
    86  8.5000000000000E-01  2.7637131130875E-01  1.5079987243536E+00
    87  8.6000000000000E-01  2.3738204401862E-01  1.5395565927335E+00
    88  8.7000000000000E-01  1.9926562608021E-01  1.5685622265338E+00
    89  8.8000000000000E-01  1.6213266058725E-01  1.5947662026067E+00
    90  8.9000000000000E-01  1.2609178382048E-01  1.6179212282029E+00
    91  9.0000000000000E-01  9.1248830252223E-02  1.6377853542031E+00
    92  9.1000000000000E-01  5.7705972695061E-02  1.6541253053569E+00
    93  9.2000000000000E-01  2.5560848748084E-02  1.6667198788371E+00
    94  9.3000000000000E-01 -5.0943146384534E-03  1.6753633596874E+00
    95  9.4000000000000E-01 -3.4173566171864E-02  1.6798688998085E+00
    96  9.5000000000000E-01 -6.1598072195340E-02  1.6800718060357E+00
    97  9.6000000000000E-01 -8.7296922937667E-02  1.6758326826560E+00
    98  9.7000000000000E-01 -1.1120789044897E-01  1.6670403744060E+00
    99  9.8000000000000E-01 -1.3327812595948E-01  1.6536146575988E+00
   100  9.9000000000000E-01 -1.5346478492941E-01  1.6355086295347E+00
   101  1.0000000000000E+00 -1.7173556879294E-01  1.6127107497339E+00
   102  1.0100000000000E+00 -1.8806917332951E-01  1.5852464907526E+00
   103  1.0200000000000E+00 -2.0245563471095E-01  1.5531795613482E+00
   104  1.0300000000000E+00 -2.1489656555597E-01  1.5166126704835E+00
   105  1.0400000000000E+00 -2.2540527475758E-01  1.4756878070051E+00
   106  1.0500000000000E+00 -2.3400676641425E-01  1.4305860167349E+00
   107  1.0600000000000E+00 -2.4073761486504E-01  1.3815266660349E+00
   108  1.0700000000000E+00 -2.4564571457974E-01  1.3287661885525E+00
   109  1.0800000000000E+00 -2.4878990546126E-01  1.2725963197156E+00
   110  1.0900000000000E+00 -2.5023947594224E-01  1.2133418314539E+00
   111  1.1000000000000E+00 -2.5007354808565E-01  1.1513577875149E+00
   112  1.1100000000000E+00 -2.4838035068294E-01  1.0870263474094E+00
   113  1.1200000000000E+00 -2.4525638806981E-01  1.0207531544137E+00
   114  1.1300000000000E+00 -2.4080551400621E-01  9.5296334997661E-01
   115  1.1400000000000E+00 -2.3513792147603E-01  8.8409726326562E-01
   116  1.1500000000000E+00 -2.2836906061902E-01  8.1460583028426E-01
   117  1.1600000000000E+00 -2.2061849819531E-01  7.4494580193090E-01
   118  1.1700000000000E+00 -2.1200873297342E-01  6.7557480442611E-01
   119  1.1800000000000E+00 -2.0266398221372E-01  6.0694631866492E-01
   120  1.1900000000000E+00 -1.9270895496923E-01  5.3950464715641E-01
   121  1.2000000000000E+00 -1.8226762823821E-01  4.7367993827470E-01
   122  1.2100000000000E+00 -1.7146204206674E-01  4.0988333751554E-01
   123  1.2200000000000E+00 -1.6041112951116E-01  3.4850233431990E-01
   124  1.2300000000000E+00 -1.4922959693137E-01  2.8989637080083E-01
   125  1.2400000000000E+00 -1.3802686940091E-01  2.3439277541564E-01
   126  1.2500000000000E+00 -1.2690611509144E-01  1.8228308027556E-01
   127  1.2600000000000E+00 -1.1596336134276E-01  1.3381977549604E-01
   128  1.2700000000000E+00 -1.0528671376592E-01  8.9213547766251E-02
   129  1.2800000000000E+00 -9.4955688174276E-02  4.8631043284286E-02
   130  1.2900000000000E+00 -8.5040663425719E-02  1.2193187498121E-02
   131  1.3000000000000E+00 -7.5602461396282E-02 -2.0025914255769E-02
   132  1.3100000000000E+00 -6.6692058335290E-02 -4.7999479912565E-02
   133  1.3200000000000E+00 -5.8350429804663E-02 -7.1747951439168E-02
   134  1.3300000000000E+00 -5.0608529303753E-02 -9.1338296306327E-02
   135  1.3400000000000E+00 -4.3487398562767E-02 -1.0688272214423E-01
   136  1.3500000000000E+00 -3.6998405391921E-02 -1.1853682628527E-01
   137  1.3600000000000E+00 -3.1143602932795E-02 -1.2649721086138E-01
   138  1.3700000000000E+00 -2.5916202190557E-02 -1.3099860273955E-01
   139  1.3800000000000E+00 -2.1301147887000E-02 -1.3231052560412E-01
   140  1.3900000000000E+00 -1.7275785976517E-02 -1.3073357887561E-01
   141  1.4000000000000E+00 -1.3810609648069E-02 -1.2659538472996E-01
   142  1.4100000000000E+00 -1.0870069313377E-02 -1.2024627017314E-01
   143  1.4200000000000E+00 -8.4134309829161E-03 -1.1205475581226E-01
   144  1.4300000000000E+00 -6.3956663795920E-03 -1.0240292766462E-01
   145  1.4400000000000E+00 -4.7683586926268E-03 -9.1681764070968E-02
   146  1.4500000000000E+00 -3.4806153024890E-03 -8.0286443548550E-02
   147  1.4600000000000E+00 -2.4798630523327E-03 -6.8612364301074E-02
   148  1.4700000000000E+00 -1.7164797857030E-03 -5.7029630064331E-02
   149  1.4800000000000E+00 -1.1406090462036E-03 -4.5903511231734E-02
   150  1.4900000000000E+00 -7.6376032329032E-04 -3.5268918198221E-02
   151  1.5000000000000E+00 -4.9199880808305E-04 -2.5718061019432E-02
   152  1.5100000000000E+00 -3.0520269256703E-04 -1.7423194394824E-02
   153  1.5200000000000E+00 -1.7776795621407E-04 -1.0584321005617E-02
   154  1.5300000000000E+00 -9.0903449935640E-05 -5.3629680455682E-03
   155  1.5400000000000E+00 -3.3341593033015E-05 -1.8584758214184E-03
   156  1.5500000000000E+00 -4.1468922395711E-06 -2.0848202248747E-04
   157  1.5600000000000E+00  6.4275596457375E-07  3.0935843919306E-05
   158  1.5700000000000E+00 -1.8115876834128E-07 -9.1762132414758E-06
   159  1.58  0.  0.
   160  1.59  0.  0.
   161  1.60  0.  0.
   162  1.61  0.  0.
   163  1.62  0.  0.
   164  1.63  0.  0.
   165  1.64  0.  0.
   166  1.65  0.  0.
   167  1.66  0.  0.
   168  1.67  0.  0.
   169  1.68  0.  0.
   170  1.69  0.  0.
   171  1.70  0.  0.
   172  1.71  0.  0.
   173  1.72  0.  0.
   174  1.73  0.  0.
   175  1.74  0.  0.
   176  1.75  0.  0.
   177  1.76  0.  0.
   178  1.77  0.  0.
   179  1.78  0.  0.
   180  1.79  0.  0.
   181  1.80  0.  0.
   182  1.81  0.  0.
   183  1.82  0.  0.
   184  1.83  0.  0.
   185  1.84  0.  0.
   186  1.85  0.  0.
   187  1.86  0.  0.
   188  1.87  0.  0.
   189  1.88  0.  0.
   190  1.89  0.  0.
   191  1.90  0.  0.
   192  1.91  0.  0.
   193  1.92  0.  0.
   194  1.93  0.  0.
   195  1.94  0.  0.
   196  1.95  0.  0.
   197  1.96  0.  0.
   198  1.97  0.  0.
   199  1.98  0.  0.
   200  1.99  0.  0.
   201  2.00  0.  0.
   202  2.01  0.  0.
   203  2.02  0.  0.
   204  2.03  0.  0.
   205  2.04  0.  0.
   206  2.05  0.  0.
   207  2.06  0.  0.
   208  2.07  0.  0.
   209  2.08  0.  0.
   210  2.09  0.  0.
   211  2.10  0.  0.
   212  2.11  0.  0.
   213  2.12  0.  0.
   214  2.13  0.  0.
   215  2.14  0.  0.
   216  2.15  0.  0.
   217  2.16  0.  0.
   218  2.17  0.  0.
   219  2.18  0.  0.
   220  2.19  0.  0.
   221  2.20  0.  0.
   222  2.21  0.  0.
   223  2.22  0.  0.
   224  2.23  0.  0.
   225  2.24  0.  0.
   226  2.25  0.  0.
   227  2.26  0.  0.
   228  2.27  0.  0.
   229  2.28  0.  0.
   230  2.29  0.  0.
   231  2.30  0.  0.
   232  2.31  0.  0.
   233  2.32  0.  0.
   234  2.33  0.  0.
   235  2.34  0.  0.
   236  2.35  0.  0.
   237  2.36  0.  0.
   238  2.37  0.  0.
   239  2.38  0.  0.
   240  2.39  0.  0.
   241  2.40  0.  0.
   242  2.41  0.  0.
   243  2.42  0.  0.
   244  2.43  0.  0.
   245  2.44  0.  0.
   246  2.45  0.  0.
   247  2.46  0.  0.
   248  2.47  0.  0.
   249  2.48  0.  0.
   250  2.49  0.  0.
   251  2.50  0.  0.
   252  2.51  0.  0.
   253  2.52  0.  0.
   254  2.53  0.  0.
   255  2.54  0.  0.
   256  2.55  0.  0.
   257  2.56  0.  0.
   258  2.57  0.  0.
   259  2.58  0.  0.
   260  2.59  0.  0.
   261  2.60  0.  0.
   262  2.61  0.  0.
   263  2.62  0.  0.
   264  2.63  0.  0.
   265  2.64  0.  0.
   266  2.65  0.  0.
   267  2.66  0.  0.
   268  2.67  0.  0.
   269  2.68  0.  0.
   270  2.69  0.  0.
   271  2.70  0.  0.
   272  2.71  0.  0.
   273  2.72  0.  0.
   274  2.73  0.  0.
   275  2.74  0.  0.
   276  2.75  0.  0.
   277  2.76  0.  0.
   278  2.77  0.  0.
   279  2.78  0.  0.
   280  2.79  0.  0.
   281  2.80  0.  0.
   282  2.81  0.  0.
   283  2.82  0.  0.
   284  2.83  0.  0.
   285  2.84  0.  0.
   286  2.85  0.  0.
   287  2.86  0.  0.
   288  2.87  0.  0.
   289  2.88  0.  0.
   290  2.89  0.  0.
   291  2.90  0.  0.
   292  2.91  0.  0.
   293  2.92  0.  0.
   294  2.93  0.  0.
   295  2.94  0.  0.
   296  2.95  0.  0.
   297  2.96  0.  0.
   298  2.97  0.  0.
   299  2.98  0.  0.
   300  2.99  0.  0.
   301  3.00  0.  0.
   302  3.01  0.  0.
   303  3.02  0.  0.
   304  3.03  0.  0.
   305  3.04  0.  0.
   306  3.05  0.  0.
   307  3.06  0.  0.
   308  3.07  0.  0.
   309  3.08  0.  0.
   310  3.09  0.  0.
   311  3.10  0.  0.
   312  3.11  0.  0.
   313  3.12  0.  0.
   314  3.13  0.  0.
   315  3.14  0.  0.
   316  3.15  0.  0.
   317  3.16  0.  0.
   318  3.17  0.  0.
   319  3.18  0.  0.
   320  3.19  0.  0.
   321  3.20  0.  0.
   322  3.21  0.  0.
   323  3.22  0.  0.
   324  3.23  0.  0.
   325  3.24  0.  0.
   326  3.25  0.  0.
   327  3.26  0.  0.
   328  3.27  0.  0.
   329  3.28  0.  0.
   330  3.29  0.  0.
   331  3.30  0.  0.
   332  3.31  0.  0.
   333  3.32  0.  0.
   334  3.33  0.  0.
   335  3.34  0.  0.
   336  3.35  0.  0.
   337  3.36  0.  0.
   338  3.37  0.  0.
   339  3.38  0.  0.
   340  3.39  0.  0.
   341  3.40  0.  0.
   342  3.41  0.  0.
   343  3.42  0.  0.
   344  3.43  0.  0.
   345  3.44  0.  0.
   346  3.45  0.  0.
   347  3.46  0.  0.
   348  3.47  0.  0.
   349  3.48  0.  0.
   350  3.49  0.  0.
   351  3.50  0.  0.
   352  3.51  0.  0.
   353  3.52  0.  0.
   354  3.53  0.  0.
   355  3.54  0.  0.
   356  3.55  0.  0.
   357  3.56  0.  0.
   358  3.57  0.  0.
   359  3.58  0.  0.
   360  3.59  0.  0.
   361  3.60  0.  0.
   362  3.61  0.  0.
   363  3.62  0.  0.
   364  3.63  0.  0.
   365  3.64  0.  0.
   366  3.65  0.  0.
   367  3.66  0.  0.
   368  3.67  0.  0.
   369  3.68  0.  0.
   370  3.69  0.  0.
   371  3.70  0.  0.
   372  3.71  0.  0.
   373  3.72  0.  0.
   374  3.73  0.  0.
   375  3.74  0.  0.
   376  3.75  0.  0.
   377  3.76  0.  0.
   378  3.77  0.  0.
   379  3.78  0.  0.
   380  3.79  0.  0.
   381  3.80  0.  0.
   382  3.81  0.  0.
   383  3.82  0.  0.
   384  3.83  0.  0.
   385  3.84  0.  0.
   386  3.85  0.  0.
   387  3.86  0.  0.
   388  3.87  0.  0.
   389  3.88  0.  0.
   390  3.89  0.  0.
   391  3.90  0.  0.
   392  3.91  0.  0.
   393  3.92  0.  0.
   394  3.93  0.  0.
   395  3.94  0.  0.
   396  3.95  0.  0.
   397  3.96  0.  0.
   398  3.97  0.  0.
   399  3.98  0.  0.
   400  3.99  0.  0.
   401  4.00  0.  0.
   402  4.01  0.  0.
   403  4.02  0.  0.
   404  4.03  0.  0.
   405  4.04  0.  0.
   406  4.05  0.  0.
   407  4.06  0.  0.
   408  4.07  0.  0.
   409  4.08  0.  0.
   410  4.09  0.  0.
   411  4.10  0.  0.
   412  4.11  0.  0.
   413  4.12  0.  0.
   414  4.13  0.  0.
   415  4.14  0.  0.
   416  4.15  0.  0.
   417  4.16  0.  0.
   418  4.17  0.  0.
   419  4.18  0.  0.
   420  4.19  0.  0.
   421  4.20  0.  0.
   422  4.21  0.  0.
   423  4.22  0.  0.
   424  4.23  0.  0.
   425  4.24  0.  0.
   426  4.25  0.  0.
   427  4.26  0.  0.
   428  4.27  0.  0.
   429  4.28  0.  0.
   430  4.29  0.  0.
   431  4.30  0.  0.
   432  4.31  0.  0.
   433  4.32  0.  0.
   434  4.33  0.  0.
   435  4.34  0.  0.
   436  4.35  0.  0.
   437  4.36  0.  0.
   438  4.37  0.  0.
   439  4.38  0.  0.
   440  4.39  0.  0.
   441  4.40  0.  0.
   442  4.41  0.  0.
   443  4.42  0.  0.
   444  4.43  0.  0.
   445  4.44  0.  0.
   446  4.45  0.  0.
   447  4.46  0.  0.
   448  4.47  0.  0.
   449  4.48  0.  0.
   450  4.49  0.  0.
   451  4.50  0.  0.
   452  4.51  0.  0.
   453  4.52  0.  0.
   454  4.53  0.  0.
   455  4.54  0.  0.
   456  4.55  0.  0.
   457  4.56  0.  0.
   458  4.57  0.  0.
   459  4.58  0.  0.
   460  4.59  0.  0.
   461  4.60  0.  0.
   462  4.61  0.  0.
   463  4.62  0.  0.
   464  4.63  0.  0.
   465  4.64  0.  0.
   466  4.65  0.  0.
   467  4.66  0.  0.
   468  4.67  0.  0.
   469  4.68  0.  0.
   470  4.69  0.  0.
   471  4.70  0.  0.
   472  4.71  0.  0.
   473  4.72  0.  0.
   474  4.73  0.  0.
   475  4.74  0.  0.
   476  4.75  0.  0.
   477  4.76  0.  0.
   478  4.77  0.  0.
   479  4.78  0.  0.
   480  4.79  0.  0.
   481  4.80  0.  0.
   482  4.81  0.  0.
   483  4.82  0.  0.
   484  4.83  0.  0.
   485  4.84  0.  0.
   486  4.85  0.  0.
   487  4.86  0.  0.
   488  4.87  0.  0.
   489  4.88  0.  0.
   490  4.89  0.  0.
   491  4.90  0.  0.
   492  4.91  0.  0.
   493  4.92  0.  0.
   494  4.93  0.  0.
   495  4.94  0.  0.
   496  4.95  0.  0.
   497  4.96  0.  0.
   498  4.97  0.  0.
   499  4.98  0.  0.
   500  4.99  0.  0.
   501  5.00  0.  0.
   502  5.01  0.  0.
   503  5.02  0.  0.
   504  5.03  0.  0.
   505  5.04  0.  0.
   506  5.05  0.  0.
   507  5.06  0.  0.
   508  5.07  0.  0.
   509  5.08  0.  0.
   510  5.09  0.  0.
   511  5.10  0.  0.
   512  5.11  0.  0.
   513  5.12  0.  0.
   514  5.13  0.  0.
   515  5.14  0.  0.
   516  5.15  0.  0.
   517  5.16  0.  0.
   518  5.17  0.  0.
   519  5.18  0.  0.
   520  5.19  0.  0.
   521  5.20  0.  0.
   522  5.21  0.  0.
   523  5.22  0.  0.
   524  5.23  0.  0.
   525  5.24  0.  0.
   526  5.25  0.  0.
   527  5.26  0.  0.
   528  5.27  0.  0.
   529  5.28  0.  0.
   530  5.29  0.  0.
   531  5.30  0.  0.
   532  5.31  0.  0.
   533  5.32  0.  0.
   534  5.33  0.  0.
   535  5.34  0.  0.
   536  5.35  0.  0.
   537  5.36  0.  0.
   538  5.37  0.  0.
   539  5.38  0.  0.
   540  5.39  0.  0.
   541  5.40  0.  0.
   542  5.41  0.  0.
   543  5.42  0.  0.
   544  5.43  0.  0.
   545  5.44  0.  0.
   546  5.45  0.  0.
   547  5.46  0.  0.
   548  5.47  0.  0.
   549  5.48  0.  0.
   550  5.49  0.  0.
   551  5.50  0.  0.
   552  5.51  0.  0.
   553  5.52  0.  0.
   554  5.53  0.  0.
   555  5.54  0.  0.
   556  5.55  0.  0.
   557  5.56  0.  0.
   558  5.57  0.  0.
   559  5.58  0.  0.
   560  5.59  0.  0.
   561  5.60  0.  0.
   562  5.61  0.  0.
   563  5.62  0.  0.
   564  5.63  0.  0.
   565  5.64  0.  0.
   566  5.65  0.  0.
   567  5.66  0.  0.
   568  5.67  0.  0.
   569  5.68  0.  0.
   570  5.69  0.  0.
   571  5.70  0.  0.
   572  5.71  0.  0.
   573  5.72  0.  0.
   574  5.73  0.  0.
   575  5.74  0.  0.
   576  5.75  0.  0.
   577  5.76  0.  0.
   578  5.77  0.  0.
   579  5.78  0.  0.
   580  5.79  0.  0.
   581  5.80  0.  0.
   582  5.81  0.  0.
   583  5.82  0.  0.
   584  5.83  0.  0.
   585  5.84  0.  0.
   586  5.85  0.  0.
   587  5.86  0.  0.
   588  5.87  0.  0.
   589  5.88  0.  0.
   590  5.89  0.  0.
   591  5.90  0.  0.
   592  5.91  0.  0.
   593  5.92  0.  0.
   594  5.93  0.  0.
   595  5.94  0.  0.
   596  5.95  0.  0.
   597  5.96  0.  0.
   598  5.97  0.  0.
   599  5.98  0.  0.
   600  5.99  0.  0.
   1                         5.9091953171033E+00  7.4593122098813E-01
     1  0.0000000000000E+00 -1.4077647519928E-09  3.7089988580430E-09
     2  1.0000000000000E-02  1.2413845609222E-03 -6.2833164807261E-04
     3  2.0000000000000E-02  4.9628626583044E-03 -2.5124541698434E-03
     4  3.0000000000000E-02  1.1156382164068E-02 -5.6496746817313E-03
     5  4.0000000000000E-02  1.9808439149148E-02 -1.0035255267786E-02
     6  5.0000000000000E-02  3.0899955291483E-02 -1.5662046231385E-02
     7  6.0000000000000E-02  4.4406112139455E-02 -2.2519988286549E-02
     8  7.0000000000000E-02  6.0296147959837E-02 -3.0595498878231E-02
     9  8.0000000000000E-02  7.8533124307064E-02 -3.9870761529917E-02
    10  9.0000000000000E-02  9.9073670693287E-02 -5.0322940371809E-02
    11  1.0000000000000E-01  1.2186771678690E-01 -6.1923344724150E-02
    12  1.1000000000000E-01  1.4685822239595E-01 -7.4636570729543E-02
    13  1.2000000000000E-01  1.7398091608146E-01 -8.8419648491043E-02
    14  1.3000000000000E-01  2.0316405357939E-01 -1.0322122393939E-01
    15  1.4000000000000E-01  2.3432820727827E-01 -1.1898080469841E-01
    16  1.5000000000000E-01  2.6738609779932E-01 -1.3562809853481E-01
    17  1.6000000000000E-01  3.0224247825845E-01 -1.5308247157491E-01
    18  1.7000000000000E-01  3.3879408106266E-01 -1.7125255137217E-01
    19  1.8000000000000E-01  3.7692963612073E-01 -1.9003599715538E-01
    20  1.9000000000000E-01  4.1652996814826E-01 -2.0931945623467E-01
    21  2.0000000000000E-01  4.5746817934435E-01 -2.2897872166129E-01
    22  2.1000000000000E-01  4.9960992213928E-01 -2.4887910190890E-01
    23  2.2000000000000E-01  5.4281376499331E-01 -2.6887600866383E-01
    24  2.3000000000000E-01  5.8693165240059E-01 -2.8881576388088E-01
    25  2.4000000000000E-01  6.3180945835834E-01 -3.0853662218896E-01
    26  2.5000000000000E-01  6.7728763064064E-01 -3.2786999963185E-01
    27  2.6000000000000E-01  7.2320192130827E-01 -3.4664189471759E-01
    28  2.7000000000000E-01  7.6938419703411E-01 -3.6467448294248E-01
    29  2.8000000000000E-01  8.1566332106632E-01 -3.8178786146268E-01
    30  2.9000000000000E-01  8.6186609702953E-01 -3.9780191651637E-01
    31  3.0000000000000E-01  9.0781826331278E-01 -4.1253828264896E-01
    32  3.1000000000000E-01  9.5334552554538E-01 -4.2582235985405E-01
    33  3.2000000000000E-01  9.9827461364791E-01 -4.3748535248711E-01
    34  3.3000000000000E-01  1.0424343491887E+00 -4.4736629230299E-01
    35  3.4000000000000E-01  1.0856567082965E+00 -4.5531400725576E-01
    36  3.5000000000000E-01  1.1277778651914E+00 -4.6118899781339E-01
    37  3.6000000000000E-01  1.1686392015036E+00 -4.6486518349082E-01
    38  3.7000000000000E-01  1.2080882669593E+00 -4.6623148408840E-01
    39  3.8000000000000E-01  1.2459796777160E+00 -4.6519320271491E-01
    40  3.9000000000000E-01  1.2821759396136E+00 -4.6167318103331E-01
    41  4.0000000000000E-01  1.3165481848622E+00 -4.5561270123427E-01
    42  4.1000000000000E-01  1.3489768121816E+00 -4.4697211394184E-01
    43  4.2000000000000E-01  1.3793520221159E+00 -4.3573117649733E-01
    44  4.3000000000000E-01  1.4075742411388E+00 -4.2188909174815E-01
    45  4.4000000000000E-01  1.4335544301972E+00 -4.0546424347271E-01
    46  4.5000000000000E-01  1.4572142754791E+00 -3.8649363077792E-01
    47  4.6000000000000E-01  1.4784862613863E+00 -3.6503201008127E-01
    48  4.7000000000000E-01  1.4973136279006E+00 -3.4115075950191E-01
    49  4.8000000000000E-01  1.5136502167127E+00 -3.1493648649923E-01
    50  4.9000000000000E-01  1.5274602125762E+00 -2.8648940528045E-01
    51  5.0000000000000E-01  1.5387177883293E+00 -2.5592151572279E-01
    52  5.1000000000000E-01  1.5474066638328E+00 -2.2335462019919E-01
    53  5.2000000000000E-01  1.5535195906764E+00 -1.8891821865009E-01
    54  5.3000000000000E-01  1.5570577758684E+00 -1.5274732540833E-01
    55  5.4000000000000E-01  1.5580302588106E+00 -1.1498025357792E-01
    56  5.5000000000000E-01  1.5564532566485E+00 -7.5756414123424E-02
    57  5.6000000000000E-01  1.5523494935592E+00 -3.5214177198225E-02
    58  5.7000000000000E-01  1.5457475296723E+00  6.5111574001502E-03
    59  5.8000000000000E-01  1.5366811051227E+00  4.9289235418840E-02
    60  5.9000000000000E-01  1.5251885141860E+00  9.2996326416108E-02
    61  6.0000000000000E-01  1.5113120235799E+00  1.3751676616923E-01
    62  6.1000000000000E-01  1.4950973478223E+00  1.8274412882754E-01
    63  6.2000000000000E-01  1.4765931930530E+00  2.2858209978751E-01
    64  6.3000000000000E-01  1.4558508789702E+00  2.7494502637534E-01
    65  6.4000000000000E-01  1.4329240465530E+00  3.2175813015408E-01
    66  6.5000000000000E-01  1.4078684570526E+00  3.6895737189706E-01
    67  6.6000000000000E-01  1.3807418854127E+00  4.1648896784536E-01
    68  6.7000000000000E-01  1.3516041088423E+00  4.6430856364315E-01
    69  6.8000000000000E-01  1.3205169887824E+00  5.1238008016076E-01
    70  6.9000000000000E-01  1.2875446420275E+00  5.6067425310863E-01
    71  7.0000000000000E-01  1.2527536943326E+00  6.0916689575245E-01
    72  7.1000000000000E-01  1.2162136075214E+00  6.5783692099845E-01
    73  7.2000000000000E-01  1.1779970689482E+00  7.0666416547355E-01
    74  7.3000000000000E-01  1.1381804302183E+00  7.5562706383237E-01
    75  7.4000000000000E-01  1.0968441803752E+00  8.0470022624683E-01
    76  7.5000000000000E-01  1.0540734373626E+00  8.5385197575868E-01
    77  7.6000000000000E-01  1.0099584405025E+00  9.0304190479819E-01
    78  7.7000000000000E-01  9.6459502602122E-01  9.5221851161664E-01
    79  7.8000000000000E-01  9.1808506733445E-01  1.0013169775874E+00
    80  7.9000000000000E-01  8.7053686187209E-01  1.0502571452680E+00
    81  8.0000000000000E-01  8.2206544670815E-01  1.0989417547778E+00
    82  8.1000000000000E-01  7.7279282614020E-01  1.1472549924463E+00
    83  8.2000000000000E-01  7.2284809564177E-01  1.1950614008774E+00
    84  8.3000000000000E-01  6.7236744826340E-01  1.2422051936155E+00
    85  8.4000000000000E-01  6.2149405156102E-01  1.2885100105932E+00
    86  8.5000000000000E-01  5.7037778544920E-01  1.3337791425986E+00
    87  8.6000000000000E-01  5.1917483397110E-01  1.3777962442634E+00
    88  8.7000000000000E-01  4.6804712679895E-01  1.4203265457007E+00
    89  8.8000000000000E-01  4.1716162927679E-01  1.4611185630808E+00
    90  8.9000000000000E-01  3.6668948293280E-01  1.4999062983207E+00
    91  9.0000000000000E-01  3.1680500156150E-01  1.5364119078559E+00
    92  9.1000000000000E-01  2.6768453114371E-01  1.5703488103903E+00
    93  9.2000000000000E-01  2.1950518496982E-01  1.6014251937466E+00
    94  9.3000000000000E-01  1.7244346829594E-01  1.6293478717081E+00
    95  9.4000000000000E-01  1.2667380963110E-01  1.6538264332045E+00
    96  9.5000000000000E-01  8.2367018266212E-02  1.6745776185705E+00
    97  9.6000000000000E-01  3.9688689857555E-02  1.6913298510352E+00
    98  9.7000000000000E-01 -1.2024162821632E-03  1.7038278462573E+00
    99  9.8000000000000E-01 -4.0156003096697E-02  1.7118372187196E+00
   100  9.9000000000000E-01 -7.7031838822030E-02  1.7151490012521E+00
   101  1.0000000000000E+00 -1.1170131054229E-01  1.7135839929459E+00
   102  1.0100000000000E+00 -1.4404890163173E-01  1.7069968512941E+00
   103  1.0200000000000E+00 -1.7397356691992E-01  1.6952798465834E+00
   104  1.0300000000000E+00 -2.0138998039068E-01  1.6783662003446E+00
   105  1.0400000000000E+00 -2.2622963169144E-01  1.6562329350071E+00
   106  1.0500000000000E+00 -2.4844174967362E-01  1.6289031687423E+00
   107  1.0600000000000E+00 -2.6799403357239E-01  1.5964477976868E+00
   108  1.0700000000000E+00 -2.8487317523244E-01  1.5589865172115E+00
   109  1.0800000000000E+00 -2.9908515895281E-01  1.5166881444848E+00
   110  1.0900000000000E+00 -3.1065532898867E-01  1.4697702160490E+00
   111  1.1000000000000E+00 -3.1962821848042E-01  1.4184978463734E+00
   112  1.1100000000000E+00 -3.2606713747587E-01  1.3631818460355E+00
   113  1.1200000000000E+00 -3.3005352173858E-01  1.3041761111944E+00
   114  1.1300000000000E+00 -3.3168604808639E-01  1.2418743090277E+00
   115  1.1400000000000E+00 -3.3107952603012E-01  1.1767058966316E+00
   116  1.1500000000000E+00 -3.2836357938660E-01  1.1091315232319E+00
   117  1.1600000000000E+00 -3.2368113526550E-01  1.0396378772394E+00
   118  1.1700000000000E+00 -3.1718674128537E-01  9.6873205041776E-01
   119  1.1800000000000E+00 -3.0904473501499E-01  8.9693550107319E-01
   120  1.1900000000000E+00 -2.9942729237012E-01  8.2477770643972E-01
   121  1.2000000000000E+00 -2.8851238400206E-01  7.5278960125019E-01
   122  1.2100000000000E+00 -2.7648167050632E-01  6.8149690459764E-01
   123  1.2200000000000E+00 -2.6351836855391E-01  6.1141344058268E-01
   124  1.2300000000000E+00 -2.4980512074615E-01  5.4303455975029E-01
   125  1.2400000000000E+00 -2.3552190211641E-01  4.7683076794171E-01
   126  1.2500000000000E+00 -2.2084399572613E-01  4.1324166686415E-01
   127  1.2600000000000E+00 -2.0594006874507E-01  3.5267030648192E-01
   128  1.2700000000000E+00 -1.9097037876625E-01  2.9547804325917E-01
   129  1.2800000000000E+00 -1.7608513791364E-01  2.4197999044204E-01
   130  1.2900000000000E+00 -1.6142305960737E-01  1.9244113713802E-01