Zr    ONCVPSP-4.0.1  r_core=   1.55435   1.55435   1.50855
     40.0000     12.0000      250925    zatom,zion,pspd
     8   -1012   2     4   600     0    pspcod,pspxc,lmax,lloc,mmax,r2well
  5.99000000  5.00000000  0.00000000    rchrg fchrg qchrg
     2     2     2     0    nproj
     3     1           extension_switch
     4     3     0    nprojso
   0                         1.0466761295635E+01  8.3312986253356E-01
     1  0.0000000000000E+00  4.9244697208906E-10 -1.9139374529686E-09
     2  1.0000000000000E-02  5.3229914898908E-02 -2.0986312104106E-02
     3  2.0000000000000E-02  1.0640915718681E-01 -4.1959412088067E-02
     4  3.0000000000000E-02  1.5948675923018E-01 -6.2904959746505E-02
     5  4.0000000000000E-02  2.1241117035437E-01 -8.3806384170802E-02
     6  5.0000000000000E-02  2.6512998270411E-01 -1.0464383156368E-01
     7  6.0000000000000E-02  3.1758967760283E-01 -1.2539318745734E-01
     8  7.0000000000000E-02  3.6973539865296E-01 -1.4602519583830E-01
     9  8.0000000000000E-02  4.2151075732745E-01 -1.6650469576795E-01
    10  9.0000000000000E-02  4.7285767620349E-01 -1.8678999376450E-01
    11  1.0000000000000E-01  5.2371627429596E-01 -2.0683238752225E-01
    12  1.1000000000000E-01  5.7402479817080E-01 -2.2657585354020E-01
    13  1.2000000000000E-01  6.2371960167343E-01 -2.4595690796974E-01
    14  1.3000000000000E-01  6.7273517620792E-01 -2.6490464653366E-01
    15  1.4000000000000E-01  7.2100423256684E-01 -2.8334096578102E-01
    16  1.5000000000000E-01  7.6845783435547E-01 -3.0118096429384E-01
    17  1.6000000000000E-01  8.1502558209518E-01 -3.1833351882146E-01
    18  1.7000000000000E-01  8.6063584614686E-01 -3.3470202675775E-01
    19  1.8000000000000E-01  9.0521604568332E-01 -3.5018530296322E-01
    20  1.9000000000000E-01  9.4869297007625E-01 -3.6467861573497E-01
    21  2.0000000000000E-01  9.9099313826493E-01 -3.7807484380707E-01
    22  2.1000000000000E-01  1.0320431909543E+00 -3.9026573367592E-01
    23  2.2000000000000E-01  1.0717703098639E+00 -4.0114323434735E-01
    24  2.3000000000000E-01  1.1101026577261E+00 -4.1060088483304E-01
    25  2.4000000000000E-01  1.1469698323244E+00 -4.1853522842623E-01
    26  2.5000000000000E-01  1.1823033275760E+00 -4.2484722698453E-01
    27  2.6000000000000E-01  1.2160369945040E+00 -4.2944364816300E-01
    28  2.7000000000000E-01  1.2481074949155E+00 -4.3223839878211E-01
    29  2.8000000000000E-01  1.2784547407063E+00 -4.3315377828233E-01
    30  2.9000000000000E-01  1.3070223119445E+00 -4.3212162750059E-01
    31  3.0000000000000E-01  1.3337578472463E+00 -4.2908434978284E-01
    32  3.1000000000000E-01  1.3586134004340E+00 -4.2399578369270E-01
    33  3.2000000000000E-01  1.3815457580591E+00 -4.1682190924972E-01
    34  3.3000000000000E-01  1.4025167130619E+00 -4.0754137268515E-01
    35  3.4000000000000E-01  1.4214932906209E+00 -3.9614581808377E-01
    36  3.5000000000000E-01  1.4384479230965E+00 -3.8264001792649E-01
    37  3.6000000000000E-01  1.4533585718870E+00 -3.6704179839123E-01
    38  3.7000000000000E-01  1.4662087949686E+00 -3.4938175924078E-01
    39  3.8000000000000E-01  1.4769877598692E+00 -3.2970279214743E-01
    40  3.9000000000000E-01  1.4856902028074E+00 -3.0805940530321E-01
    41  4.0000000000000E-01  1.4923163357039E+00 -2.8451686605885E-01
    42  4.1000000000000E-01  1.4968717037086E+00 -2.5915017705542E-01
    43  4.2000000000000E-01  1.4993669967804E+00 -2.3204290477947E-01
    44  4.3000000000000E-01  1.4998178196828E+00 -2.0328588261971E-01
    45  4.4000000000000E-01  1.4982444255014E+00 -1.7297581326611E-01
    46  4.5000000000000E-01  1.4946714184371E+00 -1.4121379760976E-01
    47  4.6000000000000E-01  1.4891274321666E+00 -1.0810381912539E-01
    48  4.7000000000000E-01  1.4816447904784E+00 -7.3751214006632E-02
    49  4.8000000000000E-01  1.4722591571818E+00 -3.8261158039122E-02
    50  4.9000000000000E-01  1.4610091824343E+00 -1.7372013233692E-03
    51  5.0000000000000E-01  1.4479361526491E+00  3.5720118522027E-02
    52  5.1000000000000E-01  1.4330836510088E+00  7.4014555130164E-02
    53  5.2000000000000E-01  1.4164972353438E+00  1.1305529626290E-01
    54  5.3000000000000E-01  1.3982241397233E+00  1.5275794518280E-01
    55  5.4000000000000E-01  1.3783130055704E+00  1.9304531770144E-01
    56  5.5000000000000E-01  1.3568136474488E+00  2.3384803537886E-01
    57  5.6000000000000E-01  1.3337768579007E+00  2.7510489908494E-01
    58  5.7000000000000E-01  1.3092542548437E+00  3.1676303125347E-01
    59  5.8000000000000E-01  1.2832981740878E+00  3.5877777959117E-01
    60  5.9000000000000E-01  1.2559616085145E+00  4.0111237967069E-01
    61  6.0000000000000E-01  1.2272981944029E+00  4.4373737865490E-01
    62  6.1000000000000E-01  1.1973622442971E+00  4.8662982728378E-01
    63  6.2000000000000E-01  1.1662088247167E+00  5.2977225211302E-01
    64  6.3000000000000E-01  1.1338938759360E+00  5.7315142473509E-01
    65  6.4000000000000E-01  1.1004743700105E+00  6.1675694924910E-01
    66  6.5000000000000E-01  1.0660085022465E+00  6.6057969348478E-01
    67  6.6000000000000E-01  1.0305559103996E+00  7.0461009334471E-01
    68  6.7000000000000E-01  9.9417791507063E-01  7.4883636302899E-01
    69  6.8000000000000E-01  9.5693777406770E-01  7.9324264677262E-01
    70  6.9000000000000E-01  9.1890094292720E-01  8.3780714999669E-01
    71  7.0000000000000E-01  8.8013533335363E-01  8.8250028939304E-01
    72  7.1000000000000E-01  8.4071156105750E-01  9.2728290238541E-01
    73  7.2000000000000E-01  8.0070317435062E-01  9.7210455660544E-01
    74  7.3000000000000E-01  7.6018685490459E-01  1.0169019994706E+00
    75  7.4000000000000E-01  7.1924258229474E-01  1.0615977866430E+00
    76  7.5000000000000E-01  6.7795375433640E-01  1.1060991260955E+00
    77  7.6000000000000E-01  6.3640725577127E-01  1.1502969717274E+00
    78  7.7000000000000E-01  5.9469346857131E-01  1.1940653969973E+00
    79  7.8000000000000E-01  5.5290621798765E-01  1.2372612749133E+00
    80  7.9000000000000E-01  5.1114264946827E-01  1.2797242860110E+00
    81  8.0000000000000E-01  4.6950303268847E-01  1.3212772707143E+00
    82  8.1000000000000E-01  4.2809049016189E-01  1.3617269368064E+00
    83  8.2000000000000E-01  3.8701064920952E-01  1.4008649267211E+00
    84  8.3000000000000E-01  3.4637121743733E-01  1.4384692430999E+00
    85  8.4000000000000E-01  3.0628148328633E-01  1.4743060246494E+00
    86  8.5000000000000E-01  2.6685174464864E-01  1.5081316578900E+00
    87  8.6000000000000E-01  2.2819266996365E-01  1.5396952040175E+00
    88  8.7000000000000E-01  1.9041459759454E-01  1.5687411139203E+00
    89  8.8000000000000E-01  1.5362678061227E-01  1.5950121985167E+00
    90  8.9000000000000E-01  1.1793658535633E-01  1.6182528161073E+00
    91  9.0000000000000E-01  8.3448653276334E-02  1.6382122334810E+00
    92  9.1000000000000E-01  5.0264036562632E-02  1.6546481131635E+00
    93  9.2000000000000E-01  1.8479318928518E-02  1.6673300755488E+00
    94  9.3000000000000E-01 -1.1814266408523E-02  1.6760432817734E+00
    95  9.4000000000000E-01 -4.0531708997140E-02  1.6805919811572E+00
    96  9.5000000000000E-01 -6.7595070820425E-02  1.6808029658884E+00
    97  9.6000000000000E-01 -9.2934300409621E-02  1.6765288754104E+00
    98  9.7000000000000E-01 -1.1648799856423E-01  1.6676512937078E+00
    99  9.8000000000000E-01 -1.3820412316760E-01  1.6540835843802E+00
   100  9.9000000000000E-01 -1.5804062112862E-01  1.6357734110354E+00
   101  1.0000000000000E+00 -1.7596597623022E-01  1.6127048941068E+00
   102  1.0100000000000E+00 -1.9195966261562E-01  1.5849003596418E+00
   103  1.0200000000000E+00 -2.0601249478221E-01  1.5524216408893E+00
   104  1.0300000000000E+00 -2.1812686626373E-01  1.5153708995393E+00
   105  1.0400000000000E+00 -2.2831687064666E-01  1.4738909401571E+00
   106  1.0500000000000E+00 -2.3660830016556E-01  1.4281649986185E+00
   107  1.0600000000000E+00 -2.4303851882770E-01  1.3784159930685E+00
   108  1.0700000000000E+00 -2.4765620880614E-01  1.3249052339744E+00
   109  1.0800000000000E+00 -2.5052099068498E-01  1.2679305981210E+00
   110  1.0900000000000E+00 -2.5170292000454E-01  1.2078241797190E+00
   111  1.1000000000000E+00 -2.5128186442102E-01  1.1449494401038E+00
   112  1.1100000000000E+00 -2.4934676761647E-01  1.0796978855719E+00
   113  1.1200000000000E+00 -2.4599480785788E-01  1.0124853106743E+00
   114  1.1300000000000E+00 -2.4133046076448E-01  9.4374765157445E-01
   115  1.1400000000000E+00 -2.3546447738226E-01  8.7393650079007E-01
   116  1.1500000000000E+00 -2.2851279004931E-01  8.0351434063432E-01
   117  1.1600000000000E+00 -2.2059535974705E-01  7.3294955786043E-01
   118  1.1700000000000E+00 -2.1183497964186E-01  6.6271130627988E-01
   119  1.1800000000000E+00 -2.0235605031719E-01  5.9326428741054E-01
   120  1.1900000000000E+00 -1.9228334275507E-01  5.2506352142108E-01
   121  1.2000000000000E+00 -1.8174076544232E-01  4.5854918174805E-01
   122  1.2100000000000E+00 -1.7085015203841E-01  3.9414156672335E-01
   123  1.2200000000000E+00 -1.5973008584644E-01  3.3223628035003E-01
   124  1.2300000000000E+00 -1.4849477687612E-01  2.7319969201410E-01
   125  1.2400000000000E+00 -1.3725300658436E-01  2.1736474144544E-01
   126  1.2500000000000E+00 -1.2610715442649E-01  1.6502715065332E-01
   127  1.2600000000000E+00 -1.1515231917540E-01  1.1644209898765E-01
   128  1.2700000000000E+00 -1.0447554656883E-01  7.1821410915452E-02
   129  1.2800000000000E+00 -9.4155173253853E-02  3.1331298691489E-02
   130  1.2900000000000E+00 -8.4260295244637E-02 -4.9093060192825E-03
   131  1.3000000000000E+00 -7.4850367200887E-02 -3.6829806308328E-02
   132  1.3100000000000E+00 -6.5974936817482E-02 -6.4408363980471E-02
   133  1.3200000000000E+00 -5.7673516518358E-02 -8.7671686899593E-02
   134  1.3300000000000E+00 -4.9975592496312E-02 -1.0669418313423E-01
   135  1.3400000000000E+00 -4.2900768970962E-02 -1.2159649518031E-01
   136  1.3500000000000E+00 -3.6459043390883E-02 -1.3254343727105E-01
   137  1.3600000000000E+00 -3.0651206215989E-02 -1.3974136823546E-01
   138  1.3700000000000E+00 -2.5469356901179E-02 -1.4343504145255E-01
   139  1.3800000000000E+00 -2.0897525818797E-02 -1.4390398191383E-01
   140  1.3900000000000E+00 -1.6912390118804E-02 -1.4145844819325E-01
   141  1.4000000000000E+00 -1.3484069969280E-02 -1.3643504406301E-01
   142  1.4100000000000E+00 -1.0576990265048E-02 -1.2919205050125E-01
   143  1.4200000000000E+00 -8.1507917666112E-03 -1.2010455378897E-01
   144  1.4300000000000E+00 -6.1612747322283E-03 -1.0955944933323E-01
   145  1.4400000000000E+00 -4.5613571342628E-03 -9.7950405458715E-02
   146  1.4500000000000E+00 -3.3020334664468E-03 -8.5672841139968E-02
   147  1.4600000000000E+00 -2.3333119749418E-03 -7.3119106135840E-02
   148  1.4700000000000E+00 -1.6055183429006E-03 -6.0671247955397E-02
   149  1.4800000000000E+00 -1.0723822795038E-03 -4.8686326866283E-02
   150  1.4900000000000E+00 -6.9703999070714E-04 -3.7475099619401E-02
   151  1.5000000000000E+00 -4.4127527183634E-04 -2.7331053529802E-02
   152  1.5100000000000E+00 -2.7024758039028E-04 -1.8516136269859E-02
   153  1.5200000000000E+00 -1.5642776943127E-04 -1.1248073979160E-02
   154  1.5300000000000E+00 -8.0128253725344E-05 -5.6992365704059E-03
   155  1.5400000000000E+00 -2.9667567593242E-05 -1.9749096430176E-03
   156  1.5500000000000E+00 -3.7497100474077E-06 -2.2151021366661E-04
   157  1.5600000000000E+00  5.8657346387781E-07  3.2857032531521E-05
   158  1.5700000000000E+00 -1.6396407230936E-07 -9.7478802817037E-06
   159  1.58  0.  0.
   160  1.59  0.  0.
   161  1.60  0.  0.
   162  1.61  0.  0.
   163  1.62  0.  0.
   164  1.63  0.  0.
   165  1.64  0.  0.
   166  1.65  0.  0.
   167  1.66  0.  0.
   168  1.67  0.  0.
   169  1.68  0.  0.
   170  1.69  0.  0.
   171  1.70  0.  0.
   172  1.71  0.  0.
   173  1.72  0.  0.
   174  1.73  0.  0.
   175  1.74  0.  0.
   176  1.75  0.  0.
   177  1.76  0.  0.
   178  1.77  0.  0.
   179  1.78  0.  0.
   180  1.79  0.  0.
   181  1.80  0.  0.
   182  1.81  0.  0.
   183  1.82  0.  0.
   184  1.83  0.  0.
   185  1.84  0.  0.
   186  1.85  0.  0.
   187  1.86  0.  0.
   188  1.87  0.  0.
   189  1.88  0.  0.
   190  1.89  0.  0.
   191  1.90  0.  0.
   192  1.91  0.  0.
   193  1.92  0.  0.
   194  1.93  0.  0.
   195  1.94  0.  0.
   196  1.95  0.  0.
   197  1.96  0.  0.
   198  1.97  0.  0.
   199  1.98  0.  0.
   200  1.99  0.  0.
   201  2.00  0.  0.
   202  2.01  0.  0.
   203  2.02  0.  0.
   204  2.03  0.  0.
   205  2.04  0.  0.
   206  2.05  0.  0.
   207  2.06  0.  0.
   208  2.07  0.  0.
   209  2.08  0.  0.
   210  2.09  0.  0.
   211  2.10  0.  0.
   212  2.11  0.  0.
   213  2.12  0.  0.
   214  2.13  0.  0.
   215  2.14  0.  0.
   216  2.15  0.  0.
   217  2.16  0.  0.
   218  2.17  0.  0.
   219  2.18  0.  0.
   220  2.19  0.  0.
   221  2.20  0.  0.
   222  2.21  0.  0.
   223  2.22  0.  0.
   224  2.23  0.  0.
   225  2.24  0.  0.
   226  2.25  0.  0.
   227  2.26  0.  0.
   228  2.27  0.  0.
   229  2.28  0.  0.
   230  2.29  0.  0.
   231  2.30  0.  0.
   232  2.31  0.  0.
   233  2.32  0.  0.
   234  2.33  0.  0.
   235  2.34  0.  0.
   236  2.35  0.  0.
   237  2.36  0.  0.
   238  2.37  0.  0.
   239  2.38  0.  0.
   240  2.39  0.  0.
   241  2.40  0.  0.
   242  2.41  0.  0.
   243  2.42  0.  0.
   244  2.43  0.  0.
   245  2.44  0.  0.
   246  2.45  0.  0.
   247  2.46  0.  0.
   248  2.47  0.  0.
   249  2.48  0.  0.
   250  2.49  0.  0.
   251  2.50  0.  0.
   252  2.51  0.  0.
   253  2.52  0.  0.
   254  2.53  0.  0.
   255  2.54  0.  0.
   256  2.55  0.  0.
   257  2.56  0.  0.
   258  2.57  0.  0.
   259  2.58  0.  0.
   260  2.59  0.  0.
   261  2.60  0.  0.
   262  2.61  0.  0.
   263  2.62  0.  0.
   264  2.63  0.  0.
   265  2.64  0.  0.
   266  2.65  0.  0.
   267  2.66  0.  0.
   268  2.67  0.  0.
   269  2.68  0.  0.
   270  2.69  0.  0.
   271  2.70  0.  0.
   272  2.71  0.  0.
   273  2.72  0.  0.
   274  2.73  0.  0.
   275  2.74  0.  0.
   276  2.75  0.  0.
   277  2.76  0.  0.
   278  2.77  0.  0.
   279  2.78  0.  0.
   280  2.79  0.  0.
   281  2.80  0.  0.
   282  2.81  0.  0.
   283  2.82  0.  0.
   284  2.83  0.  0.
   285  2.84  0.  0.
   286  2.85  0.  0.
   287  2.86  0.  0.
   288  2.87  0.  0.
   289  2.88  0.  0.
   290  2.89  0.  0.
   291  2.90  0.  0.
   292  2.91  0.  0.
   293  2.92  0.  0.
   294  2.93  0.  0.
   295  2.94  0.  0.
   296  2.95  0.  0.
   297  2.96  0.  0.
   298  2.97  0.  0.
   299  2.98  0.  0.
   300  2.99  0.  0.
   301  3.00  0.  0.
   302  3.01  0.  0.
   303  3.02  0.  0.
   304  3.03  0.  0.
   305  3.04  0.  0.
   306  3.05  0.  0.
   307  3.06  0.  0.
   308  3.07  0.  0.
   309  3.08  0.  0.
   310  3.09  0.  0.
   311  3.10  0.  0.
   312  3.11  0.  0.
   313  3.12  0.  0.
   314  3.13  0.  0.
   315  3.14  0.  0.
   316  3.15  0.  0.
   317  3.16  0.  0.
   318  3.17  0.  0.
   319  3.18  0.  0.
   320  3.19  0.  0.
   321  3.20  0.  0.
   322  3.21  0.  0.
   323  3.22  0.  0.
   324  3.23  0.  0.
   325  3.24  0.  0.
   326  3.25  0.  0.
   327  3.26  0.  0.
   328  3.27  0.  0.
   329  3.28  0.  0.
   330  3.29  0.  0.
   331  3.30  0.  0.
   332  3.31  0.  0.
   333  3.32  0.  0.
   334  3.33  0.  0.
   335  3.34  0.  0.
   336  3.35  0.  0.
   337  3.36  0.  0.
   338  3.37  0.  0.
   339  3.38  0.  0.
   340  3.39  0.  0.
   341  3.40  0.  0.
   342  3.41  0.  0.
   343  3.42  0.  0.
   344  3.43  0.  0.
   345  3.44  0.  0.
   346  3.45  0.  0.
   347  3.46  0.  0.
   348  3.47  0.  0.
   349  3.48  0.  0.
   350  3.49  0.  0.
   351  3.50  0.  0.
   352  3.51  0.  0.
   353  3.52  0.  0.
   354  3.53  0.  0.
   355  3.54  0.  0.
   356  3.55  0.  0.
   357  3.56  0.  0.
   358  3.57  0.  0.
   359  3.58  0.  0.
   360  3.59  0.  0.
   361  3.60  0.  0.
   362  3.61  0.  0.
   363  3.62  0.  0.
   364  3.63  0.  0.
   365  3.64  0.  0.
   366  3.65  0.  0.
   367  3.66  0.  0.
   368  3.67  0.  0.
   369  3.68  0.  0.
   370  3.69  0.  0.
   371  3.70  0.  0.
   372  3.71  0.  0.
   373  3.72  0.  0.
   374  3.73  0.  0.
   375  3.74  0.  0.
   376  3.75  0.  0.
   377  3.76  0.  0.
   378  3.77  0.  0.
   379  3.78  0.  0.
   380  3.79  0.  0.
   381  3.80  0.  0.
   382  3.81  0.  0.
   383  3.82  0.  0.
   384  3.83  0.  0.
   385  3.84  0.  0.
   386  3.85  0.  0.
   387  3.86  0.  0.
   388  3.87  0.  0.
   389  3.88  0.  0.
   390  3.89  0.  0.
   391  3.90  0.  0.
   392  3.91  0.  0.
   393  3.92  0.  0.
   394  3.93  0.  0.
   395  3.94  0.  0.
   396  3.95  0.  0.
   397  3.96  0.  0.
   398  3.97  0.  0.
   399  3.98  0.  0.
   400  3.99  0.  0.
   401  4.00  0.  0.
   402  4.01  0.  0.
   403  4.02  0.  0.
   404  4.03  0.  0.
   405  4.04  0.  0.
   406  4.05  0.  0.
   407  4.06  0.  0.
   408  4.07  0.  0.
   409  4.08  0.  0.
   410  4.09  0.  0.
   411  4.10  0.  0.
   412  4.11  0.  0.
   413  4.12  0.  0.
   414  4.13  0.  0.
   415  4.14  0.  0.
   416  4.15  0.  0.
   417  4.16  0.  0.
   418  4.17  0.  0.
   419  4.18  0.  0.
   420  4.19  0.  0.
   421  4.20  0.  0.
   422  4.21  0.  0.
   423  4.22  0.  0.
   424  4.23  0.  0.
   425  4.24  0.  0.
   426  4.25  0.  0.
   427  4.26  0.  0.
   428  4.27  0.  0.
   429  4.28  0.  0.
   430  4.29  0.  0.
   431  4.30  0.  0.
   432  4.31  0.  0.
   433  4.32  0.  0.
   434  4.33  0.  0.
   435  4.34  0.  0.
   436  4.35  0.  0.
   437  4.36  0.  0.
   438  4.37  0.  0.
   439  4.38  0.  0.
   440  4.39  0.  0.
   441  4.40  0.  0.
   442  4.41  0.  0.
   443  4.42  0.  0.
   444  4.43  0.  0.
   445  4.44  0.  0.
   446  4.45  0.  0.
   447  4.46  0.  0.
   448  4.47  0.  0.
   449  4.48  0.  0.
   450  4.49  0.  0.
   451  4.50  0.  0.
   452  4.51  0.  0.
   453  4.52  0.  0.
   454  4.53  0.  0.
   455  4.54  0.  0.
   456  4.55  0.  0.
   457  4.56  0.  0.
   458  4.57  0.  0.
   459  4.58  0.  0.
   460  4.59  0.  0.
   461  4.60  0.  0.
   462  4.61  0.  0.
   463  4.62  0.  0.
   464  4.63  0.  0.
   465  4.64  0.  0.
   466  4.65  0.  0.
   467  4.66  0.  0.
   468  4.67  0.  0.
   469  4.68  0.  0.
   470  4.69  0.  0.
   471  4.70  0.  0.
   472  4.71  0.  0.
   473  4.72  0.  0.
   474  4.73  0.  0.
   475  4.74  0.  0.
   476  4.75  0.  0.
   477  4.76  0.  0.
   478  4.77  0.  0.
   479  4.78  0.  0.
   480  4.79  0.  0.
   481  4.80  0.  0.
   482  4.81  0.  0.
   483  4.82  0.  0.
   484  4.83  0.  0.
   485  4.84  0.  0.
   486  4.85  0.  0.
   487  4.86  0.  0.
   488  4.87  0.  0.
   489  4.88  0.  0.
   490  4.89  0.  0.
   491  4.90  0.  0.
   492  4.91  0.  0.
   493  4.92  0.  0.
   494  4.93  0.  0.
   495  4.94  0.  0.
   496  4.95  0.  0.
   497  4.96  0.  0.
   498  4.97  0.  0.
   499  4.98  0.  0.
   500  4.99  0.  0.
   501  5.00  0.  0.
   502  5.01  0.  0.
   503  5.02  0.  0.
   504  5.03  0.  0.
   505  5.04  0.  0.
   506  5.05  0.  0.
   507  5.06  0.  0.
   508  5.07  0.  0.
   509  5.08  0.  0.
   510  5.09  0.  0.
   511  5.10  0.  0.
   512  5.11  0.  0.
   513  5.12  0.  0.
   514  5.13  0.  0.
   515  5.14  0.  0.
   516  5.15  0.  0.
   517  5.16  0.  0.
   518  5.17  0.  0.
   519  5.18  0.  0.
   520  5.19  0.  0.
   521  5.20  0.  0.
   522  5.21  0.  0.
   523  5.22  0.  0.
   524  5.23  0.  0.
   525  5.24  0.  0.
   526  5.25  0.  0.
   527  5.26  0.  0.
   528  5.27  0.  0.
   529  5.28  0.  0.
   530  5.29  0.  0.
   531  5.30  0.  0.
   532  5.31  0.  0.
   533  5.32  0.  0.
   534  5.33  0.  0.
   535  5.34  0.  0.
   536  5.35  0.  0.
   537  5.36  0.  0.
   538  5.37  0.  0.
   539  5.38  0.  0.
   540  5.39  0.  0.
   541  5.40  0.  0.
   542  5.41  0.  0.
   543  5.42  0.  0.
   544  5.43  0.  0.
   545  5.44  0.  0.
   546  5.45  0.  0.
   547  5.46  0.  0.
   548  5.47  0.  0.
   549  5.48  0.  0.
   550  5.49  0.  0.
   551  5.50  0.  0.
   552  5.51  0.  0.
   553  5.52  0.  0.
   554  5.53  0.  0.
   555  5.54  0.  0.
   556  5.55  0.  0.
   557  5.56  0.  0.
   558  5.57  0.  0.
   559  5.58  0.  0.
   560  5.59  0.  0.
   561  5.60  0.  0.
   562  5.61  0.  0.
   563  5.62  0.  0.
   564  5.63  0.  0.
   565  5.64  0.  0.
   566  5.65  0.  0.
   567  5.66  0.  0.
   568  5.67  0.  0.
   569  5.68  0.  0.
   570  5.69  0.  0.
   571  5.70  0.  0.
   572  5.71  0.  0.
   573  5.72  0.  0.
   574  5.73  0.  0.
   575  5.74  0.  0.
   576  5.75  0.  0.
   577  5.76  0.  0.
   578  5.77  0.  0.
   579  5.78  0.  0.
   580  5.79  0.  0.
   581  5.80  0.  0.
   582  5.81  0.  0.
   583  5.82  0.  0.
   584  5.83  0.  0.
   585  5.84  0.  0.
   586  5.85  0.  0.
   587  5.86  0.  0.
   588  5.87  0.  0.
   589  5.88  0.  0.
   590  5.89  0.  0.
   591  5.90  0.  0.
   592  5.91  0.  0.
   593  5.92  0.  0.
   594  5.93  0.  0.
   595  5.94  0.  0.
   596  5.95  0.  0.
   597  5.96  0.  0.
   598  5.97  0.  0.
   599  5.98  0.  0.
   600  5.99  0.  0.
   1                         5.7554254318751E+00  7.0667013051659E-01
     1  0.0000000000000E+00 -1.4475375897938E-09  3.8782171779550E-09
     2  1.0000000000000E-02  1.2484719024014E-03 -6.2370438289967E-04
     3  2.0000000000000E-02  4.9911869020244E-03 -2.4940433054091E-03
     4  3.0000000000000E-02  1.1220016841528E-02 -5.6086148257918E-03
     5  4.0000000000000E-02  1.9921328892424E-02 -9.9631538801605E-03
     6  5.0000000000000E-02  3.1075859773715E-02 -1.5551147823979E-02
     7  6.0000000000000E-02  4.4658545721106E-02 -2.2363314552002E-02
     8  7.0000000000000E-02  6.0638314101526E-02 -3.0386959087394E-02
     9  8.0000000000000E-02  7.8977844015224E-02 -3.9605228408996E-02
    10  9.0000000000000E-02  9.9633304505012E-02 -4.9996287688688E-02
    11  1.0000000000000E-01  1.2255408006871E-01 -6.1532443953617E-02
    12  1.1000000000000E-01  1.4768249402083E-01 -7.4179245400439E-02
    13  1.2000000000000E-01  1.7495354085195E-01 -8.7894586112636E-02
    14  1.3000000000000E-01  2.0429463907313E-01 -1.0262784672670E-01
    15  1.4000000000000E-01  2.3562541609858E-01 -1.1831910163193E-01
    16  1.5000000000000E-01  2.6885753650840E-01 -1.3489842256497E-01
    17  1.6000000000000E-01  3.0389458454597E-01 -1.5228530698153E-01
    18  1.7000000000000E-01  3.4063201095113E-01 -1.7038825738181E-01
    19  1.8000000000000E-01  3.7895715322229E-01 -1.8910453487435E-01
    20  1.9000000000000E-01  4.1874933716032E-01 -2.0832010674594E-01
    21  2.0000000000000E-01  4.5988006609656E-01 -2.2790980373534E-01
    22  2.1000000000000E-01  5.0221330257830E-01 -2.4773769817278E-01
    23  2.2000000000000E-01  5.4560584551018E-01 -2.6765770924477E-01
    24  2.3000000000000E-01  5.8990780386621E-01 -2.8751443648101E-01
    25  2.4000000000000E-01  6.3496316613506E-01 -3.0714421725256E-01
    26  2.5000000000000E-01  6.8061046268144E-01 -3.2637639873708E-01
    27  2.6000000000000E-01  7.2668351624268E-01 -3.4503480956861E-01
    28  2.7000000000000E-01  7.7301227387334E-01 -3.6293941136767E-01
    29  2.8000000000000E-01  8.1942371184487E-01 -3.7990810565888E-01
    30  2.9000000000000E-01  8.6574280334103E-01 -3.9575866744011E-01
    31  3.0000000000000E-01  9.1179353730179E-01 -4.1031077297191E-01
    32  3.1000000000000E-01  9.5739997549093E-01 -4.2338808630216E-01
    33  3.2000000000000E-01  1.0023873338281E+00 -4.3482036670717E-01
    34  3.3000000000000E-01  1.0465830732569E+00 -4.4444555768216E-01
    35  3.4000000000000E-01  1.0898179849393E+00 -4.5211181740067E-01
    36  3.5000000000000E-01  1.1319272543837E+00 -4.5767945071319E-01
    37  3.6000000000000E-01  1.1727514892418E+00 -4.6102270378510E-01
    38  3.7000000000000E-01  1.2121376959422E+00 -4.6203138437408E-01
    39  3.8000000000000E-01  1.2499401910714E+00 -4.6061227349420E-01
    40  3.9000000000000E-01  1.2860214344388E+00 -4.5669029776169E-01
    41  4.0000000000000E-01  1.3202527720719E+00 -4.5020943600470E-01
    42  4.1000000000000E-01  1.3525150789391E+00 -4.4113333866618E-01
    43  4.2000000000000E-01  1.3826992929739E+00 -4.2944564403989E-01
    44  4.3000000000000E-01  1.4107068339344E+00 -4.1514998134632E-01
    45  4.4000000000000E-01  1.4364499027374E+00 -3.9826965695639E-01
    46  4.5000000000000E-01  1.4598516591201E+00 -3.7884702657723E-01
    47  4.6000000000000E-01  1.4808462777509E+00 -3.5694256278886E-01
    48  4.7000000000000E-01  1.4993788851938E+00 -3.3263363382340E-01
    49  4.8000000000000E-01  1.5154053823793E+00 -3.0601301576778E-01
    50  4.9000000000000E-01  1.5288921593976E+00 -2.7718716630786E-01
    51  5.0000000000000E-01  1.5398157114679E+00 -2.4627429358256E-01
    52  5.1000000000000E-01  1.5481621667964E+00 -2.1340225855382E-01
    53  5.2000000000000E-01  1.5539267386883E+00 -1.7870635340807E-01
    54  5.3000000000000E-01  1.5571131156713E+00 -1.4232700178384E-01
    55  5.4000000000000E-01  1.5577328045055E+00 -1.0440742898361E-01
    56  5.5000000000000E-01  1.5558044417571E+00 -6.5091351705508E-02
    57  5.6000000000000E-01  1.5513530900850E+00 -2.4520737175590E-02
    58  5.7000000000000E-01  1.5444095355212E+00  1.7166319155667E-02
    59  5.8000000000000E-01  1.5350096018035E+00  5.9837549973277E-02
    60  5.9000000000000E-01  1.5231934972452E+00  1.0336826197000E-01
    61  6.0000000000000E-01  1.5090052087169E+00  1.4764283053419E-01
    62  6.1000000000000E-01  1.4924919560706E+00  1.9255590735549E-01
    63  6.2000000000000E-01  1.4737037187935E+00  2.3801331071855E-01
    64  6.3000000000000E-01  1.4526928448580E+00  2.8393257469056E-01
    65  6.4000000000000E-01  1.4295137496737E+00  3.3024314049215E-01
    66  6.5000000000000E-01  1.4042227107863E+00  3.7688618093612E-01
    67  6.6000000000000E-01  1.3768777615567E+00  4.2381405677753E-01
    68  6.7000000000000E-01  1.3475386845353E+00  4.7098941198052E-01
    69  6.8000000000000E-01  1.3162671026754E+00  5.1838392310618E-01
    70  6.9000000000000E-01  1.2831266639665E+00  5.6597672609026E-01
    71  7.0000000000000E-01  1.2481833125577E+00  6.1375255143871E-01
    72  7.1000000000000E-01  1.2115056370431E+00  6.6169960615309E-01
    73  7.2000000000000E-01  1.1731652843570E+00  7.0980724734581E-01
    74  7.3000000000000E-01  1.1332374257053E+00  7.5806349836404E-01
    75  7.4000000000000E-01  1.0918012592156E+00  8.0645246317159E-01
    76  7.5000000000000E-01  1.0489405325418E+00  8.5495169861753E-01
    77  7.6000000000000E-01  1.0047440675554E+00  9.0352960694490E-01
    78  7.7000000000000E-01  9.5930626853084E-01  9.5214291237971E-01
    79  7.8000000000000E-01  9.1272759489505E-01  1.0007342858320E+00
    80  7.9000000000000E-01  8.6511497968916E-01  1.0492301806015E+00
    81  8.0000000000000E-01  8.1658217538630E-01  1.0975389395069E+00
    82  8.1000000000000E-01  7.6725000961845E-01  1.1455492300629E+00
    83  8.2000000000000E-01  7.1724653468214E-01  1.1931288592711E+00
    84  8.3000000000000E-01  6.6670705639621E-01  1.2401240133296E+00
    85  8.4000000000000E-01  6.1577402994785E-01  1.2863589602133E+00
    86  8.5000000000000E-01  5.6459681275187E-01  1.3316362447456E+00
    87  8.6000000000000E-01  5.1333126701920E-01  1.3757373966285E+00
    88  8.7000000000000E-01  4.6213920763686E-01  1.4184241620729E+00
    89  8.8000000000000E-01  4.1118769404678E-01  1.4594402593727E+00
    90  8.9000000000000E-01  3.6064816801824E-01  1.4985136481711E+00
    91  9.0000000000000E-01  3.1069544247329E-01  1.5353592914994E+00
    92  9.1000000000000E-01  2.6150654978396E-01  1.5696823791183E+00
    93  9.2000000000000E-01  2.1325946114657E-01  1.6011819704839E+00
    94  9.3000000000000E-01  1.6613169168731E-01  1.6295550060035E+00
    95  9.4000000000000E-01  1.2029880880056E-01  1.6545006263291E+00
    96  9.5000000000000E-01  7.5932863805178E-02  1.6757247314729E+00
    97  9.6000000000000E-01  3.3200769268121E-02  1.6929447046701E+00
    98  9.7000000000000E-01 -7.7373537630427E-03  1.7058942203404E+00
    99  9.8000000000000E-01 -4.6729832901828E-02  1.7143280513305E+00
   100  9.9000000000000E-01 -8.3635079201039E-02  1.7180267879758E+00
   101  1.0000000000000E+00 -1.1832317229351E-01  1.7168013804760E+00
   102  1.0100000000000E+00 -1.5067736858879E-01  1.7104974167010E+00
   103  1.0200000000000E+00 -1.8059550570267E-01  1.6989990498357E+00
   104  1.0300000000000E+00 -2.0799127729606E-01  1.6822324942430E+00
   105  1.0400000000000E+00 -2.3279535400472E-01  1.6601690135149E+00
   106  1.0500000000000E+00 -2.5495632813744E-01  1.6328273318330E+00
   107  1.0600000000000E+00 -2.7444146227155E-01  1.6002754083473E+00
   108  1.0700000000000E+00 -2.9123722474696E-01  1.5626315241837E+00
   109  1.0800000000000E+00 -3.0534959831030E-01  1.5200646427548E+00
   110  1.0900000000000E+00 -3.1680415171703E-01  1.4727940160296E+00
   111  1.1000000000000E+00 -3.2564586792948E-01  1.4210880222144E+00
   112  1.1100000000000E+00 -3.3193872654637E-01  1.3652622335419E+00
   113  1.1200000000000E+00 -3.3576504223159E-01  1.3056767264621E+00
   114  1.1300000000000E+00 -3.3722456506571E-01  1.2427326601004E+00
   115  1.1400000000000E+00 -3.3643335287372E-01  1.1768681622464E+00
   116  1.1500000000000E+00 -3.3352242958691E-01  1.1085535750178E+00
   117  1.1600000000000E+00 -3.2863624751660E-01  1.0382861245432E+00
   118  1.1700000000000E+00 -3.2193097496132E-01  9.6658409020014E-01
   119  1.1800000000000E+00 -3.1357263378782E-01  8.9398055900516E-01
   120  1.1900000000000E+00 -3.0373511442801E-01  8.2101685936366E-01
   121  1.2000000000000E+00 -2.9259809809592E-01  7.4823577549391E-01
   122  1.2100000000000E+00 -2.8034491786275E-01  6.7617464916197E-01
   123  1.2200000000000E+00 -2.6716039152987E-01  6.0535847888922E-01
   124  1.2300000000000E+00 -2.5322865995098E-01  5.3629312835136E-01
   125  1.2400000000000E+00 -2.3873106457372E-01  4.6945875527569E-01
   126  1.2500000000000E+00 -2.2384409747633E-01  4.0530356969944E-01
   127  1.2600000000000E+00 -2.0873745608289E-01  3.4423802605003E-01
   128  1.2700000000000E+00 -1.9357223305116E-01  2.8662954714638E-01
   129  1.2800000000000E+00 -1.7849926956993E-01  2.3279787001394E-01
   130  1.2900000000000E+00 -1.6365769753107E-01  1.8301109353963E-01