S     ONCVPSP-4.0.1  r_core=   1.45687   1.45687   1.60321
     16.0000      6.0000      231019    zatom,zion,pspd
     8       2   2     4   600     0    pspcod,pspxc,lmax,lloc,mmax,r2well
  5.99000000  6.00000000  0.00000000    rchrg fchrg qchrg
     2     2     2     0     0    nproj
     1     1           extension_switch
   0                         6.8388446525992E+00  5.5365472526372E-01
     1  0.0000000000000E+00  2.3783474467631E-08 -1.0825841686990E-07
     2  1.0000000000000E-02  2.8898811201237E-02  4.4034084333203E-02
     3  2.0000000000000E-02  5.8076115121037E-02  8.6636346799534E-02
     4  3.0000000000000E-02  8.7801840142374E-02  1.2641452807295E-01
     5  4.0000000000000E-02  1.1832902077539E-01  1.6205441900227E-01
     6  5.0000000000000E-02  1.4988593135031E-01  1.9235622740062E-01
     7  6.0000000000000E-02  1.8266889881041E-01  2.1626783521676E-01
     8  7.0000000000000E-02  2.1683599205451E-01  2.3291404114595E-01
     9  8.0000000000000E-02  2.5250176149542E-01  2.4162099199692E-01
    10  9.0000000000000E-02  2.8973317399252E-01  2.4193513592214E-01
    11  1.0000000000000E-01  3.2854685585176E-01  2.3363617847138E-01
    12  1.1000000000000E-01  3.6890772103574E-01  2.1674368438643E-01
    13  1.2000000000000E-01  4.1072902404887E-01  1.9151713978240E-01
    14  1.3000000000000E-01  4.5387383817191E-01  1.5844946625734E-01
    15  1.4000000000000E-01  4.9815792086210E-01  1.1825415579391E-01
    16  1.5000000000000E-01  5.4335389025955E-01  7.1846368304509E-02
    17  1.6000000000000E-01  5.8919660087067E-01  2.0318497675135E-02
    18  1.7000000000000E-01  6.3538957360733E-01 -3.5089137231774E-02
    19  1.8000000000000E-01  6.8161230633919E-01 -9.3021687013777E-02
    20  1.9000000000000E-01  7.2752826675721E-01 -1.5204634992610E-01
    21  2.0000000000000E-01  7.7279335031533E-01 -2.1069114419866E-01
    22  2.1000000000000E-01  8.1706457284073E-01 -2.6748482338476E-01
    23  2.2000000000000E-01  8.6000876044896E-01 -3.2099685042939E-01
    24  2.3000000000000E-01  9.0131099887257E-01 -3.6987634209346E-01
    25  2.4000000000000E-01  9.4068261024005E-01 -4.1288892066461E-01
    26  2.5000000000000E-01  9.7786843758428E-01 -4.4895046391718E-01
    27  2.6000000000000E-01  1.0126532356032E+00 -4.7715682567221E-01
    28  2.7000000000000E-01  1.0448669899647E+00 -4.9680870594034E-01
    29  2.8000000000000E-01  1.0743890161214E+00 -5.0743097871220E-01
    30  2.9000000000000E-01  1.1011507214134E+00 -5.0878593359153E-01
    31  3.0000000000000E-01  1.1251369503301E+00 -5.0088005072565E-01
    32  3.1000000000000E-01  1.1463858711968E+00 -4.8396410254252E-01
    33  3.2000000000000E-01  1.1649874022342E+00 -4.5852655601683E-01
    34  3.3000000000000E-01  1.1810802148368E+00 -4.2528043074302E-01
    35  3.4000000000000E-01  1.1948473909536E+00 -3.8514394612783E-01
    36  3.5000000000000E-01  1.2065108485793E+00 -3.3921546073659E-01
    37  3.6000000000000E-01  1.2163246835618E+00 -2.8874336365589E-01
    38  3.7000000000000E-01  1.2245676062729E+00 -2.3509171741523E-01
    39  3.8000000000000E-01  1.2315346773299E+00 -1.7970257072777E-01
    40  3.9000000000000E-01  1.2375285667979E+00 -1.2405595379995E-01
    41  4.0000000000000E-01  1.2428505755541E+00 -6.9628636586760E-02
    42  4.1000000000000E-01  1.2477916653635E+00 -1.7852769207688E-02
    43  4.2000000000000E-01  1.2526237454420E+00  2.9924467379988E-02
    44  4.3000000000000E-01  1.2575914578046E+00  7.2479093800948E-02
    45  4.4000000000000E-01  1.2629046916262E+00  1.0874539246603E-01
    46  4.5000000000000E-01  1.2687320384669E+00  1.3784682025543E-01
    47  4.6000000000000E-01  1.2751953759930E+00  1.5912190503597E-01
    48  4.7000000000000E-01  1.2823657383749E+00  1.7214438796415E-01
    49  4.8000000000000E-01  1.2902605976242E+00  1.7673702468715E-01
    50  4.9000000000000E-01  1.2988426426377E+00  1.7297862633894E-01
    51  5.0000000000000E-01  1.3080201026094E+00  1.6120410124413E-01
    52  5.1000000000000E-01  1.3176486198446E+00  1.4199744573665E-01
    53  5.2000000000000E-01  1.3275346349359E+00  1.1617782251073E-01
    54  5.3000000000000E-01  1.3374402058927E+00  8.4779052381145E-02
    55  5.4000000000000E-01  1.3470891432528E+00  4.9023025222590E-02
    56  5.5000000000000E-01  1.3561743065172E+00  1.0287703336123E-02
    57  5.6000000000000E-01  1.3643658744525E+00 -2.9929458987064E-02
    58  5.7000000000000E-01  1.3713203737876E+00 -7.0051726483046E-02
    59  5.8000000000000E-01  1.3766902283907E+00 -1.0846586649274E-01
    60  5.9000000000000E-01  1.3801335747752E+00 -1.4356636987503E-01
    61  6.0000000000000E-01  1.3813240802391E+00 -1.7379992665279E-01
    62  6.1000000000000E-01  1.3799604973901E+00 -1.9770895768703E-01
    63  6.2000000000000E-01  1.3757756933660E+00 -2.1397301948006E-01
    64  6.3000000000000E-01  1.3685449036654E+00 -2.2144694670715E-01
    65  6.4000000000000E-01  1.3580929788972E+00 -2.1919467521720E-01
    66  6.5000000000000E-01  1.3443004174983E+00 -2.0651779515336E-01
    67  6.6000000000000E-01  1.3271080079597E+00 -1.8297801687905E-01
    68  6.7000000000000E-01  1.3065199395598E+00 -1.4841288820683E-01
    69  6.8000000000000E-01  1.2826052801413E+00 -1.0294427602824E-01
    70  6.9000000000000E-01  1.2554977620598E+00 -4.6979314354871E-02
    71  7.0000000000000E-01  1.2253938619732E+00  1.8796280927493E-02
    72  7.1000000000000E-01  1.1925492054684E+00  9.3432427769308E-02
    73  7.2000000000000E-01  1.1572733724362E+00  1.7573611993115E-01
    74  7.3000000000000E-01  1.1199232224238E+00  2.6429959606781E-01
    75  7.4000000000000E-01  1.0808948997405E+00  3.5753455349544E-01
    76  7.5000000000000E-01  1.0406147147906E+00  4.5371155750160E-01
    77  7.6000000000000E-01  9.9952912994268E-01  5.5100365145504E-01
    78  7.7000000000000E-01  9.5809410434011E-01  6.4753305246710E-01
    79  7.8000000000000E-01  9.1676407167549E-01  7.4141972531687E-01
    80  7.9000000000000E-01  8.7598083752376E-01  8.3083056640727E-01
    81  8.0000000000000E-01  8.3616268795688E-01  9.1402790152230E-01
    82  8.1000000000000E-01  7.9769399865520E-01  9.8941600707810E-01
    83  8.2000000000000E-01  7.6091562358406E-01  1.0555844045124E+00
    84  8.3000000000000E-01  7.2611632471988E-01  1.1113467506453E+00
    85  8.4000000000000E-01  6.9352547968710E-01  1.1557742516015E+00
    86  8.5000000000000E-01  6.6330727308872E-01  1.1882226617056E+00
    87  8.6000000000000E-01  6.3555654053915E-01  1.2083520883618E+00
    88  8.7000000000000E-01  6.1029639285085E-01  1.2161390053259E+00
    89  8.8000000000000E-01  5.8747770253212E-01  1.2118800753934E+00
    90  8.9000000000000E-01  5.6698048687312E-01  1.1961875942990E+00
    91  9.0000000000000E-01  5.4861717265898E-01  1.1699765851364E+00
    92  9.1000000000000E-01  5.3213767822477E-01  1.1344437912414E+00
    93  9.2000000000000E-01  5.1723620044195E-01  1.0910390295332E+00
    94  9.3000000000000E-01  5.0355954856359E-01  1.0414295701725E+00
    95  9.4000000000000E-01  4.9071682486365E-01  9.8745839667606E-01
    96  9.5000000000000E-01  4.7829021480782E-01  9.3109736831619E-01
    97  9.6000000000000E-01  4.6584661809923E-01  8.7439644919122E-01
    98  9.7000000000000E-01  4.5294982720478E-01  8.1943028193685E-01
    99  9.8000000000000E-01  4.3917294260072E-01  7.6824346541910E-01
   100  9.9000000000000E-01  4.2411070448001E-01  7.2279594260410E-01
   101  1.0000000000000E+00  4.0739141934803E-01  6.8490991567105E-01
   102  1.0100000000000E+00  3.8868816691134E-01  6.5621967973601E-01
   103  1.0200000000000E+00  3.6772898782291E-01  6.3812570466989E-01
   104  1.0300000000000E+00  3.4430577584040E-01  6.3175419787350E-01
   105  1.0400000000000E+00  3.1828162829140E-01  6.3792325158147E-01
   106  1.0500000000000E+00  2.8959644569432E-01  6.5711651943288E-01
   107  1.0600000000000E+00  2.5827061397661E-01  6.8946518290776E-01
   108  1.0700000000000E+00  2.2440665009708E-01  7.3473876255402E-01
   109  1.0800000000000E+00  1.8818874262305E-01  7.9234510779439E-01
   110  1.0900000000000E+00  1.4988017179734E-01  8.6133966749884E-01
   111  1.1000000000000E+00  1.0981864756044E-01  9.4044390710638E-01
   112  1.1100000000000E+00  6.8409657231594E-02  1.0280725040857E+00
   113  1.1200000000000E+00  2.6117966206258E-02  1.1223687258704E+00
   114  1.1300000000000E+00 -1.6542536854887E-02  1.2212471817040E+00
   115  1.1400000000000E+00 -5.9020414842656E-02  1.3224429445299E+00
   116  1.1500000000000E+00 -1.0073940343788E-01  1.4235658694065E+00
   117  1.1600000000000E+00 -1.4111197339918E-01  1.5221587924323E+00
   118  1.1700000000000E+00 -1.7955340447019E-01  1.6157581852887E+00
   119  1.1800000000000E+00 -2.1549602533210E-01  1.7019557660273E+00
   120  1.1900000000000E+00 -2.4840326660193E-01  1.7784595303404E+00
   121  1.2000000000000E+00 -2.7778317522243E-01  1.8431526694800E+00
   122  1.2100000000000E+00 -3.0320104879863E-01  1.8941488817714E+00
   123  1.2200000000000E+00 -3.2429086725762E-01  1.9298426632350E+00
   124  1.2300000000000E+00 -3.4076522639006E-01  1.9489532781476E+00
   125  1.2400000000000E+00 -3.5242351231324E-01  1.9505612578773E+00
   126  1.2500000000000E+00 -3.5915809750244E-01  1.9341364552590E+00
   127  1.2600000000000E+00 -3.6095838613689E-01  1.8995568850716E+00
   128  1.2700000000000E+00 -3.5791258814680E-01  1.8471178046798E+00
   129  1.2800000000000E+00 -3.5020715665209E-01  1.7775307287890E+00
   130  1.2900000000000E+00 -3.3812388036867E-01  1.6919123194523E+00
   131  1.3000000000000E+00 -3.2203468002040E-01  1.5917633425593E+00
   132  1.3100000000000E+00 -3.0239421464870E-01  1.4789381298353E+00
   133  1.3200000000000E+00 -2.7973045787366E-01  1.3556052217764E+00
   134  1.3300000000000E+00 -2.5463345465714E-01  1.2242000876512E+00
   135  1.3400000000000E+00 -2.2774251491146E-01  1.0873710191587E+00
   136  1.3500000000000E+00 -1.9973213960870E-01  9.4791946673886E-01
   137  1.3600000000000E+00 -1.7129700925443E-01  8.0873623767081E-01
   138  1.3700000000000E+00 -1.4313636747990E-01  6.7273499174547E-01
   139  1.3800000000000E+00 -1.1593825666032E-01  5.4278499687654E-01
   140  1.3900000000000E+00 -9.0362509032935E-02  4.2163850847962E-01
   141  1.4000000000000E+00 -6.7024846240612E-02  3.1186237513890E-01
   142  1.4100000000000E+00 -4.6491179811061E-02  2.1581375110120E-01
   143  1.4200000000000E+00 -2.9257506300350E-02  1.3555567405452E-01
   144  1.4300000000000E+00 -1.5738483255455E-02  7.2810224037694E-02
   145  1.4400000000000E+00 -6.2549763497414E-03  2.8904913804909E-02
   146  1.4500000000000E+00 -1.0791483473428E-03  4.9830466128436E-03
   147  1.4600000000000E+00  8.2266852400863E-05 -3.7970999634148E-04
   148  1.4700000000000E+00 -2.4687236669644E-05  1.1395779112496E-04
   149  1.48  0. -0.
   150  1.49  0. -0.
   151  1.50  0.  0.
   152  1.51  0.  0.
   153  1.52  0.  0.
   154  1.53  0.  0.
   155  1.54  0.  0.
   156  1.55  0.  0.
   157  1.56  0.  0.
   158  1.57  0.  0.
   159  1.58  0.  0.
   160  1.59  0.  0.
   161  1.60  0.  0.
   162  1.61  0.  0.
   163  1.62  0.  0.
   164  1.63  0.  0.
   165  1.64  0.  0.
   166  1.65  0.  0.
   167  1.66  0.  0.
   168  1.67  0.  0.
   169  1.68  0.  0.
   170  1.69  0.  0.
   171  1.70  0.  0.
   172  1.71  0.  0.
   173  1.72  0.  0.
   174  1.73  0.  0.
   175  1.74  0.  0.
   176  1.75  0.  0.
   177  1.76  0.  0.
   178  1.77  0.  0.
   179  1.78  0.  0.
   180  1.79  0.  0.
   181  1.80  0.  0.
   182  1.81  0.  0.
   183  1.82  0.  0.
   184  1.83  0.  0.
   185  1.84  0.  0.
   186  1.85  0.  0.
   187  1.86  0.  0.
   188  1.87  0.  0.
   189  1.88  0.  0.
   190  1.89  0.  0.
   191  1.90  0.  0.
   192  1.91  0.  0.
   193  1.92  0.  0.
   194  1.93  0.  0.
   195  1.94  0.  0.
   196  1.95  0.  0.
   197  1.96  0.  0.
   198  1.97  0.  0.
   199  1.98  0.  0.
   200  1.99  0.  0.
   201  2.00  0.  0.
   202  2.01  0.  0.
   203  2.02  0.  0.
   204  2.03  0.  0.
   205  2.04  0.  0.
   206  2.05  0.  0.
   207  2.06  0.  0.
   208  2.07  0.  0.
   209  2.08  0.  0.
   210  2.09  0.  0.
   211  2.10  0.  0.
   212  2.11  0.  0.
   213  2.12  0.  0.
   214  2.13  0.  0.
   215  2.14  0.  0.
   216  2.15  0.  0.
   217  2.16  0.  0.
   218  2.17  0.  0.
   219  2.18  0.  0.
   220  2.19  0.  0.
   221  2.20  0.  0.
   222  2.21  0.  0.
   223  2.22  0.  0.
   224  2.23  0.  0.
   225  2.24  0.  0.
   226  2.25  0.  0.
   227  2.26  0.  0.
   228  2.27  0.  0.
   229  2.28  0.  0.
   230  2.29  0.  0.
   231  2.30  0.  0.
   232  2.31  0.  0.
   233  2.32  0.  0.
   234  2.33  0.  0.
   235  2.34  0.  0.
   236  2.35  0.  0.
   237  2.36  0.  0.
   238  2.37  0.  0.
   239  2.38  0.  0.
   240  2.39  0.  0.
   241  2.40  0.  0.
   242  2.41  0.  0.
   243  2.42  0.  0.
   244  2.43  0.  0.
   245  2.44  0.  0.
   246  2.45  0.  0.
   247  2.46  0.  0.
   248  2.47  0.  0.
   249  2.48  0.  0.
   250  2.49  0.  0.
   251  2.50  0.  0.
   252  2.51  0.  0.
   253  2.52  0.  0.
   254  2.53  0.  0.
   255  2.54  0.  0.
   256  2.55  0.  0.
   257  2.56  0.  0.
   258  2.57  0.  0.
   259  2.58  0.  0.
   260  2.59  0.  0.
   261  2.60  0.  0.
   262  2.61  0.  0.
   263  2.62  0.  0.
   264  2.63  0.  0.
   265  2.64  0.  0.
   266  2.65  0.  0.
   267  2.66  0.  0.
   268  2.67  0.  0.
   269  2.68  0.  0.
   270  2.69  0.  0.
   271  2.70  0.  0.
   272  2.71  0.  0.
   273  2.72  0.  0.
   274  2.73  0.  0.
   275  2.74  0.  0.
   276  2.75  0.  0.
   277  2.76  0.  0.
   278  2.77  0.  0.
   279  2.78  0.  0.
   280  2.79  0.  0.
   281  2.80  0.  0.
   282  2.81  0.  0.
   283  2.82  0.  0.
   284  2.83  0.  0.
   285  2.84  0.  0.
   286  2.85  0.  0.
   287  2.86  0.  0.
   288  2.87  0.  0.
   289  2.88  0.  0.
   290  2.89  0.  0.
   291  2.90  0.  0.
   292  2.91  0.  0.
   293  2.92  0.  0.
   294  2.93  0.  0.
   295  2.94  0.  0.
   296  2.95  0.  0.
   297  2.96  0.  0.
   298  2.97  0.  0.
   299  2.98  0.  0.
   300  2.99  0.  0.
   301  3.00  0.  0.
   302  3.01  0.  0.
   303  3.02  0.  0.
   304  3.03  0.  0.
   305  3.04  0.  0.
   306  3.05  0.  0.
   307  3.06  0.  0.
   308  3.07  0.  0.
   309  3.08  0.  0.
   310  3.09  0.  0.
   311  3.10  0.  0.
   312  3.11  0.  0.
   313  3.12  0.  0.
   314  3.13  0.  0.
   315  3.14  0.  0.
   316  3.15  0.  0.
   317  3.16  0.  0.
   318  3.17  0.  0.
   319  3.18  0.  0.
   320  3.19  0.  0.
   321  3.20  0.  0.
   322  3.21  0.  0.
   323  3.22  0.  0.
   324  3.23  0.  0.
   325  3.24  0.  0.
   326  3.25  0.  0.
   327  3.26  0.  0.
   328  3.27  0.  0.
   329  3.28  0.  0.
   330  3.29  0.  0.
   331  3.30  0.  0.
   332  3.31  0.  0.
   333  3.32  0.  0.
   334  3.33  0.  0.
   335  3.34  0.  0.
   336  3.35  0.  0.
   337  3.36  0.  0.
   338  3.37  0.  0.
   339  3.38  0.  0.
   340  3.39  0.  0.
   341  3.40  0.  0.
   342  3.41  0.  0.
   343  3.42  0.  0.
   344  3.43  0.  0.
   345  3.44  0.  0.
   346  3.45  0.  0.
   347  3.46  0.  0.
   348  3.47  0.  0.
   349  3.48  0.  0.
   350  3.49  0.  0.
   351  3.50  0.  0.
   352  3.51  0.  0.
   353  3.52  0.  0.
   354  3.53  0.  0.
   355  3.54  0.  0.
   356  3.55  0.  0.
   357  3.56  0.  0.
   358  3.57  0.  0.
   359  3.58  0.  0.
   360  3.59  0.  0.
   361  3.60  0.  0.
   362  3.61  0.  0.
   363  3.62  0.  0.
   364  3.63  0.  0.
   365  3.64  0.  0.
   366  3.65  0.  0.
   367  3.66  0.  0.
   368  3.67  0.  0.
   369  3.68  0.  0.
   370  3.69  0.  0.
   371  3.70  0.  0.
   372  3.71  0.  0.
   373  3.72  0.  0.
   374  3.73  0.  0.
   375  3.74  0.  0.
   376  3.75  0.  0.
   377  3.76  0.  0.
   378  3.77  0.  0.
   379  3.78  0.  0.
   380  3.79  0.  0.
   381  3.80  0.  0.
   382  3.81  0.  0.
   383  3.82  0.  0.
   384  3.83  0.  0.
   385  3.84  0.  0.
   386  3.85  0.  0.
   387  3.86  0.  0.
   388  3.87  0.  0.
   389  3.88  0.  0.
   390  3.89  0.  0.
   391  3.90  0.  0.
   392  3.91  0.  0.
   393  3.92  0.  0.
   394  3.93  0.  0.
   395  3.94  0.  0.
   396  3.95  0.  0.
   397  3.96  0.  0.
   398  3.97  0.  0.
   399  3.98  0.  0.
   400  3.99  0.  0.
   401  4.00  0.  0.
   402  4.01  0.  0.
   403  4.02  0.  0.
   404  4.03  0.  0.
   405  4.04  0.  0.
   406  4.05  0.  0.
   407  4.06  0.  0.
   408  4.07  0.  0.
   409  4.08  0.  0.
   410  4.09  0.  0.
   411  4.10  0.  0.
   412  4.11  0.  0.
   413  4.12  0.  0.
   414  4.13  0.  0.
   415  4.14  0.  0.
   416  4.15  0.  0.
   417  4.16  0.  0.
   418  4.17  0.  0.
   419  4.18  0.  0.
   420  4.19  0.  0.
   421  4.20  0.  0.
   422  4.21  0.  0.
   423  4.22  0.  0.
   424  4.23  0.  0.
   425  4.24  0.  0.
   426  4.25  0.  0.
   427  4.26  0.  0.
   428  4.27  0.  0.
   429  4.28  0.  0.
   430  4.29  0.  0.
   431  4.30  0.  0.
   432  4.31  0.  0.
   433  4.32  0.  0.
   434  4.33  0.  0.
   435  4.34  0.  0.
   436  4.35  0.  0.
   437  4.36  0.  0.
   438  4.37  0.  0.
   439  4.38  0.  0.
   440  4.39  0.  0.
   441  4.40  0.  0.
   442  4.41  0.  0.
   443  4.42  0.  0.
   444  4.43  0.  0.
   445  4.44  0.  0.
   446  4.45  0.  0.
   447  4.46  0.  0.
   448  4.47  0.  0.
   449  4.48  0.  0.
   450  4.49  0.  0.
   451  4.50  0.  0.
   452  4.51  0.  0.
   453  4.52  0.  0.
   454  4.53  0.  0.
   455  4.54  0.  0.
   456  4.55  0.  0.
   457  4.56  0.  0.
   458  4.57  0.  0.
   459  4.58  0.  0.
   460  4.59  0.  0.
   461  4.60  0.  0.
   462  4.61  0.  0.
   463  4.62  0.  0.
   464  4.63  0.  0.
   465  4.64  0.  0.
   466  4.65  0.  0.
   467  4.66  0.  0.
   468  4.67  0.  0.
   469  4.68  0.  0.
   470  4.69  0.  0.
   471  4.70  0.  0.
   472  4.71  0.  0.
   473  4.72  0.  0.
   474  4.73  0.  0.
   475  4.74  0.  0.
   476  4.75  0.  0.
   477  4.76  0.  0.
   478  4.77  0.  0.
   479  4.78  0.  0.
   480  4.79  0.  0.
   481  4.80  0.  0.
   482  4.81  0.  0.
   483  4.82  0.  0.
   484  4.83  0.  0.
   485  4.84  0.  0.
   486  4.85  0.  0.
   487  4.86  0.  0.
   488  4.87  0.  0.
   489  4.88  0.  0.
   490  4.89  0.  0.
   491  4.90  0.  0.
   492  4.91  0.  0.
   493  4.92  0.  0.
   494  4.93  0.  0.
   495  4.94  0.  0.
   496  4.95  0.  0.
   497  4.96  0.  0.
   498  4.97  0.  0.
   499  4.98  0.  0.
   500  4.99  0.  0.
   501  5.00  0.  0.
   502  5.01  0.  0.
   503  5.02  0.  0.
   504  5.03  0.  0.
   505  5.04  0.  0.
   506  5.05  0.  0.
   507  5.06  0.  0.
   508  5.07  0.  0.
   509  5.08  0.  0.
   510  5.09  0.  0.
   511  5.10  0.  0.
   512  5.11  0.  0.
   513  5.12  0.  0.
   514  5.13  0.  0.
   515  5.14  0.  0.
   516  5.15  0.  0.
   517  5.16  0.  0.
   518  5.17  0.  0.
   519  5.18  0.  0.
   520  5.19  0.  0.
   521  5.20  0.  0.
   522  5.21  0.  0.
   523  5.22  0.  0.
   524  5.23  0.  0.
   525  5.24  0.  0.
   526  5.25  0.  0.
   527  5.26  0.  0.
   528  5.27  0.  0.
   529  5.28  0.  0.
   530  5.29  0.  0.
   531  5.30  0.  0.
   532  5.31  0.  0.
   533  5.32  0.  0.
   534  5.33  0.  0.
   535  5.34  0.  0.
   536  5.35  0.  0.
   537  5.36  0.  0.
   538  5.37  0.  0.
   539  5.38  0.  0.
   540  5.39  0.  0.
   541  5.40  0.  0.
   542  5.41  0.  0.
   543  5.42  0.  0.
   544  5.43  0.  0.
   545  5.44  0.  0.
   546  5.45  0.  0.
   547  5.46  0.  0.
   548  5.47  0.  0.
   549  5.48  0.  0.
   550  5.49  0.  0.
   551  5.50  0.  0.
   552  5.51  0.  0.
   553  5.52  0.  0.
   554  5.53  0.  0.
   555  5.54  0.  0.
   556  5.55  0.  0.
   557  5.56  0.  0.
   558  5.57  0.  0.
   559  5.58  0.  0.
   560  5.59  0.  0.
   561  5.60  0.  0.
   562  5.61  0.  0.
   563  5.62  0.  0.
   564  5.63  0.  0.
   565  5.64  0.  0.
   566  5.65  0.  0.
   567  5.66  0.  0.
   568  5.67  0.  0.
   569  5.68  0.  0.
   570  5.69  0.  0.
   571  5.70  0.  0.
   572  5.71  0.  0.
   573  5.72  0.  0.
   574  5.73  0.  0.
   575  5.74  0.  0.
   576  5.75  0.  0.
   577  5.76  0.  0.
   578  5.77  0.  0.
   579  5.78  0.  0.
   580  5.79  0.  0.
   581  5.80  0.  0.
   582  5.81  0.  0.
   583  5.82  0.  0.
   584  5.83  0.  0.
   585  5.84  0.  0.
   586  5.85  0.  0.
   587  5.86  0.  0.
   588  5.87  0.  0.
   589  5.88  0.  0.
   590  5.89  0.  0.
   591  5.90  0.  0.
   592  5.91  0.  0.
   593  5.92  0.  0.
   594  5.93  0.  0.
   595  5.94  0.  0.
   596  5.95  0.  0.
   597  5.96  0.  0.
   598  5.97  0.  0.
   599  5.98  0.  0.
   600  5.99  0.  0.
   1                         3.0647352642127E+00  7.3895243500881E-01
     1  0.0000000000000E+00 -1.2377853426948E-07  2.2237698527050E-07
     2  1.0000000000000E-02 -1.4111177928213E-03  3.9592823818689E-03
     3  2.0000000000000E-02 -5.5709964300829E-03  1.5702951136965E-02
     4  3.0000000000000E-02 -1.2261730193518E-02  3.4832990363241E-02
     5  4.0000000000000E-02 -2.1128456113334E-02  6.0700957397134E-02
     6  5.0000000000000E-02 -3.1691540129479E-02  9.2429848531991E-02
     7  6.0000000000000E-02 -4.3363079590180E-02  1.2894370758231E-01
     8  7.0000000000000E-02 -5.5467185210394E-02  1.6900401215439E-01
     9  8.0000000000000E-02 -6.7263381834250E-02  2.1125165010695E-01
    10  9.0000000000000E-02 -7.7972364505070E-02  2.5425311404188E-01
    11  1.0000000000000E-01 -8.6803267729695E-02  2.9654940067097E-01
    12  1.1000000000000E-01 -9.2981553963878E-02  3.3670600911661E-01
    13  1.2000000000000E-01 -9.5776603940495E-02  3.7336239067325E-01
    14  1.3000000000000E-01 -9.4528097324243E-02  4.0527921372992E-01
    15  1.4000000000000E-01 -8.8670307201643E-02  4.3138187123131E-01
    16  1.5000000000000E-01 -7.7753495087299E-02  4.5079877238515E-01
    17  1.6000000000000E-01 -6.1461682546355E-02  4.6289312186228E-01
    18  1.7000000000000E-01 -3.9626188471517E-02  4.6728709354864E-01
    19  1.8000000000000E-01 -1.2234454038991E-02  4.6387754571574E-01
    20  1.9000000000000E-01  2.0566173710130E-02  4.5284269285031E-01
    21  2.0000000000000E-01  5.8469868482983E-02  4.3463943797103E-01
    22  2.1000000000000E-01  1.0101896381541E-01  4.0999136903797E-01
    23  2.2000000000000E-01  1.4761563924724E-01  3.7986772461941E-01
    24  2.3000000000000E-01  1.9753832475057E-01  3.4545392780640E-01
    25  2.4000000000000E-01  2.4996234044442E-01  3.0811456414420E-01
    26  2.5000000000000E-01  3.0398414875138E-01  2.6934993024789E-01
    27  2.6000000000000E-01  3.5864847500640E-01  2.3074749671789E-01
    28  2.7000000000000E-01  4.1297745403797E-01  1.9392980491321E-01
    29  2.8000000000000E-01  4.6600088765082E-01  1.6050044625972E-01
    30  2.9000000000000E-01  5.1678665370011E-01  1.3198985067494E-01
    31  3.0000000000000E-01  5.6447029314728E-01  1.0980263455743E-01
    32  3.1000000000000E-01  6.0828281779448E-01  9.5168227459990E-02
    33  3.2000000000000E-01  6.4757582802695E-01  8.9096410593497E-02
    34  3.3000000000000E-01  6.8184310562764E-01  9.2339261950200E-02
    35  3.4000000000000E-01  7.1073794943089E-01  1.0536081599128E-01
    36  3.5000000000000E-01  7.3408564826668E-01  1.2831551595056E-01
    37  3.6000000000000E-01  7.5189063256176E-01  1.6103627067653E-01
    38  3.7000000000000E-01  7.6433800870604E-01  2.0303263355760E-01
    39  3.8000000000000E-01  7.7178935393285E-01  2.5349930737853E-01
    40  3.9000000000000E-01  7.7477282869793E-01  3.1133485553545E-01
    41  4.0000000000000E-01  7.7396784285640E-01  3.7517017687096E-01
    42  4.1000000000000E-01  7.7018468576564E-01  4.4340598853030E-01
    43  4.2000000000000E-01  7.6433969334288E-01  5.1425826850483E-01
    44  4.3000000000000E-01  7.5742667193053E-01  5.8581034620309E-01
    45  4.4000000000000E-01  7.5048542487028E-01  6.5607010393071E-01
    46  4.5000000000000E-01  7.4456832885897E-01  7.2303057193601E-01
    47  4.6000000000000E-01  7.4070598008265E-01  7.8473207072983E-01
    48  4.7000000000000E-01  7.3987297226646E-01  8.3932398123719E-01
    49  4.8000000000000E-01  7.4295487852286E-01  8.8512420883256E-01
    50  4.9000000000000E-01  7.5071748559550E-01  9.2067445252637E-01
    51  5.0000000000000E-01  7.6377927315083E-01  9.4478949476003E-01
    52  5.1000000000000E-01  7.8258804353785E-01  9.5659888787227E-01
    53  5.2000000000000E-01  8.0740249126258E-01  9.5557962600605E-01
    54  5.3000000000000E-01  8.3827935955473E-01  9.4157865008618E-01
    55  5.4000000000000E-01  8.7506666790770E-01  9.1482433109380E-01
    56  5.5000000000000E-01  9.1740331411096E-01  8.7592640451830E-01
    57  5.6000000000000E-01  9.6472516239219E-01  8.2586417690037E-01
    58  5.7000000000000E-01  1.0162775315737E+00  7.6596318338822E-01
    59  5.8000000000000E-01  1.0711337995870E+00  6.9786083240034E-01
    60  5.9000000000000E-01  1.1282196492986E+00  6.2346191891891E-01
    61  6.0000000000000E-01  1.1863423012757E+00  5.4488521097002E-01
    62  6.1000000000000E-01  1.2442239174449E+00  4.6440260438468E-01
    63  6.2000000000000E-01  1.3005382206859E+00  3.8437258976228E-01
    64  6.3000000000000E-01  1.3539492637308E+00  3.0716997462235E-01
    65  6.4000000000000E-01  1.4031512000034E+00  2.3511394639551E-01
    66  6.5000000000000E-01  1.4469078620420E+00  1.7039664316757E-01
    67  6.6000000000000E-01  1.4840909417139E+00  1.1501441575034E-01
    68  6.7000000000000E-01  1.5137155913194E+00  7.0703915409917E-02
    69  6.8000000000000E-01  1.5349723255701E+00  3.8885027132011E-02
    70  6.9000000000000E-01  1.5472541999147E+00  2.0612491271572E-02
    71  7.0000000000000E-01  1.5501783682952E+00  1.6537821411313E-02
    72  7.1000000000000E-01  1.5436012797245E+00  2.6882839550184E-02
    73  7.2000000000000E-01  1.5276269536957E+00  5.1425819390312E-02
    74  7.3000000000000E-01  1.5026079742847E+00  8.9500863780257E-02
    75  7.4000000000000E-01  1.4691390560942E+00  1.4001075389569E-01
    76  7.5000000000000E-01  1.4280432557194E+00  2.0145310675043E-01
    77  7.6000000000000E-01  1.3803511236863E+00  2.7195927600262E-01
    78  7.7000000000000E-01  1.3272733072178E+00  3.4934504072887E-01
    79  7.8000000000000E-01  1.2701673172384E+00  4.3117175966981E-01
    80  7.9000000000000E-01  1.2104993575553E+00  5.1481633558938E-01
    81  8.0000000000000E-01  1.1498022744138E+00  5.9754804622719E-01
    82  8.1000000000000E-01  1.0896308155952E+00  6.7661006392097E-01
    83  8.2000000000000E-01  1.0315154856590E+00  7.4930331298470E-01
    84  8.3000000000000E-01  9.7691634454183E-01  8.1307020822828E-01
    85  8.4000000000000E-01  9.2717811828216E-01  8.6557578355609E-01
    86  8.5000000000000E-01  8.8348797204484E-01  9.0478375828571E-01
    87  8.6000000000000E-01  8.4683723693867E-01  9.2902520043904E-01
    88  8.7000000000000E-01  8.1798828461932E-01  9.3705762838207E-01
    89  8.8000000000000E-01  7.9744760975634E-01  9.2811264032541E-01
    90  8.9000000000000E-01  7.8544601363379E-01  9.0193046885188E-01
    91  9.0000000000000E-01  7.8192658696194E-01  8.5878021649684E-01
    92  9.1000000000000E-01  7.8654097180330E-01  7.9946492856296E-01
    93  9.2000000000000E-01  7.9865414748420E-01  7.2531108957773E-01
    94  9.3000000000000E-01  8.1735774016205E-01  6.3814257787170E-01
    95  9.4000000000000E-01  8.4149160739456E-01  5.4023956579153E-01
    96  9.5000000000000E-01  8.6967320482207E-01  4.3428329791291E-01
    97  9.6000000000000E-01  9.0033400913440E-01  3.2328810315155E-01
    98  9.7000000000000E-01  9.3176205665076E-01  2.1052238650877E-01
    99  9.8000000000000E-01  9.6214946669515E-01  9.9420690340113E-02
   100  9.9000000000000E-01  9.8964365915809E-01 -6.5107967651230E-03
   101  1.0000000000000E+00  1.0124008512734E+00 -1.0379268233710E-01
   102  1.0100000000000E+00  1.0286403335480E+00 -1.8907201145513E-01
   103  1.0200000000000E+00  1.0366979820410E+00 -2.5922028168049E-01
   104  1.0300000000000E+00  1.0350774652718E+00 -3.1142701268254E-01
   105  1.0400000000000E+00  1.0224976494775E+00 -3.4328613956746E-01
   106  1.0500000000000E+00  9.9793479497505E-01 -3.5287266629175E-01
   107  1.0600000000000E+00  9.6065826648575E-01 -3.3880725775363E-01
   108  1.0700000000000E+00  9.1025864881169E-01 -3.0030676130561E-01
   109  1.0800000000000E+00  8.4666736099560E-01 -2.3721902088153E-01
   110  1.0900000000000E+00  7.7016709195617E-01 -1.5004077031933E-01
   111  1.1000000000000E+00  6.8139263266384E-01 -3.9917855926405E-02
   112  1.1100000000000E+00  5.8132194572890E-01  9.1372473674010E-02
   113  1.1200000000000E+00  4.7125758787427E-01  2.4145696890794E-01
   114  1.1300000000000E+00  3.5279887296103E-01  4.0741873188136E-01
   115  1.1400000000000E+00  2.2780542925937E-01  5.8586529380116E-01
   116  1.1500000000000E+00  9.8353052557943E-02  7.7301073793818E-01
   117  1.1600000000000E+00 -3.3317016358262E-02  9.6476977504562E-01
   118  1.1700000000000E+00 -1.6485406626038E-01  1.1568613231212E+00
   119  1.1800000000000E+00 -2.9385765706827E-01  1.3449188505023E+00
   120  1.1900000000000E+00 -4.1793952405898E-01  1.5246045255348E+00
   121  1.2000000000000E+00 -5.3478596391372E-01  1.6917240795105E+00
   122  1.2100000000000E+00 -6.4221899269143E-01  1.8423392396767E+00
   123  1.2200000000000E+00 -7.3825458407372E-01  1.9728746261512E+00
   124  1.2300000000000E+00 -8.2115636263785E-01  2.0802161318640E+00
   125  1.2400000000000E+00 -8.8948323836348E-01  2.1617980123625E+00
   126  1.2500000000000E+00 -9.4212962452785E-01  2.2156762014813E+00
   127  1.2600000000000E+00 -9.7835707532416E-01  2.2405857278796E+00
   128  1.2700000000000E+00 -9.9781640711827E-01  2.2359805274229E+00
   129  1.2800000000000E+00 -1.0005596241459E+00  2.2020544197922E+00
   130  1.2900000000000E+00 -9.8704124522927E-01  2.1397425253926E+00
   131  1.3000000000000E+00 -9.5810891686746E-01  2.0507029298060E+00
   132  1.3100000000000E+00 -9.1498349332294E-01  1.9372789457560E+00
   133  1.3200000000000E+00 -8.5922905440393E-01  1.8024428553847E+00
   134  1.3300000000000E+00 -7.9271361020767E-01  1.6497225270188E+00
   135  1.3400000000000E+00 -7.1756150286657E-01  1.4831127790230E+00
   136  1.3500000000000E+00 -6.3609874738869E-01  1.3069737887665E+00
   137  1.3600000000000E+00 -5.5079275799117E-01  1.1259192155519E+00
   138  1.3700000000000E+00 -4.6418801293683E-01  9.4469693983389E-01