S     ONCVPSP-4.0.1  r_core=   1.45687   1.45687   1.60321
     16.0000      6.0000      250217    zatom,zion,pspd
     8       2   2     4   600     0    pspcod,pspxc,lmax,lloc,mmax,r2well
  5.99000000  6.00000000  0.00000000    rchrg fchrg qchrg
     2     2     2     0    nproj
     3     1           extension_switch
     3     4     0    nprojso
   0                         6.8384523232918E+00  5.5379581152520E-01
     1  0.0000000000000E+00  2.3798132353647E-08 -1.0830119695493E-07
     2  1.0000000000000E-02  2.8887575016293E-02  4.4057506354423E-02
     3  2.0000000000000E-02  5.8053823069658E-02  8.6682772791322E-02
     4  3.0000000000000E-02  8.7768847919881E-02  1.2648313478127E-01
     5  4.0000000000000E-02  1.1828584971113E-01  1.6214400327194E-01
     6  5.0000000000000E-02  1.4983325414112E-01  1.9246524315937E-01
     7  6.0000000000000E-02  1.8260752113648E-01  2.1639444100967E-01
     8  7.0000000000000E-02  2.1676683060168E-01  2.3305615676393E-01
     9  8.0000000000000E-02  2.5242581901049E-01  2.4177636246025E-01
    10  9.0000000000000E-02  2.8965151208399E-01  2.4210140084894E-01
    11  1.0000000000000E-01  3.2846056631355E-01  2.3381094468743E-01
    12  1.1000000000000E-01  3.6881789651523E-01  2.1692459952266E-01
    13  1.2000000000000E-01  4.1063672890129E-01  1.9170196456296E-01
    14  1.3000000000000E-01  4.5378008033971E-01  1.5863614320588E-01
    15  1.4000000000000E-01  4.9806362559133E-01  1.1844087217863E-01
    16  1.5000000000000E-01  5.4325987641539E-01  7.2031611300525E-02
    17  1.6000000000000E-01  5.8910356054277E-01  2.0501099942494E-02
    18  1.7000000000000E-01  6.3529805560429E-01 -3.4909963081498E-02
    19  1.8000000000000E-01  6.8152270406307E-01 -9.2846326266609E-02
    20  1.9000000000000E-01  7.2744081082587E-01 -1.5187477677397E-01
    21  2.0000000000000E-01  7.7270810616686E-01 -2.1052292636048E-01
    22  2.1000000000000E-01  8.1698144341267E-01 -2.6731914038719E-01
    23  2.2000000000000E-01  8.5992749388086E-01 -3.2083252518155E-01
    24  2.3000000000000E-01  9.0123120103629E-01 -3.6971188498329E-01
    25  2.4000000000000E-01  9.4060376176290E-01 -4.1272258501669E-01
    26  2.5000000000000E-01  9.7778991489959E-01 -4.4878031129247E-01
    27  2.6000000000000E-01  1.0125743354440E+00 -4.7698079917171E-01
    28  2.7000000000000E-01  1.0447869566137E+00 -4.9662470940573E-01
    29  2.8000000000000E-01  1.0743070706454E+00 -5.0723695950554E-01
    30  2.9000000000000E-01  1.1010660920479E+00 -5.0857996649001E-01
    31  3.0000000000000E-01  1.1250489031383E+00 -5.0066042039117E-01
    32  3.1000000000000E-01  1.1462937401117E+00 -4.8372938202238E-01
    33  3.2000000000000E-01  1.1648906176009E+00 -4.5827567880206E-01
    34  3.3000000000000E-01  1.1809783296053E+00 -4.2501275405459E-01
    35  3.4000000000000E-01  1.1947401037302E+00 -3.8485930331315E-01
    36  3.5000000000000E-01  1.2063980228244E+00 -3.3891420093685E-01
    37  3.6000000000000E-01  1.2162063623236E+00 -2.8842637723974E-01
    38  3.7000000000000E-01  1.2244440219627E+00 -2.3476044605821E-01
    39  3.8000000000000E-01  1.2314062561833E+00 -1.7935900143986E-01
    40  3.9000000000000E-01  1.2373959278054E+00 -1.2370259665373E-01
    41  4.0000000000000E-01  1.2427145238016E+00 -6.9268486364247E-02
    42  4.1000000000000E-01  1.2476531798778E+00 -1.7489251650966E-02
    43  4.2000000000000E-01  1.2524839617903E+00  3.0287563572104E-02
    44  4.3000000000000E-01  1.2574516458484E+00  7.2837697655450E-02
    45  4.4000000000000E-01  1.2627662289701E+00  1.0909524212607E-01
    46  4.5000000000000E-01  1.2685963802694E+00  1.3818356275890E-01
    47  4.6000000000000E-01  1.2750640219183E+00  1.5944120187257E-01
    48  4.7000000000000E-01  1.2822401975525E+00  1.7244202357924E-01
    49  4.8000000000000E-01  1.2901423525544E+00  1.7700901495279E-01
    50  4.9000000000000E-01  1.2987331130192E+00  1.7322132394602E-01
    51  5.0000000000000E-01  1.3079206100860E+00  1.6141429498499E-01
    52  5.1000000000000E-01  1.3175603546542E+00  1.4217245074933E-01
    53  5.2000000000000E-01  1.3274586254082E+00  1.1631555873920E-01
    54  5.3000000000000E-01  1.3373772916802E+00  8.4878108769907E-02
    55  5.4000000000000E-01  1.3470399530859E+00  4.9082707501590E-02
    56  5.5000000000000E-01  1.3561392411680E+00  1.0308063654747E-02
    57  5.6000000000000E-01  1.3643450954551E+00 -2.9947611858219E-02
    58  5.7000000000000E-01  1.3713137983194E+00 -7.0106837160147E-02
    59  5.8000000000000E-01  1.3766975305517E+00 -1.0855566343843E-01
    60  5.9000000000000E-01  1.3801541933376E+00 -1.4368791599803E-01
    61  6.0000000000000E-01  1.3813572327617E+00 -1.7394968917922E-01
    62  6.1000000000000E-01  1.3800052004194E+00 -1.9788289589048E-01
    63  6.2000000000000E-01  1.3758307882758E+00 -2.1416668833925E-01
    64  6.3000000000000E-01  1.3686090875283E+00 -2.2165561408311E-01
    65  6.4000000000000E-01  1.3581648396342E+00 -2.1941344971978E-01
    66  6.5000000000000E-01  1.3443784724283E+00 -2.0674176151128E-01
    67  6.6000000000000E-01  1.3271907447614E+00 -1.8320237535012E-01
    68  6.7000000000000E-01  1.3066058585797E+00 -1.4863309437402E-01
    69  6.8000000000000E-01  1.2826929369284E+00 -1.0315617722898E-01
    70  6.9000000000000E-01  1.2555858089799E+00 -4.7179278990532E-02
    71  7.0000000000000E-01  1.2254810877651E+00  1.8611244855847E-02
    72  7.1000000000000E-01  1.1926345716361E+00  9.3264568356011E-02
    73  7.2000000000000E-01  1.1573560454409E+00  1.7558685445595E-01
    74  7.3000000000000E-01  1.1200026007285E+00  2.6416944426354E-01
    75  7.4000000000000E-01  1.0809706348843E+00  3.5742309331310E-01
    76  7.5000000000000E-01  1.0406867258120E+00  4.5361740516030E-01
    77  7.6000000000000E-01  9.9959761063465E-01  5.5092446697318E-01
    78  7.7000000000000E-01  9.5815952299985E-01  6.4746557123793E-01
    79  7.8000000000000E-01  9.1682716320354E-01  7.4135981562972E-01
    80  7.9000000000000E-01  8.7604258792453E-01  8.3077331214366E-01
    81  8.0000000000000E-01  8.3622431149283E-01  9.1396770858962E-01
    82  8.1000000000000E-01  7.9775690810280E-01  9.8934673150091E-01
    83  8.2000000000000E-01  7.6098139422688E-01  1.0554994994990E+00
    84  8.3000000000000E-01  7.2618665288834E-01  1.1112394294010E+00
    85  8.4000000000000E-01  6.9360213680935E-01  1.1556376621868E+00
    86  8.5000000000000E-01  6.6339205635022E-01  1.1880500698461E+00
    87  8.6000000000000E-01  6.3565122135485E-01  1.2081370638251E+00
    88  8.7000000000000E-01  6.1040266443101E-01  1.2158756072926E+00
    89  8.8000000000000E-01  5.8759712786829E-01  1.2115630321720E+00
    90  8.9000000000000E-01  5.6711444848277E-01  1.1958124727747E+00
    91  9.0000000000000E-01  5.4876682540558E-01  1.1695399455003E+00
    92  9.1000000000000E-01  5.3230390647403E-01  1.1339433228146E+00
    93  9.2000000000000E-01  5.1741958072680E-01  1.0904736638836E+00
    94  9.3000000000000E-01  5.0376031881068E-01  1.0407995681979E+00
    95  9.4000000000000E-01  4.9093486108626E-01  9.8676540690522E-01
    96  9.5000000000000E-01  4.7852501599779E-01  9.3034445432430E-01
    97  9.6000000000000E-01  4.6609729985681E-01  8.7358808474290E-01
    98  9.7000000000000E-01  4.5321512443593E-01  8.1857231322732E-01
    99  9.8000000000000E-01  4.3945122139111E-01  7.6734304057151E-01
   100  9.9000000000000E-01  4.2439998302897E-01  7.2186140937660E-01
   101  1.0000000000000E+00  4.0768939762010E-01  6.8395068911217E-01
   102  1.0100000000000E+00  3.8899226444305E-01  6.5524608228048E-01
   103  1.0200000000000E+00  3.6803638891422E-01  6.3714878187200E-01
   104  1.0300000000000E+00  3.4461348116839E-01  6.3078551361149E-01
   105  1.0400000000000E+00  3.1858651181426E-01  6.3697466711925E-01
   106  1.0500000000000E+00  2.8989531556980E-01  6.5619996117868E-01
   107  1.0600000000000E+00  2.5856027610597E-01  6.8859240405176E-01
   108  1.0700000000000E+00  2.2468397282505E-01  7.3392110398815E-01
   109  1.0800000000000E+00  1.8845072107983E-01  7.9159326381087E-01
   110  1.0900000000000E+00  1.5012399036082E-01  8.6066346172570E-01
   111  1.1000000000000E+00  1.1004173894639E-01  9.3985208396791E-01
   112  1.1100000000000E+00  6.8609756786631E-02  1.0275725407758E+00
   113  1.1200000000000E+00  2.6293160080527E-02  1.1219666694038E+00
   114  1.1300000000000E+00 -1.6393770842465E-02  1.2209475150721E+00
   115  1.1400000000000E+00 -5.8899174667591E-02  1.3222484853487E+00
   116  1.1500000000000E+00 -1.0064633949041E-01  1.4234777037160E+00
   117  1.1600000000000E+00 -1.4104727487594E-01  1.5221762455074E+00
   118  1.1700000000000E+00 -1.7951679592077E-01  1.6158788304708E+00
   119  1.1800000000000E+00 -2.1548677350213E-01  1.7021754717047E+00
   120  1.1900000000000E+00 -2.4842019746725E-01  1.7787725443083E+00
   121  1.2000000000000E+00 -2.7782470086312E-01  1.8435517390316E+00
   122  1.2100000000000E+00 -3.0326520352278E-01  1.8946254070189E+00
   123  1.2200000000000E+00 -3.2437535215882E-01  1.9303868803616E+00
   124  1.2300000000000E+00 -3.4086746131574E-01  1.9495544685677E+00
   125  1.2400000000000E+00 -3.5254069403750E-01  1.9512079786484E+00
   126  1.2500000000000E+00 -3.5928726274277E-01  1.9348167855592E+00
   127  1.2600000000000E+00 -3.6109647793186E-01  1.9002586831529E+00
   128  1.2700000000000E+00 -3.5805652402556E-01  1.8478289694275E+00
   129  1.2800000000000E+00 -3.5035389697810E-01  1.7782394598823E+00
   130  1.2900000000000E+00 -3.3827049523114E-01  1.6926073701238E+00
   131  1.3000000000000E+00 -3.2217841307737E-01  1.5924342590983E+00
   132  1.3100000000000E+00 -3.0253254239572E-01  1.4795754722666E+00
   133  1.3200000000000E+00 -2.7986114291922E-01  1.3562007605694E+00
   134  1.3300000000000E+00 -2.5475459172832E-01  1.2247469718569E+00
   135  1.3400000000000E+00 -2.2785256848718E-01  1.0878639120317E+00
   136  1.3500000000000E+00 -1.9982997227942E-01  9.4835464565384E-01
   137  1.3600000000000E+00 -1.7138190013147E-01  8.0911165597666E-01
   138  1.3700000000000E+00 -1.4320802021198E-01  6.7305030108624E-01
   139  1.3800000000000E+00 -1.1599679689645E-01  5.4304152945709E-01
   140  1.3900000000000E+00 -9.0408470899009E-02  4.2183921924514E-01
   141  1.4000000000000E+00 -6.7059148103668E-02  3.1201174454331E-01
   142  1.4100000000000E+00 -4.6515093714574E-02  2.1591765506350E-01
   143  1.4200000000000E+00 -2.9272616385926E-02  1.3562121965200E-01
   144  1.4300000000000E+00 -1.5746636101723E-02  7.2845554629530E-02
   145  1.4400000000000E+00 -6.2582230112154E-03  2.8918981551176E-02
   146  1.4500000000000E+00 -1.0797083644074E-03  4.9854836540862E-03
   147  1.4600000000000E+00  8.2310382101393E-05 -3.7989020623195E-04
   148  1.4700000000000E+00 -2.4700191367256E-05  1.1401260627111E-04
   149  1.48  0.  0.
   150  1.49  0.  0.
   151  1.50  0.  0.
   152  1.51  0.  0.
   153  1.52  0.  0.
   154  1.53  0.  0.
   155  1.54  0.  0.
   156  1.55  0.  0.
   157  1.56  0.  0.
   158  1.57  0.  0.
   159  1.58  0.  0.
   160  1.59  0.  0.
   161  1.60  0.  0.
   162  1.61  0.  0.
   163  1.62  0.  0.
   164  1.63  0.  0.
   165  1.64  0.  0.
   166  1.65  0.  0.
   167  1.66  0.  0.
   168  1.67  0.  0.
   169  1.68  0.  0.
   170  1.69  0.  0.
   171  1.70  0.  0.
   172  1.71  0.  0.
   173  1.72  0.  0.
   174  1.73  0.  0.
   175  1.74  0.  0.
   176  1.75  0.  0.
   177  1.76  0.  0.
   178  1.77  0.  0.
   179  1.78  0.  0.
   180  1.79  0.  0.
   181  1.80  0.  0.
   182  1.81  0.  0.
   183  1.82  0.  0.
   184  1.83  0.  0.
   185  1.84  0.  0.
   186  1.85  0.  0.
   187  1.86  0.  0.
   188  1.87  0.  0.
   189  1.88  0.  0.
   190  1.89  0.  0.
   191  1.90  0.  0.
   192  1.91  0.  0.
   193  1.92  0.  0.
   194  1.93  0.  0.
   195  1.94  0.  0.
   196  1.95  0.  0.
   197  1.96  0.  0.
   198  1.97  0.  0.
   199  1.98  0.  0.
   200  1.99  0.  0.
   201  2.00  0.  0.
   202  2.01  0.  0.
   203  2.02  0.  0.
   204  2.03  0.  0.
   205  2.04  0.  0.
   206  2.05  0.  0.
   207  2.06  0.  0.
   208  2.07  0.  0.
   209  2.08  0.  0.
   210  2.09  0.  0.
   211  2.10  0.  0.
   212  2.11  0.  0.
   213  2.12  0.  0.
   214  2.13  0.  0.
   215  2.14  0.  0.
   216  2.15  0.  0.
   217  2.16  0.  0.
   218  2.17  0.  0.
   219  2.18  0.  0.
   220  2.19  0.  0.
   221  2.20  0.  0.
   222  2.21  0.  0.
   223  2.22  0.  0.
   224  2.23  0.  0.
   225  2.24  0.  0.
   226  2.25  0.  0.
   227  2.26  0.  0.
   228  2.27  0.  0.
   229  2.28  0.  0.
   230  2.29  0.  0.
   231  2.30  0.  0.
   232  2.31  0.  0.
   233  2.32  0.  0.
   234  2.33  0.  0.
   235  2.34  0.  0.
   236  2.35  0.  0.
   237  2.36  0.  0.
   238  2.37  0.  0.
   239  2.38  0.  0.
   240  2.39  0.  0.
   241  2.40  0.  0.
   242  2.41  0.  0.
   243  2.42  0.  0.
   244  2.43  0.  0.
   245  2.44  0.  0.
   246  2.45  0.  0.
   247  2.46  0.  0.
   248  2.47  0.  0.
   249  2.48  0.  0.
   250  2.49  0.  0.
   251  2.50  0.  0.
   252  2.51  0.  0.
   253  2.52  0.  0.
   254  2.53  0.  0.
   255  2.54  0.  0.
   256  2.55  0.  0.
   257  2.56  0.  0.
   258  2.57  0.  0.
   259  2.58  0.  0.
   260  2.59  0.  0.
   261  2.60  0.  0.
   262  2.61  0.  0.
   263  2.62  0.  0.
   264  2.63  0.  0.
   265  2.64  0.  0.
   266  2.65  0.  0.
   267  2.66  0.  0.
   268  2.67  0.  0.
   269  2.68  0.  0.
   270  2.69  0.  0.
   271  2.70  0.  0.
   272  2.71  0.  0.
   273  2.72  0.  0.
   274  2.73  0.  0.
   275  2.74  0.  0.
   276  2.75  0.  0.
   277  2.76  0.  0.
   278  2.77  0.  0.
   279  2.78  0.  0.
   280  2.79  0.  0.
   281  2.80  0.  0.
   282  2.81  0.  0.
   283  2.82  0.  0.
   284  2.83  0.  0.
   285  2.84  0.  0.
   286  2.85  0.  0.
   287  2.86  0.  0.
   288  2.87  0.  0.
   289  2.88  0.  0.
   290  2.89  0.  0.
   291  2.90  0.  0.
   292  2.91  0.  0.
   293  2.92  0.  0.
   294  2.93  0.  0.
   295  2.94  0.  0.
   296  2.95  0.  0.
   297  2.96  0.  0.
   298  2.97  0.  0.
   299  2.98  0.  0.
   300  2.99  0.  0.
   301  3.00  0.  0.
   302  3.01  0.  0.
   303  3.02  0.  0.
   304  3.03  0.  0.
   305  3.04  0.  0.
   306  3.05  0.  0.
   307  3.06  0.  0.
   308  3.07  0.  0.
   309  3.08  0.  0.
   310  3.09  0.  0.
   311  3.10  0.  0.
   312  3.11  0.  0.
   313  3.12  0.  0.
   314  3.13  0.  0.
   315  3.14  0.  0.
   316  3.15  0.  0.
   317  3.16  0.  0.
   318  3.17  0.  0.
   319  3.18  0.  0.
   320  3.19  0.  0.
   321  3.20  0.  0.
   322  3.21  0.  0.
   323  3.22  0.  0.
   324  3.23  0.  0.
   325  3.24  0.  0.
   326  3.25  0.  0.
   327  3.26  0.  0.
   328  3.27  0.  0.
   329  3.28  0.  0.
   330  3.29  0.  0.
   331  3.30  0.  0.
   332  3.31  0.  0.
   333  3.32  0.  0.
   334  3.33  0.  0.
   335  3.34  0.  0.
   336  3.35  0.  0.
   337  3.36  0.  0.
   338  3.37  0.  0.
   339  3.38  0.  0.
   340  3.39  0.  0.
   341  3.40  0.  0.
   342  3.41  0.  0.
   343  3.42  0.  0.
   344  3.43  0.  0.
   345  3.44  0.  0.
   346  3.45  0.  0.
   347  3.46  0.  0.
   348  3.47  0.  0.
   349  3.48  0.  0.
   350  3.49  0.  0.
   351  3.50  0.  0.
   352  3.51  0.  0.
   353  3.52  0.  0.
   354  3.53  0.  0.
   355  3.54  0.  0.
   356  3.55  0.  0.
   357  3.56  0.  0.
   358  3.57  0.  0.
   359  3.58  0.  0.
   360  3.59  0.  0.
   361  3.60  0.  0.
   362  3.61  0.  0.
   363  3.62  0.  0.
   364  3.63  0.  0.
   365  3.64  0.  0.
   366  3.65  0.  0.
   367  3.66  0.  0.
   368  3.67  0.  0.
   369  3.68  0.  0.
   370  3.69  0.  0.
   371  3.70  0.  0.
   372  3.71  0.  0.
   373  3.72  0.  0.
   374  3.73  0.  0.
   375  3.74  0.  0.
   376  3.75  0.  0.
   377  3.76  0.  0.
   378  3.77  0.  0.
   379  3.78  0.  0.
   380  3.79  0.  0.
   381  3.80  0.  0.
   382  3.81  0.  0.
   383  3.82  0.  0.
   384  3.83  0.  0.
   385  3.84  0.  0.
   386  3.85  0.  0.
   387  3.86  0.  0.
   388  3.87  0.  0.
   389  3.88  0.  0.
   390  3.89  0.  0.
   391  3.90  0.  0.
   392  3.91  0.  0.
   393  3.92  0.  0.
   394  3.93  0.  0.
   395  3.94  0.  0.
   396  3.95  0.  0.
   397  3.96  0.  0.
   398  3.97  0.  0.
   399  3.98  0.  0.
   400  3.99  0.  0.
   401  4.00  0.  0.
   402  4.01  0.  0.
   403  4.02  0.  0.
   404  4.03  0.  0.
   405  4.04  0.  0.
   406  4.05  0.  0.
   407  4.06  0.  0.
   408  4.07  0.  0.
   409  4.08  0.  0.
   410  4.09  0.  0.
   411  4.10  0.  0.
   412  4.11  0.  0.
   413  4.12  0.  0.
   414  4.13  0.  0.
   415  4.14  0.  0.
   416  4.15  0.  0.
   417  4.16  0.  0.
   418  4.17  0.  0.
   419  4.18  0.  0.
   420  4.19  0.  0.
   421  4.20  0.  0.
   422  4.21  0.  0.
   423  4.22  0.  0.
   424  4.23  0.  0.
   425  4.24  0.  0.
   426  4.25  0.  0.
   427  4.26  0.  0.
   428  4.27  0.  0.
   429  4.28  0.  0.
   430  4.29  0.  0.
   431  4.30  0.  0.
   432  4.31  0.  0.
   433  4.32  0.  0.
   434  4.33  0.  0.
   435  4.34  0.  0.
   436  4.35  0.  0.
   437  4.36  0.  0.
   438  4.37  0.  0.
   439  4.38  0.  0.
   440  4.39  0.  0.
   441  4.40  0.  0.
   442  4.41  0.  0.
   443  4.42  0.  0.
   444  4.43  0.  0.
   445  4.44  0.  0.
   446  4.45  0.  0.
   447  4.46  0.  0.
   448  4.47  0.  0.
   449  4.48  0.  0.
   450  4.49  0.  0.
   451  4.50  0.  0.
   452  4.51  0.  0.
   453  4.52  0.  0.
   454  4.53  0.  0.
   455  4.54  0.  0.
   456  4.55  0.  0.
   457  4.56  0.  0.
   458  4.57  0.  0.
   459  4.58  0.  0.
   460  4.59  0.  0.
   461  4.60  0.  0.
   462  4.61  0.  0.
   463  4.62  0.  0.
   464  4.63  0.  0.
   465  4.64  0.  0.
   466  4.65  0.  0.
   467  4.66  0.  0.
   468  4.67  0.  0.
   469  4.68  0.  0.
   470  4.69  0.  0.
   471  4.70  0.  0.
   472  4.71  0.  0.
   473  4.72  0.  0.
   474  4.73  0.  0.
   475  4.74  0.  0.
   476  4.75  0.  0.
   477  4.76  0.  0.
   478  4.77  0.  0.
   479  4.78  0.  0.
   480  4.79  0.  0.
   481  4.80  0.  0.
   482  4.81  0.  0.
   483  4.82  0.  0.
   484  4.83  0.  0.
   485  4.84  0.  0.
   486  4.85  0.  0.
   487  4.86  0.  0.
   488  4.87  0.  0.
   489  4.88  0.  0.
   490  4.89  0.  0.
   491  4.90  0.  0.
   492  4.91  0.  0.
   493  4.92  0.  0.
   494  4.93  0.  0.
   495  4.94  0.  0.
   496  4.95  0.  0.
   497  4.96  0.  0.
   498  4.97  0.  0.
   499  4.98  0.  0.
   500  4.99  0.  0.
   501  5.00  0.  0.
   502  5.01  0.  0.
   503  5.02  0.  0.
   504  5.03  0.  0.
   505  5.04  0.  0.
   506  5.05  0.  0.
   507  5.06  0.  0.
   508  5.07  0.  0.
   509  5.08  0.  0.
   510  5.09  0.  0.
   511  5.10  0.  0.
   512  5.11  0.  0.
   513  5.12  0.  0.
   514  5.13  0.  0.
   515  5.14  0.  0.
   516  5.15  0.  0.
   517  5.16  0.  0.
   518  5.17  0.  0.
   519  5.18  0.  0.
   520  5.19  0.  0.
   521  5.20  0.  0.
   522  5.21  0.  0.
   523  5.22  0.  0.
   524  5.23  0.  0.
   525  5.24  0.  0.
   526  5.25  0.  0.
   527  5.26  0.  0.
   528  5.27  0.  0.
   529  5.28  0.  0.
   530  5.29  0.  0.
   531  5.30  0.  0.
   532  5.31  0.  0.
   533  5.32  0.  0.
   534  5.33  0.  0.
   535  5.34  0.  0.
   536  5.35  0.  0.
   537  5.36  0.  0.
   538  5.37  0.  0.
   539  5.38  0.  0.
   540  5.39  0.  0.
   541  5.40  0.  0.
   542  5.41  0.  0.
   543  5.42  0.  0.
   544  5.43  0.  0.
   545  5.44  0.  0.
   546  5.45  0.  0.
   547  5.46  0.  0.
   548  5.47  0.  0.
   549  5.48  0.  0.
   550  5.49  0.  0.
   551  5.50  0.  0.
   552  5.51  0.  0.
   553  5.52  0.  0.
   554  5.53  0.  0.
   555  5.54  0.  0.
   556  5.55  0.  0.
   557  5.56  0.  0.
   558  5.57  0.  0.
   559  5.58  0.  0.
   560  5.59  0.  0.
   561  5.60  0.  0.
   562  5.61  0.  0.
   563  5.62  0.  0.
   564  5.63  0.  0.
   565  5.64  0.  0.
   566  5.65  0.  0.
   567  5.66  0.  0.
   568  5.67  0.  0.
   569  5.68  0.  0.
   570  5.69  0.  0.
   571  5.70  0.  0.
   572  5.71  0.  0.
   573  5.72  0.  0.
   574  5.73  0.  0.
   575  5.74  0.  0.
   576  5.75  0.  0.
   577  5.76  0.  0.
   578  5.77  0.  0.
   579  5.78  0.  0.
   580  5.79  0.  0.
   581  5.80  0.  0.
   582  5.81  0.  0.
   583  5.82  0.  0.
   584  5.83  0.  0.
   585  5.84  0.  0.
   586  5.85  0.  0.
   587  5.86  0.  0.
   588  5.87  0.  0.
   589  5.88  0.  0.
   590  5.89  0.  0.
   591  5.90  0.  0.
   592  5.91  0.  0.
   593  5.92  0.  0.
   594  5.93  0.  0.
   595  5.94  0.  0.
   596  5.95  0.  0.
   597  5.96  0.  0.
   598  5.97  0.  0.
   599  5.98  0.  0.
   600  5.99  0.  0.
   1                         3.0658251172639E+00  7.4000848025890E-01
     1  0.0000000000000E+00 -1.2393388666709E-07  2.2233004703942E-07
     2  1.0000000000000E-02 -1.4144750533348E-03  3.9596449953245E-03
     3  2.0000000000000E-02 -5.5843293111674E-03  1.5704428404745E-02
     4  3.0000000000000E-02 -1.2291371737861E-02  3.4836413790851E-02
     5  4.0000000000000E-02 -2.1180274283764E-02  6.0707287704352E-02
     6  5.0000000000000E-02 -3.1770773363535E-02  9.2440220668164E-02
     7  6.0000000000000E-02 -4.3474193097184E-02  1.2895946932209E-01
     8  7.0000000000000E-02 -5.5613752761727E-02  1.6902675478942E-01
     9  8.0000000000000E-02 -6.7447996967496E-02  2.1128322999672E-01
    10  9.0000000000000E-02 -7.8196584103387E-02  2.5429566407352E-01
    11  1.0000000000000E-01 -8.7067589880041E-02  2.9660533099494E-01
    12  1.1000000000000E-01 -9.3285430874998E-02  3.3677799686338E-01
    13  1.2000000000000E-01 -9.6118489549807E-02  3.7345335870396E-01
    14  1.3000000000000E-01 -9.4905528078783E-02  4.0539229882255E-01
    15  1.4000000000000E-01 -8.9080013398637E-02  4.3152038244084E-01
    16  1.5000000000000E-01 -7.8191539140362E-02  4.5096614063223E-01
    17  1.6000000000000E-01 -6.1923619636422E-02  4.6309284209008E-01
    18  1.7000000000000E-01 -4.0107244277348E-02  4.6752266103265E-01
    19  1.8000000000000E-01 -1.2729713645278E-02  4.6415238830942E-01
    20  1.9000000000000E-01  2.0061572038124E-02  4.5316010109397E-01
    21  2.0000000000000E-01  5.7960541176847E-02  4.3500249507734E-01
    22  2.1000000000000E-01  1.0050909804941E-01  4.1040288279360E-01
    23  2.2000000000000E-01  1.4710882345606E-01  3.8033016320518E-01
    24  2.3000000000000E-01  1.9703739950395E-01  3.4596936144166E-01
    25  2.4000000000000E-01  2.4946927495175E-01  3.0868461430507E-01
    26  2.5000000000000E-01  3.0349994748211E-01  2.6997572800009E-01
    27  2.6000000000000E-01  3.5817311797251E-01  2.3142965144797E-01
    28  2.7000000000000E-01  4.1250987322304E-01  1.9466838444544E-01
    29  2.8000000000000E-01  4.6553898091737E-01  1.6129496901796E-01
    30  2.9000000000000E-01  5.1632733629971E-01  1.3283929020007E-01
    31  3.0000000000000E-01  5.6400958573433E-01  1.1070543633085E-01
    32  3.1000000000000E-01  6.0781596864237E-01  9.6122337624085E-02
    33  3.2000000000000E-01  6.4709746600341E-01  9.0099315811012E-02
    34  3.3000000000000E-01  6.8134741944098E-01  9.3388039317037E-02
    35  3.4000000000000E-01  7.1021888774444E-01  1.0645219162108E-01
    36  3.5000000000000E-01  7.3353713452493E-01  1.2944593059384E-01
    37  3.6000000000000E-01  7.5130678780442E-01  1.6220195052948E-01
    38  3.7000000000000E-01  7.6371337528490E-01  2.0422966426308E-01
    39  3.8000000000000E-01  7.7111911290447E-01  2.5472370912783E-01
    40  3.9000000000000E-01  7.7405300374993E-01  3.1258265714864E-01
    41  4.0000000000000E-01  7.7319548393613E-01  3.7643748676565E-01
    42  4.1000000000000E-01  7.6935802611023E-01  4.4468906058366E-01
    43  4.2000000000000E-01  7.6345827434502E-01  5.1555356096856E-01
    44  4.3000000000000E-01  7.5649143119426E-01  5.8711457204154E-01
    45  4.4000000000000E-01  7.4949874388931E-01  6.5738027121185E-01
    46  4.5000000000000E-01  7.4353403795446E-01  7.2434401320621E-01
    47  4.6000000000000E-01  7.3962931953303E-01  7.8604646063736E-01
    48  4.7000000000000E-01  7.3876050990837E-01  8.4063734202575E-01
    49  4.8000000000000E-01  7.4181438546009E-01  8.8643490369472E-01
    50  4.9000000000000E-01  7.4955777297861E-01  9.2198116717617E-01
    51  5.0000000000000E-01  7.6260999424389E-01  9.4609120794302E-01
    52  5.1000000000000E-01  7.8141946642991E-01  9.5789483186949E-01
    53  5.2000000000000E-01  8.0624524857378E-01  9.5686923849507E-01
    54  5.3000000000000E-01  8.3714418229857E-01  9.4286151898834E-01
    55  5.4000000000000E-01  8.7396411127362E-01  9.1610013425400E-01
    56  5.5000000000000E-01  9.1634348330445E-01  8.7719484622555E-01
    57  5.6000000000000E-01  9.6371744679898E-01  8.2712492335812E-01
    58  5.7000000000000E-01  1.0153303553922E+00  7.6721579928144E-01
    59  5.8000000000000E-01  1.0702543967003E+00  6.9910472067810E-01
    60  5.9000000000000E-01  1.1274138695416E+00  6.2469626581940E-01
    61  6.0000000000000E-01  1.1856144544103E+00  5.4610893816107E-01
    62  6.1000000000000E-01  1.2435766601077E+00  4.6561432988114E-01
    63  6.2000000000000E-01  1.2999724903514E+00  3.8557059901961E-01
    64  6.3000000000000E-01  1.3534642623671E+00  3.0835220289943E-01
    65  6.4000000000000E-01  1.4027444286348E+00  2.3627797313961E-01
    66  6.5000000000000E-01  1.4465752059072E+00  1.7153969881025E-01
    67  6.6000000000000E-01  1.4838268041728E+00  1.1613340092517E-01
    68  6.7000000000000E-01  1.5135130731586E+00  7.1795432223721E-02
    69  6.8000000000000E-01  1.5348234449317E+00  3.9945421751510E-02
    70  6.9000000000000E-01  1.5471501467717E+00  2.1637906738170E-02
    71  7.0000000000000E-01  1.5501097862590E+00  1.7524259279410E-02
    72  7.1000000000000E-01  1.5435585670331E+00  2.7826228667726E-02
    73  7.2000000000000E-01  1.5276005745211E+00  5.2322089913604E-02
    74  7.3000000000000E-01  1.5025887710519E+00  9.0346024344718E-02
    75  7.4000000000000E-01  1.4691185533198E+00  1.4080096975609E-01
    76  7.5000000000000E-01  1.4280139459838E+00  2.0218477666116E-01
    77  7.6000000000000E-01  1.3803067267368E+00  2.7262910563294E-01
    78  7.7000000000000E-01  1.3272089938589E+00  3.4995011049846E-01
    79  7.8000000000000E-01  1.2700798905853E+00  4.3170958504472E-01
    80  7.9000000000000E-01  1.2103873853791E+00  5.1528491809257E-01
    81  8.0000000000000E-01  1.1496661676634E+00  5.9794591368505E-01
    82  8.1000000000000E-01  1.0894728497080E+00  6.7693629878005E-01
    83  8.2000000000000E-01  1.0313397629186E+00  7.4955756788187E-01
    84  8.3000000000000E-01  9.7672869746563E-01  8.1325270837141E-01
    85  8.4000000000000E-01  9.2698595577634E-01  8.6568731586181E-01
    86  8.5000000000000E-01  8.8330007178990E-01  9.0482564761188E-01
    87  8.6000000000000E-01  8.4666348912246E-01  9.2899927363211E-01
    88  8.7000000000000E-01  8.1783939366181E-01  9.3696616722112E-01
    89  8.8000000000000E-01  7.9733476202693E-01  9.2795832477432E-01
    90  8.9000000000000E-01  7.8538052030423E-01  9.0171631231909E-01
    91  9.0000000000000E-01  7.8191951203153E-01  8.5850949503916E-01
    92  9.1000000000000E-01  7.8660275594634E-01  7.9914110614866E-01
    93  9.2000000000000E-01  7.9879423868314E-01  7.2493774163913E-01
    94  9.3000000000000E-01  8.1758424208883E-01  6.3772331542491E-01
    95  9.4000000000000E-01  8.4181095618391E-01  5.3977796237873E-01
    96  9.5000000000000E-01  8.7008988424919E-01  4.3378282153172E-01
    97  9.6000000000000E-01  9.0085031327924E-01  3.2275205517825E-01
    98  9.7000000000000E-01  9.3237790792562E-01  2.0995384940273E-01
    99  9.8000000000000E-01  9.6286229566265E-01  9.8822485641038E-02
   100  9.9000000000000E-01  9.9044835091156E-01 -7.1361389579675E-03
   101  1.0000000000000E+00  1.0132897613364E+00 -1.0444294157598E-01
   102  1.0100000000000E+00  1.0296033743239E+00 -1.8974528240521E-01
   103  1.0200000000000E+00  1.0377227788630E+00 -2.5991496679581E-01
   104  1.0300000000000E+00  1.0361495791205E+00 -3.1214180246710E-01
   105  1.0400000000000E+00  1.0236008615104E+00 -3.4401998119103E-01
   106  1.0500000000000E+00  9.9905144619734E-01 -3.5362472170610E-01
   107  1.0600000000000E+00  9.6176964424670E-01 -3.3957685279926E-01
   108  1.0700000000000E+00  9.1134541037614E-01 -3.0109332759956E-01
   109  1.0800000000000E+00  8.4770998326480E-01 -2.3802203252456E-01
   110  1.0900000000000E+00  7.7114633552916E-01 -1.5085967764750E-01
   111  1.1000000000000E+00  6.8229000786972E-01 -4.0752018651623E-02
   112  1.1100000000000E+00  5.8212016803929E-01  9.0523851540736E-02
   113  1.1200000000000E+00  4.7194101023579E-01  2.4059489998203E-01
   114  1.1300000000000E+00  3.5335388306709E-01  4.0654449990733E-01
   115  1.1400000000000E+00  2.2822080060096E-01  5.8498049962998E-01
   116  1.1500000000000E+00  9.8620239232807E-02  7.7211733511069E-01
   117  1.1600000000000E+00 -3.3203649667346E-02  9.6387009340828E-01
   118  1.1700000000000E+00 -1.6489708604389E-01  1.1559580792465E+00
   119  1.1800000000000E+00 -2.9405647949785E-01  1.3440151440731E+00
   120  1.1900000000000E+00 -4.1829041320950E-01  1.5237038212704E+00
   121  1.2000000000000E+00 -5.3528211051455E-01  1.6908301746489E+00
   122  1.2100000000000E+00 -6.4285067203164E-01  1.8414562174669E+00
   123  1.2200000000000E+00 -7.3900938951529E-01  1.9720067962467E+00
   124  1.2300000000000E+00 -8.2201950910175E-01  2.0793679589192E+00
   125  1.2400000000000E+00 -8.9043792820307E-01  2.1609740345157E+00
   126  1.2500000000000E+00 -9.4315746644965E-01  2.2148809407437E+00
   127  1.2600000000000E+00 -9.7943854550704E-01  2.2398235947309E+00
   128  1.2700000000000E+00 -9.9893134046113E-01  2.2352557221325E+00
   129  1.2800000000000E+00 -1.0016877226794E+00  2.2013708331316E+00
   130  1.2900000000000E+00 -9.8816259018351E-01  2.1391036414789E+00
   131  1.3000000000000E+00 -9.5920447071094E-01  2.0501117338083E+00
   132  1.3100000000000E+00 -9.1603557829117E-01  1.9367378391165E+00
   133  1.3200000000000E+00 -8.6022179460666E-01  1.8019535810414E+00
   134  1.3300000000000E+00 -7.9363332533414E-01  1.6492861068890E+00
   135  1.3400000000000E+00 -7.1839704277221E-01  1.4827294657047E+00
   136  1.3500000000000E+00 -6.3684175840978E-01  1.3066430330608E+00
   137  1.3600000000000E+00 -5.5143787365757E-01  1.1256396509962E+00