S     ONCVPSP-4.0.1  r_core=   1.45687   1.45687   1.60321
     16.0000      6.0000      250925    zatom,zion,pspd
     8   -1012   2     4   600     0    pspcod,pspxc,lmax,lloc,mmax,r2well
  5.99000000  6.00000000  0.00000000    rchrg fchrg qchrg
     2     2     2     0    nproj
     3     1           extension_switch
     3     4     0    nprojso
   0                         6.8387692334799E+00  5.5386356191132E-01
     1  0.0000000000000E+00  2.3800542980901E-08 -1.0830962246522E-07
     2  1.0000000000000E-02  2.8887103266283E-02  4.4057932469963E-02
     3  2.0000000000000E-02  5.8052908187714E-02  8.6683530360062E-02
     4  3.0000000000000E-02  8.7767546292550E-02  1.2648403743962E-01
     5  4.0000000000000E-02  1.1828424381779E-01  1.6214477879471E-01
     6  5.0000000000000E-02  1.4983145009878E-01  1.9246554201523E-01
     7  6.0000000000000E-02  1.8260564553321E-01  2.1639384739373E-01
     8  7.0000000000000E-02  2.1676502670656E-01  2.3305420179959E-01
     9  8.0000000000000E-02  2.5242424246545E-01  2.4177253920125E-01
    10  9.0000000000000E-02  2.8965032619740E-01  2.4209518066196E-01
    11  1.0000000000000E-01  3.2845993708667E-01  2.3380179455587E-01
    12  1.1000000000000E-01  3.6881798754028E-01  2.1691199978549E-01
    13  1.2000000000000E-01  4.1063769627379E-01  1.9168542658876E-01
    14  1.3000000000000E-01  4.5378206772765E-01  1.5861522650249E-01
    15  1.4000000000000E-01  4.9806675959985E-01  1.1841520045212E-01
    16  1.5000000000000E-01  5.4326426237777E-01  7.2000887004783E-02
    17  1.6000000000000E-01  5.8910927885727E-01  2.0465116900052E-02
    18  1.7000000000000E-01  6.3530515872161E-01 -3.4951309355333E-02
    19  1.8000000000000E-01  6.8153121421167E-01 -9.2893030842803E-02
    20  1.9000000000000E-01  7.2745071854239E-01 -1.5192672042839E-01
    21  2.0000000000000E-01  7.7271936967680E-01 -2.1057987369190E-01
    22  2.1000000000000E-01  8.1699398888350E-01 -2.6738074101294E-01
    23  2.2000000000000E-01  8.5994121654570E-01 -3.2089831800564E-01
    24  2.3000000000000E-01  9.0124596716224E-01 -3.6978130544763E-01
    25  2.4000000000000E-01  9.4061941141518E-01 -4.1279497516445E-01
    26  2.5000000000000E-01  9.7780626543014E-01 -4.4885493239532E-01
    27  2.6000000000000E-01  1.0125911856134E+00 -4.7705684660146E-01
    28  2.7000000000000E-01  1.0448040912376E+00 -4.9670132936875E-01
    29  2.8000000000000E-01  1.0743242656408E+00 -5.0731326720558E-01
    30  2.9000000000000E-01  1.1010831197449E+00 -5.0865506524453E-01
    31  3.0000000000000E-01  1.1250655377137E+00 -5.0073342119815E-01
    32  3.1000000000000E-01  1.1463097629967E+00 -4.8379942306003E-01
    33  3.2000000000000E-01  1.1649058227167E+00 -4.5834194434338E-01
    34  3.3000000000000E-01  1.1809925282830E+00 -4.2507449229216E-01
    35  3.4000000000000E-01  1.1947531291795E+00 -3.8491584261704E-01
    36  3.5000000000000E-01  1.2064097340285E+00 -3.3896496410860E-01
    37  3.6000000000000E-01  1.2162166472511E+00 -2.8847089337787E-01
    38  3.7000000000000E-01  1.2244528000076E+00 -2.3479835971376E-01
    39  3.8000000000000E-01  1.2314134797620E+00 -1.7939007881242E-01
    40  3.9000000000000E-01  1.2374015830656E+00 -1.2372672865763E-01
    41  4.0000000000000E-01  1.2427186304199E+00 -6.9285688478500E-02
    42  4.1000000000000E-01  1.2476557899481E+00 -1.7499660553680E-02
    43  4.2000000000000E-01  1.2524851578305E+00  3.0283696497097E-02
    44  4.3000000000000E-01  1.2574515379773E+00  7.2840015766497E-02
    45  4.4000000000000E-01  1.2627649513283E+00  1.0910329567212E-01
    46  4.5000000000000E-01  1.2685940867816E+00  1.3819682339947E-01
    47  4.6000000000000E-01  1.2750608815097E+00  1.5945907917455E-01
    48  4.7000000000000E-01  1.2822363889514E+00  1.7246388303996E-01
    49  4.8000000000000E-01  1.2901380588226E+00  1.7703419705488E-01
    50  4.9000000000000E-01  1.2987285159609E+00  1.7324916371930E-01
    51  5.0000000000000E-01  1.3079158846923E+00  1.6144414153341E-01
    52  5.1000000000000E-01  1.3175556637368E+00  1.4220368619970E-01
    53  5.2000000000000E-01  1.3274541145759E+00  1.1634761608040E-01
    54  5.3000000000000E-01  1.3373730847999E+00  8.4910488079218E-02
    55  5.4000000000000E-01  1.3470361483611E+00  4.9114990094920E-02
    56  5.5000000000000E-01  1.3561359079487E+00  1.0339923752305E-02
    57  5.6000000000000E-01  1.3643422718780E+00 -2.9916398294781E-02
    58  5.7000000000000E-01  1.3713114898494E+00 -7.0076386687617E-02
    59  5.8000000000000E-01  1.3766957094795E+00 -1.0852598267464E-01
    60  5.9000000000000E-01  1.3801527992550E+00 -1.4365890254445E-01
    61  6.0000000000000E-01  1.3813561740147E+00 -1.7392113592885E-01
    62  6.1000000000000E-01  1.3800043565106E+00 -1.9785449863363E-01
    63  6.2000000000000E-01  1.3758300131609E+00 -2.1413805648876E-01
    64  6.3000000000000E-01  1.3686082137283E+00 -2.2162628425325E-01
    65  6.4000000000000E-01  1.3581636830597E+00 -2.1938290181253E-01
    66  6.5000000000000E-01  1.3443768377931E+00 -2.0670943689154E-01
    67  6.6000000000000E-01  1.3271884314450E+00 -1.8316769662970E-01
    68  6.7000000000000E-01  1.3066026667839E+00 -1.4859548627533E-01
    69  6.8000000000000E-01  1.2826886739636E+00 -1.0311508796331E-01
    70  6.9000000000000E-01  1.2555802955119E+00 -4.7134201565590E-02
    71  7.0000000000000E-01  1.2254741638500E+00  1.8660751990381E-02
    72  7.1000000000000E-01  1.1926261023776E+00  9.3318861905612E-02
    73  7.2000000000000E-01  1.1573459261083E+00  1.7564618867592E-01
    74  7.3000000000000E-01  1.1199907611897E+00  2.6423395566563E-01
    75  7.4000000000000E-01  1.0809570432223E+00  3.5749278814325E-01
    76  7.5000000000000E-01  1.0406713910126E+00  4.5369215004002E-01
    77  7.6000000000000E-01  9.9958058425895E-01  5.5100398301780E-01
    78  7.7000000000000E-01  9.5814089977761E-01  6.4754943187848E-01
    79  7.8000000000000E-01  9.1680708051331E-01  7.4144744827040E-01
    80  7.9000000000000E-01  8.7602122415383E-01  8.3086400368886E-01
    81  8.0000000000000E-01  8.3620188330131E-01  9.1406061477378E-01
    82  8.1000000000000E-01  7.9773366664021E-01  9.8944088985542E-01
    83  8.2000000000000E-01  7.6095762038538E-01  1.0555938456940E+00
    84  8.3000000000000E-01  7.2616265169457E-01  1.1113328166103E+00
    85  8.4000000000000E-01  6.9357823108537E-01  1.1557288830412E+00
    86  8.5000000000000E-01  6.6336857979264E-01  1.1881378804712E+00
    87  8.6000000000000E-01  6.3562851119818E-01  1.2082202093994E+00
    88  8.7000000000000E-01  6.1038105387383E-01  1.2159528485160E+00
    89  8.8000000000000E-01  5.8757693844877E-01  1.2116331720093E+00
    90  8.9000000000000E-01  5.6709598259343E-01  1.1958743828200E+00
    91  9.0000000000000E-01  5.4875035913549E-01  1.1695925913162E+00
    92  9.1000000000000E-01  5.3228968296029E-01  1.1339857876181E+00
    93  9.2000000000000E-01  5.1740780418589E-01  1.0905051699852E+00
    94  9.3000000000000E-01  5.0375114940458E-01  1.0408194956553E+00
    95  9.4000000000000E-01  4.9092841075862E-01  9.8677330891512E-01
    96  9.5000000000000E-01  4.7852134539197E-01  9.3034006895643E-01
    97  9.6000000000000E-01  4.6609641640117E-01  8.7357134270617E-01
    98  9.7000000000000E-01  4.5321698165331E-01  8.1854334145708E-01
    99  9.8000000000000E-01  4.3945571945862E-01  7.6730216152794E-01
   100  9.9000000000000E-01  4.2440697058335E-01  7.2180913605017E-01
   101  1.0000000000000E+00  4.0769867477246E-01  6.8388771583831E-01
   102  1.0100000000000E+00  3.8900358693622E-01  6.5517327156932E-01
   103  1.0200000000000E+00  3.6804947332709E-01  6.3706714755757E-01
   104  1.0300000000000E+00  3.4462801104487E-01  6.3069620071658E-01
   105  1.0400000000000E+00  3.1860214457056E-01  6.3687892891304E-01
   106  1.0500000000000E+00  2.8991169001424E-01  6.5609913397365E-01
   107  1.0600000000000E+00  2.5857702038890E-01  6.8848788034208E-01
   108  1.0700000000000E+00  2.2470071262581E-01  7.3381430457167E-01
   109  1.0800000000000E+00  1.8846708783074E-01  7.9148560956075E-01
   110  1.0900000000000E+00  1.5013962930716E-01  8.6055634568457E-01
   111  1.1000000000000E+00  1.1005631684515E-01  9.3974684442675E-01
   112  1.1100000000000E+00  6.8622969055460E-02  1.0274704359727E+00
   113  1.1200000000000E+00  2.6304737222252E-02  1.1218688544338E+00
   114  1.1300000000000E+00 -1.6384057696258E-02  1.2208550215405E+00
   115  1.1400000000000E+00 -5.8891509228036E-02  1.3221622042285E+00
   116  1.1500000000000E+00 -1.0064085690635E-01  1.4233983717849E+00
   117  1.1600000000000E+00 -1.4104405953216E-01  1.5221044356468E+00
   118  1.1700000000000E+00 -1.7951588048846E-01  1.6158149460090E+00
   119  1.1800000000000E+00 -2.1548813925863E-01  1.7021197448792E+00
   120  1.1900000000000E+00 -2.4842377586943E-01  1.7787250388187E+00
   121  1.2000000000000E+00 -2.7783037632673E-01  1.8435123565449E+00
   122  1.2100000000000E+00 -3.0327281732892E-01  1.8945938973895E+00
   123  1.2200000000000E+00 -3.2438470737991E-01  1.9303628552335E+00
   124  1.2300000000000E+00 -3.4087832862685E-01  1.9495374179375E+00
   125  1.2400000000000E+00 -3.5255281825639E-01  1.9511972898956E+00
   126  1.2500000000000E+00 -3.5930036992296E-01  1.9348117643874E+00
   127  1.2600000000000E+00 -3.6111028281910E-01  1.9002585758394E+00
   128  1.2700000000000E+00 -3.5807073767852E-01  1.8478329857487E+00
   129  1.2800000000000E+00 -3.5036823435034E-01  1.7782467960692E+00
   130  1.2900000000000E+00 -3.3828468251217E-01  1.6926172312056E+00
   131  1.3000000000000E+00 -3.2219219459761E-01  1.5924458800143E+00
   132  1.3100000000000E+00 -3.0254568691137E-01  1.4795881371649E+00
   133  1.3200000000000E+00 -2.7987344910977E-01  1.3562138197650E+00
   134  1.3300000000000E+00 -2.5476589276019E-01  1.2247598559899E+00
   135  1.3400000000000E+00 -2.2786273552184E-01  1.0878761430471E+00
   136  1.3500000000000E+00 -1.9983891683231E-01  9.4836584431777E-01
   137  1.3600000000000E+00 -1.7138957521773E-01  8.0912154573589E-01
   138  1.3700000000000E+00 -1.4321442025749E-01  6.7305870822720E-01
   139  1.3800000000000E+00 -1.1600195638100E-01  5.4304837944294E-01
   140  1.3900000000000E+00 -9.0412462544691E-02  4.2184453249323E-01
   141  1.4000000000000E+00 -6.7062080819785E-02  3.1201563224099E-01
   142  1.4100000000000E+00 -4.6517104445343E-02  2.1592029173265E-01
   143  1.4200000000000E+00 -2.9273864336351E-02  1.3562282668855E-01
   144  1.4300000000000E+00 -1.5747296579836E-02  7.2846383104547E-02
   145  1.4400000000000E+00 -6.2584806095139E-03  2.8919293337524E-02
   146  1.4500000000000E+00 -1.0797518477106E-03  4.9855338317121E-03
   147  1.4600000000000E+00  8.2313635250736E-05 -3.7989380835921E-04
   148  1.4700000000000E+00 -2.4701176126297E-05  1.1401371891988E-04
   149  1.48  0.  0.
   150  1.49  0.  0.
   151  1.50  0.  0.
   152  1.51  0.  0.
   153  1.52  0.  0.
   154  1.53  0.  0.
   155  1.54  0.  0.
   156  1.55  0.  0.
   157  1.56  0.  0.
   158  1.57  0.  0.
   159  1.58  0.  0.
   160  1.59  0.  0.
   161  1.60  0.  0.
   162  1.61  0.  0.
   163  1.62  0.  0.
   164  1.63  0.  0.
   165  1.64  0.  0.
   166  1.65  0.  0.
   167  1.66  0.  0.
   168  1.67  0.  0.
   169  1.68  0.  0.
   170  1.69  0.  0.
   171  1.70  0.  0.
   172  1.71  0.  0.
   173  1.72  0.  0.
   174  1.73  0.  0.
   175  1.74  0.  0.
   176  1.75  0.  0.
   177  1.76  0.  0.
   178  1.77  0.  0.
   179  1.78  0.  0.
   180  1.79  0.  0.
   181  1.80  0.  0.
   182  1.81  0.  0.
   183  1.82  0.  0.
   184  1.83  0.  0.
   185  1.84  0.  0.
   186  1.85  0.  0.
   187  1.86  0.  0.
   188  1.87  0.  0.
   189  1.88  0.  0.
   190  1.89  0.  0.
   191  1.90  0.  0.
   192  1.91  0.  0.
   193  1.92  0.  0.
   194  1.93  0.  0.
   195  1.94  0.  0.
   196  1.95  0.  0.
   197  1.96  0.  0.
   198  1.97  0.  0.
   199  1.98  0.  0.
   200  1.99  0.  0.
   201  2.00  0.  0.
   202  2.01  0.  0.
   203  2.02  0.  0.
   204  2.03  0.  0.
   205  2.04  0.  0.
   206  2.05  0.  0.
   207  2.06  0.  0.
   208  2.07  0.  0.
   209  2.08  0.  0.
   210  2.09  0.  0.
   211  2.10  0.  0.
   212  2.11  0.  0.
   213  2.12  0.  0.
   214  2.13  0.  0.
   215  2.14  0.  0.
   216  2.15  0.  0.
   217  2.16  0.  0.
   218  2.17  0.  0.
   219  2.18  0.  0.
   220  2.19  0.  0.
   221  2.20  0.  0.
   222  2.21  0.  0.
   223  2.22  0.  0.
   224  2.23  0.  0.
   225  2.24  0.  0.
   226  2.25  0.  0.
   227  2.26  0.  0.
   228  2.27  0.  0.
   229  2.28  0.  0.
   230  2.29  0.  0.
   231  2.30  0.  0.
   232  2.31  0.  0.
   233  2.32  0.  0.
   234  2.33  0.  0.
   235  2.34  0.  0.
   236  2.35  0.  0.
   237  2.36  0.  0.
   238  2.37  0.  0.
   239  2.38  0.  0.
   240  2.39  0.  0.
   241  2.40  0.  0.
   242  2.41  0.  0.
   243  2.42  0.  0.
   244  2.43  0.  0.
   245  2.44  0.  0.
   246  2.45  0.  0.
   247  2.46  0.  0.
   248  2.47  0.  0.
   249  2.48  0.  0.
   250  2.49  0.  0.
   251  2.50  0.  0.
   252  2.51  0.  0.
   253  2.52  0.  0.
   254  2.53  0.  0.
   255  2.54  0.  0.
   256  2.55  0.  0.
   257  2.56  0.  0.
   258  2.57  0.  0.
   259  2.58  0.  0.
   260  2.59  0.  0.
   261  2.60  0.  0.
   262  2.61  0.  0.
   263  2.62  0.  0.
   264  2.63  0.  0.
   265  2.64  0.  0.
   266  2.65  0.  0.
   267  2.66  0.  0.
   268  2.67  0.  0.
   269  2.68  0.  0.
   270  2.69  0.  0.
   271  2.70  0.  0.
   272  2.71  0.  0.
   273  2.72  0.  0.
   274  2.73  0.  0.
   275  2.74  0.  0.
   276  2.75  0.  0.
   277  2.76  0.  0.
   278  2.77  0.  0.
   279  2.78  0.  0.
   280  2.79  0.  0.
   281  2.80  0.  0.
   282  2.81  0.  0.
   283  2.82  0.  0.
   284  2.83  0.  0.
   285  2.84  0.  0.
   286  2.85  0.  0.
   287  2.86  0.  0.
   288  2.87  0.  0.
   289  2.88  0.  0.
   290  2.89  0.  0.
   291  2.90  0.  0.
   292  2.91  0.  0.
   293  2.92  0.  0.
   294  2.93  0.  0.
   295  2.94  0.  0.
   296  2.95  0.  0.
   297  2.96  0.  0.
   298  2.97  0.  0.
   299  2.98  0.  0.
   300  2.99  0.  0.
   301  3.00  0.  0.
   302  3.01  0.  0.
   303  3.02  0.  0.
   304  3.03  0.  0.
   305  3.04  0.  0.
   306  3.05  0.  0.
   307  3.06  0.  0.
   308  3.07  0.  0.
   309  3.08  0.  0.
   310  3.09  0.  0.
   311  3.10  0.  0.
   312  3.11  0.  0.
   313  3.12  0.  0.
   314  3.13  0.  0.
   315  3.14  0.  0.
   316  3.15  0.  0.
   317  3.16  0.  0.
   318  3.17  0.  0.
   319  3.18  0.  0.
   320  3.19  0.  0.
   321  3.20  0.  0.
   322  3.21  0.  0.
   323  3.22  0.  0.
   324  3.23  0.  0.
   325  3.24  0.  0.
   326  3.25  0.  0.
   327  3.26  0.  0.
   328  3.27  0.  0.
   329  3.28  0.  0.
   330  3.29  0.  0.
   331  3.30  0.  0.
   332  3.31  0.  0.
   333  3.32  0.  0.
   334  3.33  0.  0.
   335  3.34  0.  0.
   336  3.35  0.  0.
   337  3.36  0.  0.
   338  3.37  0.  0.
   339  3.38  0.  0.
   340  3.39  0.  0.
   341  3.40  0.  0.
   342  3.41  0.  0.
   343  3.42  0.  0.
   344  3.43  0.  0.
   345  3.44  0.  0.
   346  3.45  0.  0.
   347  3.46  0.  0.
   348  3.47  0.  0.
   349  3.48  0.  0.
   350  3.49  0.  0.
   351  3.50  0.  0.
   352  3.51  0.  0.
   353  3.52  0.  0.
   354  3.53  0.  0.
   355  3.54  0.  0.
   356  3.55  0.  0.
   357  3.56  0.  0.
   358  3.57  0.  0.
   359  3.58  0.  0.
   360  3.59  0.  0.
   361  3.60  0.  0.
   362  3.61  0.  0.
   363  3.62  0.  0.
   364  3.63  0.  0.
   365  3.64  0.  0.
   366  3.65  0.  0.
   367  3.66  0.  0.
   368  3.67  0.  0.
   369  3.68  0.  0.
   370  3.69  0.  0.
   371  3.70  0.  0.
   372  3.71  0.  0.
   373  3.72  0.  0.
   374  3.73  0.  0.
   375  3.74  0.  0.
   376  3.75  0.  0.
   377  3.76  0.  0.
   378  3.77  0.  0.
   379  3.78  0.  0.
   380  3.79  0.  0.
   381  3.80  0.  0.
   382  3.81  0.  0.
   383  3.82  0.  0.
   384  3.83  0.  0.
   385  3.84  0.  0.
   386  3.85  0.  0.
   387  3.86  0.  0.
   388  3.87  0.  0.
   389  3.88  0.  0.
   390  3.89  0.  0.
   391  3.90  0.  0.
   392  3.91  0.  0.
   393  3.92  0.  0.
   394  3.93  0.  0.
   395  3.94  0.  0.
   396  3.95  0.  0.
   397  3.96  0.  0.
   398  3.97  0.  0.
   399  3.98  0.  0.
   400  3.99  0.  0.
   401  4.00  0.  0.
   402  4.01  0.  0.
   403  4.02  0.  0.
   404  4.03  0.  0.
   405  4.04  0.  0.
   406  4.05  0.  0.
   407  4.06  0.  0.
   408  4.07  0.  0.
   409  4.08  0.  0.
   410  4.09  0.  0.
   411  4.10  0.  0.
   412  4.11  0.  0.
   413  4.12  0.  0.
   414  4.13  0.  0.
   415  4.14  0.  0.
   416  4.15  0.  0.
   417  4.16  0.  0.
   418  4.17  0.  0.
   419  4.18  0.  0.
   420  4.19  0.  0.
   421  4.20  0.  0.
   422  4.21  0.  0.
   423  4.22  0.  0.
   424  4.23  0.  0.
   425  4.24  0.  0.
   426  4.25  0.  0.
   427  4.26  0.  0.
   428  4.27  0.  0.
   429  4.28  0.  0.
   430  4.29  0.  0.
   431  4.30  0.  0.
   432  4.31  0.  0.
   433  4.32  0.  0.
   434  4.33  0.  0.
   435  4.34  0.  0.
   436  4.35  0.  0.
   437  4.36  0.  0.
   438  4.37  0.  0.
   439  4.38  0.  0.
   440  4.39  0.  0.
   441  4.40  0.  0.
   442  4.41  0.  0.
   443  4.42  0.  0.
   444  4.43  0.  0.
   445  4.44  0.  0.
   446  4.45  0.  0.
   447  4.46  0.  0.
   448  4.47  0.  0.
   449  4.48  0.  0.
   450  4.49  0.  0.
   451  4.50  0.  0.
   452  4.51  0.  0.
   453  4.52  0.  0.
   454  4.53  0.  0.
   455  4.54  0.  0.
   456  4.55  0.  0.
   457  4.56  0.  0.
   458  4.57  0.  0.
   459  4.58  0.  0.
   460  4.59  0.  0.
   461  4.60  0.  0.
   462  4.61  0.  0.
   463  4.62  0.  0.
   464  4.63  0.  0.
   465  4.64  0.  0.
   466  4.65  0.  0.
   467  4.66  0.  0.
   468  4.67  0.  0.
   469  4.68  0.  0.
   470  4.69  0.  0.
   471  4.70  0.  0.
   472  4.71  0.  0.
   473  4.72  0.  0.
   474  4.73  0.  0.
   475  4.74  0.  0.
   476  4.75  0.  0.
   477  4.76  0.  0.
   478  4.77  0.  0.
   479  4.78  0.  0.
   480  4.79  0.  0.
   481  4.80  0.  0.
   482  4.81  0.  0.
   483  4.82  0.  0.
   484  4.83  0.  0.
   485  4.84  0.  0.
   486  4.85  0.  0.
   487  4.86  0.  0.
   488  4.87  0.  0.
   489  4.88  0.  0.
   490  4.89  0.  0.
   491  4.90  0.  0.
   492  4.91  0.  0.
   493  4.92  0.  0.
   494  4.93  0.  0.
   495  4.94  0.  0.
   496  4.95  0.  0.
   497  4.96  0.  0.
   498  4.97  0.  0.
   499  4.98  0.  0.
   500  4.99  0.  0.
   501  5.00  0.  0.
   502  5.01  0.  0.
   503  5.02  0.  0.
   504  5.03  0.  0.
   505  5.04  0.  0.
   506  5.05  0.  0.
   507  5.06  0.  0.
   508  5.07  0.  0.
   509  5.08  0.  0.
   510  5.09  0.  0.
   511  5.10  0.  0.
   512  5.11  0.  0.
   513  5.12  0.  0.
   514  5.13  0.  0.
   515  5.14  0.  0.
   516  5.15  0.  0.
   517  5.16  0.  0.
   518  5.17  0.  0.
   519  5.18  0.  0.
   520  5.19  0.  0.
   521  5.20  0.  0.
   522  5.21  0.  0.
   523  5.22  0.  0.
   524  5.23  0.  0.
   525  5.24  0.  0.
   526  5.25  0.  0.
   527  5.26  0.  0.
   528  5.27  0.  0.
   529  5.28  0.  0.
   530  5.29  0.  0.
   531  5.30  0.  0.
   532  5.31  0.  0.
   533  5.32  0.  0.
   534  5.33  0.  0.
   535  5.34  0.  0.
   536  5.35  0.  0.
   537  5.36  0.  0.
   538  5.37  0.  0.
   539  5.38  0.  0.
   540  5.39  0.  0.
   541  5.40  0.  0.
   542  5.41  0.  0.
   543  5.42  0.  0.
   544  5.43  0.  0.
   545  5.44  0.  0.
   546  5.45  0.  0.
   547  5.46  0.  0.
   548  5.47  0.  0.
   549  5.48  0.  0.
   550  5.49  0.  0.
   551  5.50  0.  0.
   552  5.51  0.  0.
   553  5.52  0.  0.
   554  5.53  0.  0.
   555  5.54  0.  0.
   556  5.55  0.  0.
   557  5.56  0.  0.
   558  5.57  0.  0.
   559  5.58  0.  0.
   560  5.59  0.  0.
   561  5.60  0.  0.
   562  5.61  0.  0.
   563  5.62  0.  0.
   564  5.63  0.  0.
   565  5.64  0.  0.
   566  5.65  0.  0.
   567  5.66  0.  0.
   568  5.67  0.  0.
   569  5.68  0.  0.
   570  5.69  0.  0.
   571  5.70  0.  0.
   572  5.71  0.  0.
   573  5.72  0.  0.
   574  5.73  0.  0.
   575  5.74  0.  0.
   576  5.75  0.  0.
   577  5.76  0.  0.
   578  5.77  0.  0.
   579  5.78  0.  0.
   580  5.79  0.  0.
   581  5.80  0.  0.
   582  5.81  0.  0.
   583  5.82  0.  0.
   584  5.83  0.  0.
   585  5.84  0.  0.
   586  5.85  0.  0.
   587  5.86  0.  0.
   588  5.87  0.  0.
   589  5.88  0.  0.
   590  5.89  0.  0.
   591  5.90  0.  0.
   592  5.91  0.  0.
   593  5.92  0.  0.
   594  5.93  0.  0.
   595  5.94  0.  0.
   596  5.95  0.  0.
   597  5.96  0.  0.
   598  5.97  0.  0.
   599  5.98  0.  0.
   600  5.99  0.  0.
   1                         3.0660791526342E+00  7.4008122435535E-01
     1  0.0000000000000E+00 -1.2392964673924E-07  2.2233715601949E-07
     2  1.0000000000000E-02 -1.4143257570618E-03  3.9596734329127E-03
     3  2.0000000000000E-02 -5.5837350384380E-03  1.5704538123330E-02
     4  3.0000000000000E-02 -1.2290045457981E-02  3.4836645684979E-02
     5  4.0000000000000E-02 -2.1177943092612E-02  6.0707663237160E-02
     6  5.0000000000000E-02 -3.1767183536482E-02  9.2440735097388E-02
     7  6.0000000000000E-02 -4.3469114567172E-02  1.2896008588560E-01
     8  7.0000000000000E-02 -5.5606982890149E-02  1.6902740006994E-01
     9  8.0000000000000E-02 -6.7439363498073E-02  2.1128379064712E-01
    10  9.0000000000000E-02 -7.8185947215272E-02  2.5429598503946E-01
    11  1.0000000000000E-01 -8.7054843285161E-02  2.9660521532285E-01
    12  1.1000000000000E-01 -9.3270501935217E-02  3.3677720712951E-01
    13  1.2000000000000E-01 -9.6101338420925E-02  3.7345162004717E-01
    14  1.3000000000000E-01 -9.4886145919632E-02  4.0538930351008E-01
    15  1.4000000000000E-01 -8.9058419713729E-02  4.3151579584562E-01
    16  1.5000000000000E-01 -7.8167778352498E-02  4.5095960845266E-01
    17  1.6000000000000E-01 -6.1897757010840E-02  4.6308399860110E-01
    18  1.7000000000000E-01 -4.0079361340133E-02  4.6751113812128E-01
    19  1.8000000000000E-01 -1.2699903255608E-02  4.6413782501979E-01
    20  1.9000000000000E-01  2.0093210790610E-02  4.5314215338773E-01
    21  2.0000000000000E-01  5.7993908072010E-02  4.3498084550497E-01
    22  2.1000000000000E-01  1.0054409665572E-01  4.1037724977176E-01
    23  2.2000000000000E-01  1.4714536569576E-01  3.8030030960440E-01
    24  2.3000000000000E-01  1.9707540970198E-01  3.4593510220724E-01
    25  2.4000000000000E-01  2.4950869322215E-01  3.0864582286148E-01
    26  2.5000000000000E-01  3.0354073232637E-01  2.6993234122493E-01
    27  2.6000000000000E-01  3.5821524798984E-01  2.3138167304379E-01
    28  2.7000000000000E-01  4.1255334786062E-01  1.9461588658612E-01
    29  2.8000000000000E-01  4.6558382022030E-01  1.6123809219875E-01
    30  2.9000000000000E-01  5.1637357965297E-01  1.3277824127514E-01
    31  3.0000000000000E-01  5.6405728962269E-01  1.1064048477842E-01
    32  3.1000000000000E-01  6.0786520348714E-01  9.6053810133581E-02
    33  3.2000000000000E-01  6.4714831216675E-01  9.0027589339513E-02
    34  3.3000000000000E-01  6.8139996251745E-01  9.3313532809907E-02
    35  3.4000000000000E-01  7.1027321328545E-01  1.0637535663412E-01
    36  3.5000000000000E-01  7.3359332236296E-01  1.2936724108922E-01
    37  3.6000000000000E-01  7.5136490616093E-01  1.6212189214466E-01
    38  3.7000000000000E-01  7.6377347485627E-01  2.0414872336922E-01
    39  3.8000000000000E-01  7.7118122112589E-01  2.5464236200247E-01
    40  3.9000000000000E-01  7.7411711943554E-01  3.1250135958480E-01
    41  4.0000000000000E-01  7.7326157248669E-01  3.7635666442748E-01
    42  4.1000000000000E-01  7.6942601546584E-01  4.4460910039667E-01
    43  4.2000000000000E-01  7.6352805184127E-01  5.1547480380150E-01
    44  4.3000000000000E-01  7.5656284145553E-01  5.8703730689762E-01
    45  4.4000000000000E-01  7.4957158786391E-01  6.5730473110087E-01
    46  4.5000000000000E-01  7.4360807316346E-01  7.2427037281747E-01
    47  4.6000000000000E-01  7.3970426156868E-01  7.8597483587726E-01
    48  4.7000000000000E-01  7.3883603518098E-01  8.4056779142604E-01
    49  4.8000000000000E-01  7.4189013515371E-01  8.8636743163887E-01
    50  4.9000000000000E-01  7.4963335813865E-01  9.2191572883405E-01
    51  5.0000000000000E-01  7.6268500188360E-01  9.4602771575012E-01
    52  5.1000000000000E-01  7.8149346650959E-01  9.5783316333770E-01
    53  5.2000000000000E-01  8.0631780167738E-01  9.5680924509917E-01
    54  5.3000000000000E-01  8.3721484780752E-01  9.4280303583742E-01
    55  5.4000000000000E-01  8.7403245581890E-01  9.1604299023087E-01
    56  5.5000000000000E-01  9.1640908926507E-01  8.7713887426086E-01
    57  5.6000000000000E-01  9.6377992060908E-01  8.2706997049995E-01
    58  5.7000000000000E-01  1.0153893354198E+00  7.6716173622567E-01
    59  5.8000000000000E-01  1.0703095604688E+00  6.9905145044012E-01
    60  5.9000000000000E-01  1.1274649400806E+00  6.2464373125286E-01
    61  6.0000000000000E-01  1.1856612055427E+00  5.4605712806402E-01
    62  6.1000000000000E-01  1.2436189205096E+00  4.6556328347300E-01
    63  6.2000000000000E-01  1.3000101462524E+00  3.8552040862241E-01
    64  6.3000000000000E-01  1.3534972587978E+00  3.0830301471254E-01
    65  6.4000000000000E-01  1.4027727691681E+00  2.3622998605674E-01
    66  6.5000000000000E-01  1.4465989508835E+00  1.7149316128910E-01
    67  6.6000000000000E-01  1.4838460674439E+00  1.1608860598192E-01
    68  6.7000000000000E-01  1.5135280174278E+00  7.1752710684625E-02
    69  6.8000000000000E-01  1.5348342758117E+00  3.9905133950224E-02
    70  6.9000000000000E-01  1.5471571057193E+00  2.1600432898468E-02
    71  7.0000000000000E-01  1.5501131425833E+00  1.7489988866870E-02
    72  7.1000000000000E-01  1.5435586092010E+00  2.7795549029560E-02
    73  7.2000000000000E-01  1.5275976010122E+00  5.2295374551627E-02
    74  7.3000000000000E-01  1.5025830810281E+00  9.0323621181987E-02
    75  7.4000000000000E-01  1.4691104373864E+00  1.4078318976204E-01
    76  7.5000000000000E-01  1.4280036773209E+00  2.0217188319342E-01
    77  7.6000000000000E-01  1.3802945528717E+00  2.7262130483577E-01
    78  7.7000000000000E-01  1.3271951293372E+00  3.4994754306945E-01
    79  7.8000000000000E-01  1.2700645107750E+00  4.3171231964268E-01
    80  7.9000000000000E-01  1.2103706216121E+00  5.1529294661262E-01
    81  8.0000000000000E-01  1.1496481038843E+00  5.9795914857221E-01
    82  8.1000000000000E-01  1.0894535207561E+00  6.7695457249249E-01
    83  8.2000000000000E-01  1.0313191545238E+00  7.4958063455091E-01
    84  8.3000000000000E-01  9.7670674799054E-01  8.1328024763928E-01
    85  8.4000000000000E-01  9.2696255968378E-01  8.6571893881212E-01
    86  8.5000000000000E-01  8.8327508476424E-01  9.0486090464394E-01
    87  8.6000000000000E-01  8.4663673472337E-01  9.2903766407035E-01
    88  8.7000000000000E-01  8.1781067134023E-01  9.3700715039702E-01
    89  8.8000000000000E-01  7.9730385628951E-01  9.2800133227203E-01
    90  8.9000000000000E-01  7.8534721077411E-01  9.0176076103873E-01
    91  9.0000000000000E-01  7.8188358412125E-01  8.5855480070492E-01
    92  9.1000000000000E-01  7.8656401183413E-01  7.9918669687335E-01
    93  9.2000000000000E-01  7.9875250826813E-01  7.2498307115272E-01
    94  9.3000000000000E-01  8.1753939359331E-01  6.3776787558283E-01
    95  9.4000000000000E-01  8.4176290607347E-01  5.3982129458534E-01
    96  9.5000000000000E-01  8.7003860615305E-01  4.3382452674554E-01
    97  9.6000000000000E-01  9.0079584561421E-01  3.2279180220684E-01
    98  9.7000000000000E-01  9.3232035995707E-01  2.0999138124560E-01
    99  9.8000000000000E-01  9.6280185177376E-01  9.8857623697036E-02
   100  9.9000000000000E-01  9.9038527289737E-01 -7.1034929381156E-03
   101  1.0000000000000E+00  1.0132243885905E+00 -1.0441280584373E-01
   102  1.0100000000000E+00  1.0295361218416E+00 -1.8971759785662E-01
   103  1.0200000000000E+00  1.0376541330443E+00 -2.5988960181441E-01
   104  1.0300000000000E+00  1.0360800914161E+00 -3.1211855981265E-01
   105  1.0400000000000E+00  1.0235311400166E+00 -3.4399860671660E-01
   106  1.0500000000000E+00  9.9898214536347E-01 -3.5360491463012E-01
   107  1.0600000000000E+00  9.6170145291488E-01 -3.3955827721125E-01
   108  1.0700000000000E+00  9.1127903842405E-01 -3.0107562484025E-01
   109  1.0800000000000E+00  8.4764614716686E-01 -2.3800483405408E-01
   110  1.0900000000000E+00  7.7108574318761E-01 -1.5084261800031E-01
   111  1.1000000000000E+00  6.8223334309523E-01 -4.0734748074191E-02
   112  1.1100000000000E+00  5.8206807507842E-01  9.0541655163371E-02
   113  1.1200000000000E+00  4.7189407875037E-01  2.4061352028235E-01
   114  1.1300000000000E+00  3.5331263396712E-01  4.0656417261130E-01
   115  1.1400000000000E+00  2.2818567311878E-01  5.8500140484512E-01
   116  1.1500000000000E+00  9.8591579601319E-02  7.7213959156405E-01
   117  1.1600000000000E+00 -3.3225597604244E-02  9.6389375480985E-01
   118  1.1700000000000E+00 -1.6491218800476E-01  1.1559831328852E+00
   119  1.1800000000000E+00 -2.9406471548944E-01  1.3440415116807E+00
   120  1.1900000000000E+00 -4.1829187963255E-01  1.5237313621154E+00
   121  1.2000000000000E+00 -5.3527701954204E-01  1.6908586907477E+00
   122  1.2100000000000E+00 -6.4283934822063E-01  1.8414854607333E+00
   123  1.2200000000000E+00 -7.3899226368388E-01  1.9720364773315E+00
   124  1.2300000000000E+00 -8.2199710957340E-01  2.0793977574386E+00
   125  1.2400000000000E+00 -8.9041086958947E-01  2.1610036103156E+00
   126  1.2500000000000E+00 -9.4312643620884E-01  2.2149099458126E+00
   127  1.2600000000000E+00 -9.7940428857326E-01  2.2398516853463E+00
   128  1.2700000000000E+00 -9.9889464229628E-01  2.2352825708151E+00
   129  1.2800000000000E+00 -1.0016493911402E+00  2.2013961399831E+00
   130  1.2900000000000E+00 -9.8812343663370E-01  2.1391271444929E+00
   131  1.3000000000000E+00 -9.5916529083186E-01  2.0501332177736E+00
   132  1.3100000000000E+00 -9.1599713305684E-01  1.9367571427720E+00
   133  1.3200000000000E+00 -8.6018479189038E-01  1.8019706021970E+00
   134  1.3300000000000E+00 -7.9359840260261E-01  1.6493008052850E+00
   135  1.3400000000000E+00 -7.1836475130012E-01  1.4827418634587E+00
   136  1.3500000000000E+00 -6.3681254941396E-01  1.3066532126231E+00
   137  1.3600000000000E+00 -5.5141208670233E-01  1.1256477506163E+00