Bi    ONCVPSP-4.0.1  r_core=   2.40513   2.50798   2.10854
     83.0000     15.0000      231019    zatom,zion,pspd
     8       2   2     4   600     0    pspcod,pspxc,lmax,lloc,mmax,r2well
  5.99000000  6.00000000  0.00000000    rchrg fchrg qchrg
     2     2     2     0     0    nproj
     1     1           extension_switch
   0                         5.5954488212233E+00  7.8947015580671E-01
     1  0.0000000000000E+00 -9.5164431890282E-12  2.3436884377670E-11
     2  1.0000000000000E-02  1.9454092740681E-02 -6.7793478251125E-03
     3  2.0000000000000E-02  3.8893378192296E-02 -1.3530413528555E-02
     4  3.0000000000000E-02  5.8303126954021E-02 -2.0225098555212E-02
     5  4.0000000000000E-02  7.7668764933436E-02 -2.6835670365071E-02
     6  5.0000000000000E-02  9.6975949832930E-02 -3.3334942651667E-02
     7  6.0000000000000E-02  1.1621064624147E-01 -3.9696452230157E-02
     8  7.0000000000000E-02  1.3535919887803E-01 -4.5894631512400E-02
     9  8.0000000000000E-02  1.5440840354241E-01 -5.1904975509836E-02
    10  9.0000000000000E-02  1.7334557534121E-01 -5.7704202333997E-02
    11  1.0000000000000E-01  1.9215861377031E-01 -6.3270406199076E-02
    12  1.1000000000000E-01  2.1083606425205E-01 -6.8583201970889E-02
    13  1.2000000000000E-01  2.2936717574301E-01 -7.3623860351634E-02
    14  1.3000000000000E-01  2.4774195404921E-01 -7.8375432839899E-02
    15  1.4000000000000E-01  2.6595121050734E-01 -8.2822865660139E-02
    16  1.5000000000000E-01  2.8398660571510E-01 -8.6953101915008E-02
    17  1.6000000000000E-01  3.0184068801950E-01 -9.0755171277360E-02
    18  1.7000000000000E-01  3.1950692649920E-01 -9.4220266606003E-02
    19  1.8000000000000E-01  3.3697973820624E-01 -9.7341806940049E-02
    20  1.9000000000000E-01  3.5425450946248E-01 -1.0011548640089E-01
    21  2.0000000000000E-01  3.7132761103762E-01 -1.0253930860757E-01
    22  2.1000000000000E-01  3.8819640706839E-01 -1.0461360629085E-01
    23  2.2000000000000E-01  4.0485925761163E-01 -1.0634104587278E-01
    24  2.3000000000000E-01  4.2131551475828E-01 -1.0772661686168E-01
    25  2.4000000000000E-01  4.3756551227030E-01 -1.0877760599724E-01
    26  2.5000000000000E-01  4.5361054873731E-01 -1.0950355616557E-01
    27  2.6000000000000E-01  4.6945286428564E-01 -1.0991621019015E-01
    28  2.7000000000000E-01  4.8509561090758E-01 -1.1002943969050E-01
    29  2.8000000000000E-01  5.0054281651453E-01 -1.0985915928580E-01
    30  2.9000000000000E-01  5.1579934285256E-01 -1.0942322650579E-01
    31  3.0000000000000E-01  5.3087083745390E-01 -1.0874132785417E-01
    32  3.1000000000000E-01  5.4576367983187E-01 -1.0783485155207E-01
    33  3.2000000000000E-01  5.6048492216032E-01 -1.0672674756836E-01
    34  3.3000000000000E-01  5.7504222471092E-01 -1.0544137562098E-01
    35  3.4000000000000E-01  5.8944378635304E-01 -1.0400434190761E-01
    36  3.5000000000000E-01  6.0369827045112E-01 -1.0244232539452E-01
    37  3.6000000000000E-01  6.1781472652273E-01 -1.0078289456015E-01
    38  3.7000000000000E-01  6.3180250804804E-01 -9.9054315552299E-02
    39  3.8000000000000E-01  6.4567118684622E-01 -9.7285352776722E-02
    40  3.9000000000000E-01  6.5943046445804E-01 -9.5505062988660E-02
    41  4.0000000000000E-01  6.7309008099542E-01 -9.3742584007132E-02
    42  4.1000000000000E-01  6.8665972193753E-01 -9.2026919215256E-02
    43  4.2000000000000E-01  7.0014892337067E-01 -9.0386719047249E-02
    44  4.3000000000000E-01  7.1356697618352E-01 -8.8850060694254E-02
    45  4.4000000000000E-01  7.2692282974147E-01 -8.7444227286386E-02
    46  4.5000000000000E-01  7.4022499557384E-01 -8.6195487827649E-02
    47  4.6000000000000E-01  7.5348145161463E-01 -8.5128879172473E-02
    48  4.7000000000000E-01  7.6669954754178E-01 -8.4267991338562E-02
    49  4.8000000000000E-01  7.7988591176185E-01 -8.3634757449814E-02
    50  4.9000000000000E-01  7.9304636058585E-01 -8.3249249594865E-02
    51  5.0000000000000E-01  8.0618581013796E-01 -8.3129481872538E-02
    52  5.1000000000000E-01  8.1930819153245E-01 -8.3291221873331E-02
    53  5.2000000000000E-01  8.3241636984432E-01 -8.3747811817927E-02
    54  5.3000000000000E-01  8.4551206738728E-01 -8.4510000538160E-02
    55  5.4000000000000E-01  8.5859579179732E-01 -8.5585787443943E-02
    56  5.5000000000000E-01  8.7166676940263E-01 -8.6980279571008E-02
    57  5.6000000000000E-01  8.8472288433987E-01 -8.8695562749280E-02
    58  5.7000000000000E-01  8.9776062385438E-01 -9.0730587870602E-02
    59  5.8000000000000E-01  9.1077503019556E-01 -9.3081073167085E-02
    60  5.9000000000000E-01  9.2375965949157E-01 -9.5739423338875E-02
    61  6.0000000000000E-01  9.3670654795655E-01 -9.8694666291438E-02
    62  6.1000000000000E-01  9.4960618575154E-01 -1.0193240815931E-01
    63  6.2000000000000E-01  9.6244749878569E-01 -1.0543480720547E-01
    64  6.3000000000000E-01  9.7521783870782E-01 -1.0918056709254E-01
    65  6.4000000000000E-01  9.8790298130051E-01 -1.1314494992644E-01
    66  6.5000000000000E-01  1.0004871334489E+00 -1.1729980937319E-01
    67  6.6000000000000E-01  1.0129529488158E+00 -1.2161364404668E-01
    68  6.7000000000000E-01  1.0252815523109E+00 -1.2605167126069E-01
    69  6.8000000000000E-01  1.0374525734018E+00 -1.3057592113085E-01
    70  6.9000000000000E-01  1.0494441882653E+00 -1.3514535090393E-01
    71  7.0000000000000E-01  1.0612331707388E+00 -1.3971597928261E-01
    72  7.1000000000000E-01  1.0727949519808E+00 -1.4424104040375E-01
    73  7.2000000000000E-01  1.0841036887081E+00 -1.4867115701913E-01
    74  7.3000000000000E-01  1.0951323398304E+00 -1.5295453231845E-01
    75  7.4000000000000E-01  1.1058527512589E+00 -1.5703715972752E-01
    76  7.5000000000000E-01  1.1162357486198E+00 -1.6086304990875E-01
    77  7.6000000000000E-01  1.1262512375613E+00 -1.6437447408841E-01
    78  7.7000000000000E-01  1.1358683112996E+00 -1.6751222273549E-01
    79  7.8000000000000E-01  1.1450553650083E+00 -1.7021587852053E-01
    80  7.9000000000000E-01  1.1537802166136E+00 -1.7242410239115E-01
    81  8.0000000000000E-01  1.1620102335236E+00 -1.7407493151401E-01
    82  8.1000000000000E-01  1.1697124647779E+00 -1.7510608775046E-01
    83  8.2000000000000E-01  1.1768537780750E+00 -1.7545529525784E-01
    84  8.3000000000000E-01  1.1834010010981E+00 -1.7506060573765E-01
    85  8.4000000000000E-01  1.1893210665332E+00 -1.7386072978956E-01
    86  8.5000000000000E-01  1.1945811601462E+00 -1.7179537277313E-01
    87  8.6000000000000E-01  1.1991488712588E+00 -1.6880557353148E-01
    88  8.7000000000000E-01  1.2029923449462E+00 -1.6483404429000E-01
    89  8.8000000000000E-01  1.2060804352572E+00 -1.5982551001035E-01
    90  8.9000000000000E-01  1.2083828587454E+00 -1.5372704545698E-01
    91  9.0000000000000E-01  1.2098703475880E+00 -1.4648840821660E-01
    92  9.1000000000000E-01  1.2105148015586E+00 -1.3806236590604E-01
    93  9.2000000000000E-01  1.2102894381209E+00 -1.2840501580536E-01
    94  9.3000000000000E-01  1.2091689399023E+00 -1.1747609516560E-01
    95  9.4000000000000E-01  1.2071295988169E+00 -1.0523928046114E-01
    96  9.5000000000000E-01  1.2041494561073E+00 -9.1662473887059E-02
    97  9.6000000000000E-01  1.2002084375888E+00 -7.6718075441230E-02
    98  9.7000000000000E-01  1.1952884833925E+00 -6.0383238979512E-02
    99  9.8000000000000E-01  1.1893736715198E+00 -4.2640110689773E-02
   100  9.9000000000000E-01  1.1824503345449E+00 -2.3476048497084E-02
   101  1.0000000000000E+00  1.1745071688235E+00 -2.8838209870459E-03
   102  1.0100000000000E+00  1.1655353355967E+00  1.9138215482397E-02
   103  1.0200000000000E+00  1.1555285534072E+00  4.2585962719282E-02
   104  1.0300000000000E+00  1.1444831812852E+00  6.7449450825884E-02
   105  1.0400000000000E+00  1.1323982921918E+00  9.3712733550739E-02
   106  1.0500000000000E+00  1.1192757362561E+00  1.2135380978603E-01
   107  1.0600000000000E+00  1.1051201933788E+00  1.5034457201256E-01
   108  1.0700000000000E+00  1.0899392148266E+00  1.8065078237064E-01
   109  1.0800000000000E+00  1.0737432534867E+00  2.1223207690535E-01
   110  1.0900000000000E+00  1.0565456825027E+00  2.4504199840088E-01
   111  1.1000000000000E+00  1.0383628020651E+00  2.7902805808075E-01
   112  1.1100000000000E+00  1.0192138341833E+00  3.1413182631004E-01
   113  1.1200000000000E+00  9.9912090532294E-01  3.5028905229204E-01
   114  1.1300000000000E+00  9.7810901684707E-01  3.8742981260723E-01
   115  1.1400000000000E+00  9.5620600325768E-01  4.2547868829610E-01
   116  1.1500000000000E+00  9.3344247829283E-01  4.6435497004131E-01
   117  1.1600000000000E+00  9.0985176899157E-01  5.0397289085901E-01
   118  1.1700000000000E+00  8.8546983789764E-01  5.4424188556497E-01
   119  1.1800000000000E+00  8.6033519363067E-01  5.8506687613831E-01
   120  1.1900000000000E+00  8.3448879011035E-01  6.2634858196765E-01
   121  1.2000000000000E+00  8.0797391477593E-01  6.6798385382660E-01
   122  1.2100000000000E+00  7.8083606619755E-01  7.0986603029668E-01
   123  1.2200000000000E+00  7.5312282153018E-01  7.5188531522723E-01
   124  1.2300000000000E+00  7.2488369431186E-01  7.9392917470284E-01
   125  1.2400000000000E+00  6.9616998315802E-01  8.3588275187444E-01
   126  1.2500000000000E+00  6.6703461195055E-01  8.7762929790351E-01
   127  1.2600000000000E+00  6.3753196216495E-01  9.1905061716979E-01
   128  1.2700000000000E+00  6.0771769802058E-01  9.6002752480277E-01
   129  1.2800000000000E+00  5.7764858517770E-01  1.0004403145151E+00
   130  1.2900000000000E+00  5.4738230373999E-01  1.0401692346450E+00
   131  1.3000000000000E+00  5.1697725635343E-01  1.0790949702509E+00
   132  1.3100000000000E+00  4.8649237221997E-01  1.1170991290523E+00
   133  1.3200000000000E+00  4.5598690786893E-01  1.1540647289679E+00
   134  1.3300000000000E+00  4.2552024554882E-01  1.1898766849720E+00
   135  1.3400000000000E+00  3.9515169011865E-01  1.2244222929738E+00
   136  1.3500000000000E+00  3.6494026532898E-01  1.2575917084148E+00
   137  1.3600000000000E+00  3.3494451039065E-01  1.2892784172850E+00
   138  1.3700000000000E+00  3.0522227773177E-01  1.3193796972750E+00
   139  1.3800000000000E+00  2.7583053284219E-01  1.3477970668089E+00
   140  1.3900000000000E+00  2.4682515709844E-01  1.3744367197431E+00
   141  1.4000000000000E+00  2.1826075445165E-01  1.3992099435668E+00
   142  1.4100000000000E+00  1.9019046284633E-01  1.4220335190020E+00
   143  1.4200000000000E+00  1.6266577121787E-01  1.4428300989782E+00
   144  1.4300000000000E+00  1.3573634289395E-01  1.4615285650359E+00
   145  1.4400000000000E+00  1.0944984619626E-01  1.4780643593142E+00
   146  1.4500000000000E+00  8.3851793007925E-02  1.4923797903788E+00
   147  1.4600000000000E+00  5.8985386035625E-02  1.5044243112635E+00
   148  1.4700000000000E+00  3.4891375456151E-02  1.5141547682229E+00
   149  1.4800000000000E+00  1.1607925594027E-02  1.5215356188228E+00
   150  1.4900000000000E+00 -1.0829507769666E-02  1.5265391181410E+00
   151  1.5000000000000E+00 -3.2388288906566E-02  1.5291454719921E+00
   152  1.5100000000000E+00 -5.3038701970250E-02  1.5293429562484E+00
   153  1.5200000000000E+00 -7.2754038701966E-02  1.5271280014850E+00
   154  1.5300000000000E+00 -9.1510673626972E-02  1.5225052423453E+00
   155  1.5400000000000E+00 -1.0928812641484E-01  1.5154875311855E+00
   156  1.5500000000000E+00 -1.2606911113788E-01  1.5060959157346E+00
   157  1.5600000000000E+00 -1.4183957222463E-01  1.4943595806741E+00
   158  1.5700000000000E+00 -1.5658870696837E-01  1.4803157532202E+00
   159  1.5800000000000E+00 -1.7030897451520E-01  1.4640095729644E+00
   160  1.5900000000000E+00 -1.8299609132062E-01  1.4454939264041E+00
   161  1.6000000000000E+00 -1.9464901312819E-01  1.4248292467680E+00
   162  1.6100000000000E+00 -2.0526990358832E-01  1.4020832799106E+00
   163  1.6200000000000E+00 -2.1486408969876E-01  1.3773308172201E+00
   164  1.6300000000000E+00 -2.2344000431147E-01  1.3506533966444E+00
   165  1.6400000000000E+00 -2.3100911601152E-01  1.3221389731007E+00
   166  1.6500000000000E+00 -2.3758584673400E-01  1.2918815596855E+00
   167  1.6600000000000E+00 -2.4318747754236E-01  1.2599808412461E+00
   168  1.6700000000000E+00 -2.4783404304751E-01  1.2265417620158E+00
   169  1.6800000000000E+00 -2.5154821500000E-01  1.1916740891409E+00
   170  1.6900000000000E+00 -2.5435517563763E-01  1.1554919540508E+00
   171  1.7000000000000E+00 -2.5628248141832E-01  1.1181133737330E+00
   172  1.7100000000000E+00 -2.5735991781153E-01  1.0796597540741E+00
   173  1.7200000000000E+00 -2.5761934586182E-01  1.0402553775183E+00
   174  1.7300000000000E+00 -2.5709454127445E-01  1.0000268773743E+00
   175  1.7400000000000E+00 -2.5582102680538E-01  9.5910270116470E-01
   176  1.7500000000000E+00 -2.5383589876632E-01  9.1761256546999E-01
   177  1.7600000000000E+00 -2.5117764847907E-01  8.7568690475768E-01
   178  1.7700000000000E+00 -2.4788597953327E-01  8.3345631671751E-01
   179  1.7800000000000E+00 -2.4400162171647E-01  7.9105100663899E-01
   180  1.7900000000000E+00 -2.3956614249564E-01  7.4860023337026E-01
   181  1.8000000000000E+00 -2.3462175693536E-01  7.0623175938702E-01
   182  1.8100000000000E+00 -2.2921113693853E-01  6.6407130747653E-01
   183  1.8200000000000E+00 -2.2337722069216E-01  6.2224202650573E-01
   184  1.8300000000000E+00 -2.1716302319258E-01  5.8086396869284E-01
   185  1.8400000000000E+00 -2.1061144871133E-01  5.4005358074059E-01
   186  1.8500000000000E+00 -2.0376510604620E-01  4.9992321111505E-01
   187  1.8600000000000E+00 -1.9666612737980E-01  4.6058063566863E-01
   188  1.8700000000000E+00 -1.8935599154255E-01  4.2212860370870E-01
   189  1.8800000000000E+00 -1.8187535244679E-01  3.8466440650524E-01
   190  1.8900000000000E+00 -1.7426387342500E-01  3.4827947011394E-01
   191  1.9000000000000E+00 -1.6656006816787E-01  3.1305897426278E-01
   192  1.9100000000000E+00 -1.5880114891620E-01  2.7908149891365E-01
   193  1.9200000000000E+00 -1.5102288251745E-01  2.4641869996675E-01
   194  1.9300000000000E+00 -1.4325945490968E-01  2.1513501542312E-01
   195  1.9400000000000E+00 -1.3554334454638E-01  1.8528740316273E-01
   196  1.9500000000000E+00 -1.2790520522327E-01  1.5692511133159E-01
   197  1.9600000000000E+00 -1.2037375871340E-01  1.3008948216164E-01
   198  1.9700000000000E+00 -1.1297569756157E-01  1.0481378987670E-01
   199  1.9800000000000E+00 -1.0573559826566E-01  8.1123112828660E-02
   200  1.9900000000000E+00 -9.8675845168929E-02  5.9034240687194E-02
   201  2.0000000000000E+00 -9.1816567289250E-02  3.8555626779622E-02
   202  2.0100000000000E+00 -8.5175576845211E-02  1.9687329073276E-02
   203  2.0200000000000E+00 -7.8768350558983E-02  2.4211462329054E-03
   204  2.0300000000000E+00 -7.2608147762515E-02 -1.3258583653148E-02
   205  2.0400000000000E+00 -6.6706160187675E-02 -2.7374105302774E-02
   206  2.0500000000000E+00 -6.1071563879720E-02 -3.9953917072960E-02
   207  2.0600000000000E+00 -5.5711549660745E-02 -5.1032578929482E-02
   208  2.0700000000000E+00 -5.0631372646795E-02 -6.0650442650654E-02
   209  2.0800000000000E+00 -4.5834409253893E-02 -6.8853365714214E-02
   210  2.0900000000000E+00 -4.1322223143280E-02 -7.5692399982957E-02
   211  2.1000000000000E+00 -3.7094639763009E-02 -8.1223456200419E-02
   212  2.1100000000000E+00 -3.3149828887923E-02 -8.5506946453577E-02
   213  2.1200000000000E+00 -2.9484394592899E-02 -8.8607406491823E-02
   214  2.1300000000000E+00 -2.6093472055733E-02 -9.0593099895482E-02
   215  2.1400000000000E+00 -2.2970830553994E-02 -9.1535606172782E-02
   216  2.1500000000000E+00 -2.0108981989464E-02 -9.1509394945180E-02
   217  2.1600000000000E+00 -1.7499294246487E-02 -9.0591388451481E-02
   218  2.1700000000000E+00 -1.5132108669772E-02 -8.8860514653548E-02
   219  2.1800000000000E+00 -1.2996860927394E-02 -8.6397253274405E-02
   220  2.1900000000000E+00 -1.1082204511794E-02 -8.3283177129738E-02
   221  2.2000000000000E+00 -9.3761361187957E-03 -7.9600491140253E-02
   222  2.2100000000000E+00 -7.8661221402071E-03 -7.5431571417389E-02
   223  2.2200000000000E+00 -6.5392255032803E-03 -7.0858506811800E-02
   224  2.2300000000000E+00 -5.3822320918571E-03 -6.5962645301474E-02
   225  2.2400000000000E+00 -4.3817752269845E-03 -6.0824149383180E-02
   226  2.2500000000000E+00 -3.5244615574400E-03 -5.5521553031643E-02
   227  2.2600000000000E+00 -2.7969982161998E-03 -5.0131321170097E-02
   228  2.2700000000000E+00 -2.1862707107779E-03 -4.4727531290338E-02
   229  2.2800000000000E+00 -1.6795105160020E-03 -3.9381352001020E-02
   230  2.2900000000000E+00 -1.2649595437374E-03 -3.4159339762544E-02
   231  2.3000000000000E+00 -9.3284632110154E-04 -2.9120994704953E-02
   232  2.3100000000000E+00 -6.7213984495011E-04 -2.4326375115487E-02
   233  2.3200000000000E+00 -4.7143154549859E-04 -1.9833920047633E-02
   234  2.3300000000000E+00 -3.2046591164187E-04 -1.5696734968660E-02
   235  2.3400000000000E+00 -2.0984251317654E-04 -1.1963214821422E-02
   236  2.3500000000000E+00 -1.3116968344134E-04 -8.6766084236948E-03
   237  2.3600000000000E+00 -7.7117127132320E-05 -5.8748310361383E-03
   238  2.3700000000000E+00 -4.1493277380767E-05 -3.5916636639551E-03
   239  2.3800000000000E+00 -1.9178646322912E-05 -1.8443415070566E-03
   240  2.3900000000000E+00 -6.5127324352234E-06 -6.7172858143693E-04
   241  2.4000000000000E+00 -1.0738629985494E-06 -1.0700213132752E-04
   242  2.4100000000000E+00  1.8524408677358E-07  2.9947691644037E-05
   243  2.4200000000000E+00 -8.5281149101907E-09 -1.1579137481520E-06
   244  2.43 -0. -0.
   245  2.44  0.  0.
   246  2.45  0. -0.
   247  2.46  0. -0.
   248  2.47  0.  0.
   249  2.48  0.  0.
   250  2.49  0.  0.
   251  2.50  0.  0.
   252  2.51  0.  0.
   253  2.52  0.  0.
   254  2.53  0.  0.
   255  2.54  0.  0.
   256  2.55  0.  0.
   257  2.56  0.  0.
   258  2.57  0.  0.
   259  2.58  0.  0.
   260  2.59  0.  0.
   261  2.60  0.  0.
   262  2.61  0.  0.
   263  2.62  0.  0.
   264  2.63  0.  0.
   265  2.64  0.  0.
   266  2.65  0.  0.
   267  2.66  0.  0.
   268  2.67  0.  0.
   269  2.68  0.  0.
   270  2.69  0.  0.
   271  2.70  0.  0.
   272  2.71  0.  0.
   273  2.72  0.  0.
   274  2.73  0.  0.
   275  2.74  0.  0.
   276  2.75  0.  0.
   277  2.76  0.  0.
   278  2.77  0.  0.
   279  2.78  0.  0.
   280  2.79  0.  0.
   281  2.80  0.  0.
   282  2.81  0.  0.
   283  2.82  0.  0.
   284  2.83  0.  0.
   285  2.84  0.  0.
   286  2.85  0.  0.
   287  2.86  0.  0.
   288  2.87  0.  0.
   289  2.88  0.  0.
   290  2.89  0.  0.
   291  2.90  0.  0.
   292  2.91  0.  0.
   293  2.92  0.  0.
   294  2.93  0.  0.
   295  2.94  0.  0.
   296  2.95  0.  0.
   297  2.96  0.  0.
   298  2.97  0.  0.
   299  2.98  0.  0.
   300  2.99  0.  0.
   301  3.00  0.  0.
   302  3.01  0.  0.
   303  3.02  0.  0.
   304  3.03  0.  0.
   305  3.04  0.  0.
   306  3.05  0.  0.
   307  3.06  0.  0.
   308  3.07  0.  0.
   309  3.08  0.  0.
   310  3.09  0.  0.
   311  3.10  0.  0.
   312  3.11  0.  0.
   313  3.12  0.  0.
   314  3.13  0.  0.
   315  3.14  0.  0.
   316  3.15  0.  0.
   317  3.16  0.  0.
   318  3.17  0.  0.
   319  3.18  0.  0.
   320  3.19  0.  0.
   321  3.20  0.  0.
   322  3.21  0.  0.
   323  3.22  0.  0.
   324  3.23  0.  0.
   325  3.24  0.  0.
   326  3.25  0.  0.
   327  3.26  0.  0.
   328  3.27  0.  0.
   329  3.28  0.  0.
   330  3.29  0.  0.
   331  3.30  0.  0.
   332  3.31  0.  0.
   333  3.32  0.  0.
   334  3.33  0.  0.
   335  3.34  0.  0.
   336  3.35  0.  0.
   337  3.36  0.  0.
   338  3.37  0.  0.
   339  3.38  0.  0.
   340  3.39  0.  0.
   341  3.40  0.  0.
   342  3.41  0.  0.
   343  3.42  0.  0.
   344  3.43  0.  0.
   345  3.44  0.  0.
   346  3.45  0.  0.
   347  3.46  0.  0.
   348  3.47  0.  0.
   349  3.48  0.  0.
   350  3.49  0.  0.
   351  3.50  0.  0.
   352  3.51  0.  0.
   353  3.52  0.  0.
   354  3.53  0.  0.
   355  3.54  0.  0.
   356  3.55  0.  0.
   357  3.56  0.  0.
   358  3.57  0.  0.
   359  3.58  0.  0.
   360  3.59  0.  0.
   361  3.60  0.  0.
   362  3.61  0.  0.
   363  3.62  0.  0.
   364  3.63  0.  0.
   365  3.64  0.  0.
   366  3.65  0.  0.
   367  3.66  0.  0.
   368  3.67  0.  0.
   369  3.68  0.  0.
   370  3.69  0.  0.
   371  3.70  0.  0.
   372  3.71  0.  0.
   373  3.72  0.  0.
   374  3.73  0.  0.
   375  3.74  0.  0.
   376  3.75  0.  0.
   377  3.76  0.  0.
   378  3.77  0.  0.
   379  3.78  0.  0.
   380  3.79  0.  0.
   381  3.80  0.  0.
   382  3.81  0.  0.
   383  3.82  0.  0.
   384  3.83  0.  0.
   385  3.84  0.  0.
   386  3.85  0.  0.
   387  3.86  0.  0.
   388  3.87  0.  0.
   389  3.88  0.  0.
   390  3.89  0.  0.
   391  3.90  0.  0.
   392  3.91  0.  0.
   393  3.92  0.  0.
   394  3.93  0.  0.
   395  3.94  0.  0.
   396  3.95  0.  0.
   397  3.96  0.  0.
   398  3.97  0.  0.
   399  3.98  0.  0.
   400  3.99  0.  0.
   401  4.00  0.  0.
   402  4.01  0.  0.
   403  4.02  0.  0.
   404  4.03  0.  0.
   405  4.04  0.  0.
   406  4.05  0.  0.
   407  4.06  0.  0.
   408  4.07  0.  0.
   409  4.08  0.  0.
   410  4.09  0.  0.
   411  4.10  0.  0.
   412  4.11  0.  0.
   413  4.12  0.  0.
   414  4.13  0.  0.
   415  4.14  0.  0.
   416  4.15  0.  0.
   417  4.16  0.  0.
   418  4.17  0.  0.
   419  4.18  0.  0.
   420  4.19  0.  0.
   421  4.20  0.  0.
   422  4.21  0.  0.
   423  4.22  0.  0.
   424  4.23  0.  0.
   425  4.24  0.  0.
   426  4.25  0.  0.
   427  4.26  0.  0.
   428  4.27  0.  0.
   429  4.28  0.  0.
   430  4.29  0.  0.
   431  4.30  0.  0.
   432  4.31  0.  0.
   433  4.32  0.  0.
   434  4.33  0.  0.
   435  4.34  0.  0.
   436  4.35  0.  0.
   437  4.36  0.  0.
   438  4.37  0.  0.
   439  4.38  0.  0.
   440  4.39  0.  0.
   441  4.40  0.  0.
   442  4.41  0.  0.
   443  4.42  0.  0.
   444  4.43  0.  0.
   445  4.44  0.  0.
   446  4.45  0.  0.
   447  4.46  0.  0.
   448  4.47  0.  0.
   449  4.48  0.  0.
   450  4.49  0.  0.
   451  4.50  0.  0.
   452  4.51  0.  0.
   453  4.52  0.  0.
   454  4.53  0.  0.
   455  4.54  0.  0.
   456  4.55  0.  0.
   457  4.56  0.  0.
   458  4.57  0.  0.
   459  4.58  0.  0.
   460  4.59  0.  0.
   461  4.60  0.  0.
   462  4.61  0.  0.
   463  4.62  0.  0.
   464  4.63  0.  0.
   465  4.64  0.  0.
   466  4.65  0.  0.
   467  4.66  0.  0.
   468  4.67  0.  0.
   469  4.68  0.  0.
   470  4.69  0.  0.
   471  4.70  0.  0.
   472  4.71  0.  0.
   473  4.72  0.  0.
   474  4.73  0.  0.
   475  4.74  0.  0.
   476  4.75  0.  0.
   477  4.76  0.  0.
   478  4.77  0.  0.
   479  4.78  0.  0.
   480  4.79  0.  0.
   481  4.80  0.  0.
   482  4.81  0.  0.
   483  4.82  0.  0.
   484  4.83  0.  0.
   485  4.84  0.  0.
   486  4.85  0.  0.
   487  4.86  0.  0.
   488  4.87  0.  0.
   489  4.88  0.  0.
   490  4.89  0.  0.
   491  4.90  0.  0.
   492  4.91  0.  0.
   493  4.92  0.  0.
   494  4.93  0.  0.
   495  4.94  0.  0.
   496  4.95  0.  0.
   497  4.96  0.  0.
   498  4.97  0.  0.
   499  4.98  0.  0.
   500  4.99  0.  0.
   501  5.00  0.  0.
   502  5.01  0.  0.
   503  5.02  0.  0.
   504  5.03  0.  0.
   505  5.04  0.  0.
   506  5.05  0.  0.
   507  5.06  0.  0.
   508  5.07  0.  0.
   509  5.08  0.  0.
   510  5.09  0.  0.
   511  5.10  0.  0.
   512  5.11  0.  0.
   513  5.12  0.  0.
   514  5.13  0.  0.
   515  5.14  0.  0.
   516  5.15  0.  0.
   517  5.16  0.  0.
   518  5.17  0.  0.
   519  5.18  0.  0.
   520  5.19  0.  0.
   521  5.20  0.  0.
   522  5.21  0.  0.
   523  5.22  0.  0.
   524  5.23  0.  0.
   525  5.24  0.  0.
   526  5.25  0.  0.
   527  5.26  0.  0.
   528  5.27  0.  0.
   529  5.28  0.  0.
   530  5.29  0.  0.
   531  5.30  0.  0.
   532  5.31  0.  0.
   533  5.32  0.  0.
   534  5.33  0.  0.
   535  5.34  0.  0.
   536  5.35  0.  0.
   537  5.36  0.  0.
   538  5.37  0.  0.
   539  5.38  0.  0.
   540  5.39  0.  0.
   541  5.40  0.  0.
   542  5.41  0.  0.
   543  5.42  0.  0.
   544  5.43  0.  0.
   545  5.44  0.  0.
   546  5.45  0.  0.
   547  5.46  0.  0.
   548  5.47  0.  0.
   549  5.48  0.  0.
   550  5.49  0.  0.
   551  5.50  0.  0.
   552  5.51  0.  0.
   553  5.52  0.  0.
   554  5.53  0.  0.
   555  5.54  0.  0.
   556  5.55  0.  0.
   557  5.56  0.  0.
   558  5.57  0.  0.
   559  5.58  0.  0.
   560  5.59  0.  0.
   561  5.60  0.  0.
   562  5.61  0.  0.
   563  5.62  0.  0.
   564  5.63  0.  0.
   565  5.64  0.  0.
   566  5.65  0.  0.
   567  5.66  0.  0.
   568  5.67  0.  0.
   569  5.68  0.  0.
   570  5.69  0.  0.
   571  5.70  0.  0.
   572  5.71  0.  0.
   573  5.72  0.  0.
   574  5.73  0.  0.
   575  5.74  0.  0.
   576  5.75  0.  0.
   577  5.76  0.  0.
   578  5.77  0.  0.
   579  5.78  0.  0.
   580  5.79  0.  0.
   581  5.80  0.  0.
   582  5.81  0.  0.
   583  5.82  0.  0.
   584  5.83  0.  0.
   585  5.84  0.  0.
   586  5.85  0.  0.
   587  5.86  0.  0.
   588  5.87  0.  0.
   589  5.88  0.  0.
   590  5.89  0.  0.
   591  5.90  0.  0.
   592  5.91  0.  0.
   593  5.92  0.  0.
   594  5.93  0.  0.
   595  5.94  0.  0.
   596  5.95  0.  0.
   597  5.96  0.  0.
   598  5.97  0.  0.
   599  5.98  0.  0.
   600  5.99  0.  0.
   1                         4.3238135482143E+00  5.0538326700433E-01
     1  0.0000000000000E+00  2.8673279028890E-12 -9.4516963700109E-12
     2  1.0000000000000E-02  2.6088635265720E-04 -1.7828440587977E-04
     3  2.0000000000000E-02  1.0433340527253E-03 -7.1280116566134E-04
     4  3.0000000000000E-02  2.3467092888511E-03 -1.6025418125509E-03
     5  4.0000000000000E-02  4.1699565817808E-03 -2.8458285861882E-03
     6  5.0000000000000E-02  6.5116000885961E-03 -4.4403189418686E-03
     7  6.0000000000000E-02  9.3697454181337E-03 -6.3830118290536E-03
     8  7.0000000000000E-02  1.2742081947170E-02 -8.6702557050669E-03
     9  8.0000000000000E-02  1.6625885624092E-02 -1.1297758240419E-02
    10  9.0000000000000E-02  2.1018022244015E-02 -1.4260597663121E-02
    11  1.0000000000000E-01  2.5914951176648E-02 -1.7553235680462E-02
    12  1.1000000000000E-01  3.1312729525682E-02 -2.1169531908357E-02
    13  1.2000000000000E-01  3.7207016696102E-02 -2.5102759730243E-02
    14  1.3000000000000E-01  4.3593079343591E-02 -2.9345623500065E-02
    15  1.4000000000000E-01  5.0465796678179E-02 -3.3890276996758E-02
    16  1.5000000000000E-01  5.7819666092426E-02 -3.8728343031194E-02
    17  1.6000000000000E-01  6.5648809082798E-02 -4.3850934100743E-02
    18  1.7000000000000E-01  7.3946977431505E-02 -4.9248673981284E-02
    19  1.8000000000000E-01  8.2707559614843E-02 -5.4911720142016E-02
    20  1.9000000000000E-01  9.1923587403209E-02 -6.0829786864591E-02
    21  2.0000000000000E-01  1.0158774261721E-01 -6.6992168944912E-02
    22  2.1000000000000E-01  1.1169236400391E-01 -7.3387765853674E-02
    23  2.2000000000000E-01  1.2222945419713E-01 -8.0005106230107E-02
    24  2.3000000000000E-01  1.3319068672569E-01 -8.6832372582623E-02
    25  2.4000000000000E-01  1.4456741303410E-01 -9.3857426070059E-02
    26  2.5000000000000E-01  1.5635066948068E-01 -1.0106783123809E-01
    27  2.6000000000000E-01  1.6853118427905E-01 -1.0845088058697E-01
    28  2.7000000000000E-01  1.8109938435036E-01 -1.1599361884915E-01
    29  2.8000000000000E-01  1.9404540205471E-01 -1.2368286685880E-01
    30  2.9000000000000E-01  2.0735908177243E-01 -1.3150524489884E-01
    31  3.0000000000000E-01  2.2102998630751E-01 -1.3944719541634E-01
    32  3.1000000000000E-01  2.3504740308789E-01 -1.4749500500228E-01
    33  3.2000000000000E-01  2.4940035013991E-01 -1.5563482553818E-01
    34  3.3000000000000E-01  2.6407758181670E-01 -1.6385269441877E-01
    35  3.4000000000000E-01  2.7906759426336E-01 -1.7213455376773E-01
    36  3.5000000000000E-01  2.9435863060504E-01 -1.8046626857136E-01
    37  3.6000000000000E-01  3.0993868584704E-01 -1.8883364366405E-01
    38  3.7000000000000E-01  3.2579551147976E-01 -1.9722243950853E-01
    39  3.8000000000000E-01  3.4191661978484E-01 -2.0561838672363E-01
    40  3.9000000000000E-01  3.5828928784277E-01 -2.1400719932240E-01
    41  4.0000000000000E-01  3.7490056124561E-01 -2.2237458663385E-01
    42  4.1000000000000E-01  3.9173725752312E-01 -2.3070626389248E-01
    43  4.2000000000000E-01  4.0878596929379E-01 -2.3898796149055E-01
    44  4.3000000000000E-01  4.2603306715694E-01 -2.4720543289932E-01
    45  4.4000000000000E-01  4.4346470234568E-01 -2.5534446127681E-01
    46  4.5000000000000E-01  4.6106680916456E-01 -2.6339086479056E-01
    47  4.6000000000000E-01  4.7882510723994E-01 -2.7133050069557E-01
    48  4.7000000000000E-01  4.9672510361464E-01 -2.7914926821816E-01
    49  4.8000000000000E-01  5.1475209472256E-01 -2.8683311030788E-01
    50  4.9000000000000E-01  5.3289116828226E-01 -2.9436801432991E-01
    51  5.0000000000000E-01  5.5112720515228E-01 -3.0174001178086E-01
    52  5.1000000000000E-01  5.6944488119425E-01 -3.0893517712064E-01
    53  5.2000000000000E-01  5.8782866919274E-01 -3.1593962582270E-01
    54  5.3000000000000E-01  6.0626284088401E-01 -3.2273951175370E-01
    55  5.4000000000000E-01  6.2473146914815E-01 -3.2932102400184E-01
    56  5.5000000000000E-01  6.4321843042169E-01 -3.3567038328090E-01
    57  5.6000000000000E-01  6.6170740738969E-01 -3.4177383804376E-01
    58  5.7000000000000E-01  6.8018189201804E-01 -3.4761766044528E-01
    59  5.8000000000000E-01  6.9862518898801E-01 -3.5318814229968E-01
    60  5.9000000000000E-01  7.1702041959643E-01 -3.5847159118176E-01
    61  6.0000000000000E-01  7.3535052618502E-01 -3.6345432682493E-01
    62  6.1000000000000E-01  7.5359827716304E-01 -3.6812267797114E-01
    63  6.2000000000000E-01  7.7174627268712E-01 -3.7246297982943E-01
    64  6.3000000000000E-01  7.8977695106142E-01 -3.7646157229999E-01
    65  6.4000000000000E-01  8.0767259592044E-01 -3.8010479911993E-01
    66  6.5000000000000E-01  8.2541534425526E-01 -3.8337900808517E-01
    67  6.6000000000000E-01  8.4298719534202E-01 -3.8627055249982E-01
    68  6.7000000000000E-01  8.6037002062927E-01 -3.8876579400044E-01
    69  6.8000000000000E-01  8.7754557463775E-01 -3.9085110689731E-01
    70  6.9000000000000E-01  8.9449550692328E-01 -3.9251288416866E-01
    71  7.0000000000000E-01  9.1120137514950E-01 -3.9373754523625E-01