Bi    ONCVPSP-4.0.1  r_core=   2.40513   2.50798   2.10854
     83.0000     15.0000      250925    zatom,zion,pspd
     8   -1012   2     4   600     0    pspcod,pspxc,lmax,lloc,mmax,r2well
  5.99000000  6.00000000  0.00000000    rchrg fchrg qchrg
     2     3     2     0    nproj
     3     1           extension_switch
     4     3     0    nprojso
   0                         5.5932723114139E+00  7.8609069570281E-01
     1  0.0000000000000E+00 -9.4141083817334E-12  2.3272522797768E-11
     2  1.0000000000000E-02  1.9316041606392E-02 -6.6971799877585E-03
     3  2.0000000000000E-02  3.8617607538612E-02 -1.3366534898012E-02
     4  3.0000000000000E-02  5.7890298797558E-02 -1.9980421190966E-02
     5  4.0000000000000E-02  7.7119869271813E-02 -2.6511557293967E-02
     6  5.0000000000000E-02  9.6292301027714E-02 -3.2933201820233E-02
     7  6.0000000000000E-02  1.1539387822155E-01 -3.9219328486203E-02
     8  7.0000000000000E-02  1.3441125918560E-01 -4.5344796654307E-02
     9  8.0000000000000E-02  1.5333154624924E-01 -5.1285516451237E-02
    10  9.0000000000000E-02  1.7214235286778E-01 -5.7018607440523E-02
    11  1.0000000000000E-01  1.9083186764591E-01 -6.2522549862629E-02
    12  1.1000000000000E-01  2.0938891485838E-01 -6.7777327495280E-02
    13  1.2000000000000E-01  2.2780301108875E-01 -7.2764561231497E-02
    14  1.3000000000000E-01  2.4606441762737E-01 -7.7467632522488E-02
    15  1.4000000000000E-01  2.6416418829146E-01 -8.1871795886735E-02
    16  1.5000000000000E-01  2.8209421235421E-01 -8.5964279745481E-02
    17  1.6000000000000E-01  2.9984725229538E-01 -8.9734374907653E-02
    18  1.7000000000000E-01  3.1741697611291E-01 -9.3173510093928E-02
    19  1.8000000000000E-01  3.3479798396374E-01 -9.6275313960025E-02
    20  1.9000000000000E-01  3.5198582893190E-01 -9.9035663152614E-02
    21  2.0000000000000E-01  3.6897703175303E-01 -1.0145271600769E-01
    22  2.1000000000000E-01  3.8576908935685E-01 -1.0352693157987E-01
    23  2.2000000000000E-01  4.0236047712178E-01 -1.0526107377210E-01
    24  2.3000000000000E-01  4.1875064477014E-01 -1.0666020041756E-01
    25  2.4000000000000E-01  4.3494000586645E-01 -1.0773163724990E-01
    26  2.5000000000000E-01  4.5092992091623E-01 -1.0848493678200E-01
    27  2.6000000000000E-01  4.6672267409782E-01 -1.0893182219933E-01
    28  2.7000000000000E-01  4.8232144369491E-01 -1.0908611645879E-01
    29  2.8000000000000E-01  4.9773026633224E-01 -1.0896365686896E-01
    30  2.9000000000000E-01  5.1295399515225E-01 -1.0858219551166E-01
    31  3.0000000000000E-01  5.2799825210433E-01 -1.0796128594758E-01
    32  3.1000000000000E-01  5.4286937455236E-01 -1.0712215672973E-01
    33  3.2000000000000E-01  5.5757435643927E-01 -1.0608757232774E-01
    34  3.3000000000000E-01  5.7212078427927E-01 -1.0488168214202E-01
    35  3.4000000000000E-01  5.8651676827952E-01 -1.0352985836121E-01
    36  3.5000000000000E-01  6.0077086892262E-01 -1.0205852348561E-01
    37  3.6000000000000E-01  6.1489201936973E-01 -1.0049496840672E-01
    38  3.7000000000000E-01  6.2888944407071E-01 -9.8867161994908E-02
    39  3.8000000000000E-01  6.4277257399291E-01 -9.7203553205636E-02
    40  3.9000000000000E-01  6.5655095890309E-01 -9.5532866767600E-02
    41  4.0000000000000E-01  6.7023417715855E-01 -9.3883893564799E-02
    42  4.1000000000000E-01  6.8383174348224E-01 -9.2285276866864E-02
    43  4.2000000000000E-01  6.9735301521372E-01 -9.0765295599409E-02
    44  4.3000000000000E-01  7.1080709754229E-01 -8.9351645877461E-02
    45  4.4000000000000E-01  7.2420274824075E-01 -8.8071222049897E-02
    46  4.5000000000000E-01  7.3754828242773E-01 -8.6949898521807E-02
    47  4.6000000000000E-01  7.5085147789371E-01 -8.6012313633946E-02
    48  4.7000000000000E-01  7.6411948153015E-01 -8.5281656884178E-02
    49  4.8000000000000E-01  7.7735871740264E-01 -8.4779460774598E-02
    50  4.9000000000000E-01  7.9057479700831E-01 -8.4525398560411E-02
    51  5.0000000000000E-01  8.0377243225333E-01 -8.4537089161757E-02
    52  5.1000000000000E-01  8.1695535168041E-01 -8.4829910478311E-02
    53  5.2000000000000E-01  8.3012622046614E-01 -8.5416822317946E-02
    54  5.3000000000000E-01  8.4328656469635E-01 -8.6308200115768E-02
    55  5.4000000000000E-01  8.5643670041258E-01 -8.7511680578160E-02
    56  5.5000000000000E-01  8.6957566790515E-01 -8.9032020337849E-02
    57  5.6000000000000E-01  8.8270117170829E-01 -9.0870968651731E-02
    58  5.7000000000000E-01  8.9580952672967E-01 -9.3027155112206E-02
    59  5.8000000000000E-01  9.0889561092187E-01 -9.5495993275998E-02
    60  5.9000000000000E-01  9.2195282487515E-01 -9.8269601042103E-02
    61  6.0000000000000E-01  9.3497305868135E-01 -1.0133673853280E-01
    62  6.1000000000000E-01  9.4794666638640E-01 -1.0468276414887E-01
    63  6.2000000000000E-01  9.6086244831482E-01 -1.0828960938260E-01
    64  6.3000000000000E-01  9.7370764151370E-01 -1.1213577288060E-01
    65  6.4000000000000E-01  9.8646791852557E-01 -1.1619633415293E-01
    66  6.5000000000000E-01  9.9912739466072E-01 -1.2044298722575E-01
    67  6.6000000000000E-01  1.0116686438983E+00 -1.2484409443315E-01
    68  6.7000000000000E-01  1.0240727235040E+00 -1.2936476043916E-01
    69  6.8000000000000E-01  1.0363192074094E+00 -1.3396692647472E-01
    70  6.9000000000000E-01  1.0483862283528E+00 -1.3860948466664E-01
    71  7.0000000000000E-01  1.0602505287408E+00 -1.4324841222665E-01
    72  7.1000000000000E-01  1.0718875201390E+00 -1.4783692516016E-01
    73  7.2000000000000E-01  1.0832713512635E+00 -1.5232565104495E-01
    74  7.3000000000000E-01  1.0943749842911E+00 -1.5666282032266E-01
    75  7.4000000000000E-01  1.1051702792697E+00 -1.6079447543866E-01
    76  7.5000000000000E-01  1.1156280863610E+00 -1.6466469706197E-01
    77  7.6000000000000E-01  1.1257183456070E+00 -1.6821584651374E-01
    78  7.7000000000000E-01  1.1354101938679E+00 -1.7138882343499E-01
    79  7.8000000000000E-01  1.1446720785404E+00 -1.7412333762740E-01
    80  7.9000000000000E-01  1.1534718776227E+00 -1.7635819391091E-01
    81  8.0000000000000E-01  1.1617770256565E+00 -1.7803158875448E-01
    82  8.1000000000000E-01  1.1695546450400E+00 -1.7908141735545E-01
    83  8.2000000000000E-01  1.1767716821710E+00 -1.7944558976718E-01
    84  8.3000000000000E-01  1.1833950478486E+00 -1.7906235460513E-01
    85  8.4000000000000E-01  1.1893917613299E+00 -1.7787062879911E-01
    86  8.5000000000000E-01  1.1947290974165E+00 -1.7581033180333E-01
    87  8.6000000000000E-01  1.1993747359147E+00 -1.7282272262785E-01
    88  8.7000000000000E-01  1.2032969127992E+00 -1.6885073801451E-01
    89  8.8000000000000E-01  1.2064645723865E+00 -1.6383933004840E-01
    90  8.9000000000000E-01  1.2088475198135E+00 -1.5773580147132E-01
    91  9.0000000000000E-01  1.2104165731029E+00 -1.5049013694933E-01
    92  9.1000000000000E-01  1.2111437140906E+00 -1.4205532853941E-01
    93  9.2000000000000E-01  1.2110022374839E+00 -1.3238769360299E-01
    94  9.3000000000000E-01  1.2099668973217E+00 -1.2144718342606E-01
    95  9.4000000000000E-01  1.2080140501074E+00 -1.0919768082607E-01
    96  9.5000000000000E-01  1.2051217938918E+00 -9.5607285056096E-02
    97  9.6000000000000E-01  1.2012701025978E+00 -8.0648582355857E-02
    98  9.7000000000000E-01  1.1964409548847E+00 -6.4298900547375E-02
    99  9.8000000000000E-01  1.1906184568755E+00 -4.6540546130309E-02
   100  9.9000000000000E-01  1.1837889580845E+00 -2.7361022398014E-02
   101  1.0000000000000E+00  1.1759411599122E+00 -6.7532271694331E-03
   102  1.0100000000000E+00  1.1670662160989E+00  1.5284371184846E-02
   103  1.0200000000000E+00  1.1571578245610E+00  3.8747580653965E-02
   104  1.0300000000000E+00  1.1462123100691E+00  6.3626356568567E-02
   105  1.0400000000000E+00  1.1342286972617E+00  8.9904697681222E-02
   106  1.0500000000000E+00  1.1212087735329E+00  1.1756056826144E-01
   107  1.0600000000000E+00  1.1071571413708E+00  1.4656584700309E-01
   108  1.0700000000000E+00  1.0920812597727E+00  1.7688630341901E-01
   109  1.0800000000000E+00  1.0759914744092E+00  2.0848160226774E-01
   110  1.0900000000000E+00  1.0589010362597E+00  2.4130533642538E-01
   111  1.1000000000000E+00  1.0408261084940E+00  2.7530508847763E-01
   112  1.1100000000000E+00  1.0217857614278E+00  3.1042252116777E-01
   113  1.1200000000000E+00  1.0018019554357E+00  3.4659349669314E-01
   114  1.1300000000000E+00  9.8089951175927E-01  3.8374822469933E-01
   115  1.1400000000000E+00  9.5910607120816E-01  4.2181143867535E-01
   116  1.1500000000000E+00  9.3645204080507E-01  4.6070260030837E-01
   117  1.1600000000000E+00  9.1297052848737E-01  5.0033613121127E-01
   118  1.1700000000000E+00  8.8869726603266E-01  5.4062167129318E-01
   119  1.1800000000000E+00  8.6367052043462E-01  5.8146436290147E-01
   120  1.1900000000000E+00  8.3793099401119E-01  6.2276515972519E-01
   121  1.2000000000000E+00  8.1152171358350E-01  6.6442115931493E-01
   122  1.2100000000000E+00  7.8448790911794E-01  7.0632595794350E-01
   123  1.2200000000000E+00  7.5687688227725E-01  7.4837002640613E-01
   124  1.2300000000000E+00  7.2873786537739E-01  7.9044110523910E-01
   125  1.2400000000000E+00  7.0012187129620E-01  8.3242461772273E-01
   126  1.2500000000000E+00  6.7108153492693E-01  8.7420409892771E-01
   127  1.2600000000000E+00  6.4167094681343E-01  9.1566163896634E-01
   128  1.2700000000000E+00  6.1194547964577E-01  9.5667833851940E-01
   129  1.2800000000000E+00  5.8196160833304E-01  9.9713477462835E-01
   130  1.2900000000000E+00  5.5177672440501E-01  1.0369114746714E+00
   131  1.3000000000000E+00  5.2144894552634E-01  1.0758893963795E+00
   132  1.3100000000000E+00  4.9103692093435E-01  1.1139504116965E+00
   133  1.3200000000000E+00  4.6059963363573E-01  1.1509777922489E+00
   134  1.3300000000000E+00  4.3019620021746E-01  1.1868566941574E+00
   135  1.3400000000000E+00  3.9988566914311E-01  1.2214746399069E+00
   136  1.3500000000000E+00  3.6972681841734E-01  1.2547219949836E+00
   137  1.3600000000000E+00  3.3977795350885E-01  1.2864924369906E+00
   138  1.3700000000000E+00  3.1009670642490E-01  1.3166834149716E+00
   139  1.3800000000000E+00  2.8073983682911E-01  1.3451965967005E+00
   140  1.3900000000000E+00  2.5176303608839E-01  1.3719383017298E+00
   141  1.4000000000000E+00  2.2322073512461E-01  1.3968199180485E+00
   142  1.4100000000000E+00  1.9516591693171E-01  1.4197583002550E+00
   143  1.4200000000000E+00  1.6764993460015E-01  1.4406761472302E+00
   144  1.4300000000000E+00  1.4072233566722E-01  1.4595023573756E+00
   145  1.4400000000000E+00  1.1443069358422E-01  1.4761723595788E+00
   146  1.4500000000000E+00  8.8820447060071E-02  1.4906284181703E+00
   147  1.4600000000000E+00  6.3934748005693E-02  1.5028199102536E+00
   148  1.4700000000000E+00  3.9814318764170E-02  1.5127035739096E+00
   149  1.4800000000000E+00  1.6497319269266E-02  1.5202437259110E+00
   150  1.4900000000000E+00 -5.9807752710489E-03  1.5254124477193E+00
   151  1.5000000000000E+00 -2.7587285618461E-02  1.5281897386856E+00
   152  1.5100000000000E+00 -4.8292428179832E-02  1.5285636355271E+00
   153  1.5200000000000E+00 -6.8069402672879E-02  1.5265302973111E+00
   154  1.5300000000000E+00 -8.6894467397405E-02  1.5220940553411E+00
   155  1.5400000000000E+00 -1.0474700178613E-01  1.5152674275047E+00
   156  1.5500000000000E+00 -1.2160955596956E-01  1.5060710968185E+00
   157  1.5600000000000E+00 -1.3746788715103E-01  1.4945338540697E+00
   158  1.5700000000000E+00 -1.5231098265119E-01  1.4806925046369E+00
   159  1.5800000000000E+00 -1.6613106954440E-01  1.4645917397382E+00
   160  1.5900000000000E+00 -1.7892361087388E-01  1.4462839725349E+00
   161  1.6000000000000E+00 -1.9068728849622E-01  1.4258291396885E+00
   162  1.6100000000000E+00 -2.0142397266976E-01  1.4032944691370E+00
   163  1.6200000000000E+00 -2.1113867856450E-01  1.3787542150283E+00
   164  1.6300000000000E+00 -2.1983950993340E-01  1.3522893609039E+00
   165  1.6400000000000E+00 -2.2753759024579E-01  1.3239872923905E+00
   166  1.6500000000000E+00 -2.3424698164298E-01  1.2939414408037E+00
   167  1.6600000000000E+00 -2.3998459213370E-01  1.2622508992143E+00
   168  1.6700000000000E+00 -2.4477007150176E-01  1.2290200126666E+00
   169  1.6800000000000E+00 -2.4862569645150E-01  1.1943579443641E+00
   170  1.6900000000000E+00 -2.5157624556598E-01  1.1583782197613E+00
   171  1.7000000000000E+00 -2.5364886469987E-01  1.1211982506065E+00
   172  1.7100000000000E+00 -2.5487292347252E-01  1.0829388410866E+00
   173  1.7200000000000E+00 -2.5527986356630E-01  1.0437236783070E+00
   174  1.7300000000000E+00 -2.5490303957181E-01  1.0036788094242E+00
   175  1.7400000000000E+00 -2.5377755315347E-01  9.6293210780990E-01
   176  1.7500000000000E+00 -2.5194008133732E-01  9.2161273068326E-01
   177  1.7600000000000E+00 -2.4942869974649E-01  8.7985057068586E-01
   178  1.7700000000000E+00 -2.4628270162939E-01  8.3777570390625E-01
   179  1.7800000000000E+00 -2.4254241354062E-01  7.9551783687408E-01
   180  1.7900000000000E+00 -2.3824900854487E-01  7.5320575504858E-01
   181  1.8000000000000E+00 -2.3344431782017E-01  7.1096677531493E-01
   182  1.8100000000000E+00 -2.2817064153778E-01  6.6892620497967E-01
   183  1.8200000000000E+00 -2.2247055989289E-01  6.2720680972017E-01
   184  1.8300000000000E+00 -2.1638674515197E-01  5.8592829289423E-01
   185  1.8400000000000E+00 -2.0996177557058E-01  5.4520678855533E-01
   186  1.8500000000000E+00 -2.0323795201799E-01  5.0515437044545E-01
   187  1.8600000000000E+00 -1.9625711812430E-01  4.6587857915271E-01
   188  1.8700000000000E+00 -1.8906048473968E-01  4.2748196952504E-01
   189  1.8800000000000E+00 -1.8168845946621E-01  3.9006168032328E-01
   190  1.8900000000000E+00 -1.7418048198971E-01  3.5370902798190E-01
   191  1.9000000000000E+00 -1.6657486590126E-01  3.1850912621739E-01
   192  1.9100000000000E+00 -1.5890864765835E-01  2.8454053308937E-01
   193  1.9200000000000E+00 -1.5121744329146E-01  2.5187492697636E-01
   194  1.9300000000000E+00 -1.4353531341570E-01  2.2057681277740E-01
   195  1.9400000000000E+00 -1.3589463705761E-01  1.9070325949313E-01
   196  1.9500000000000E+00 -1.2832599475589E-01  1.6230367017797E-01
   197  1.9600000000000E+00 -1.2085806134056E-01  1.3541958508579E-01
   198  1.9700000000000E+00 -1.1351750874047E-01  1.1008451866287E-01
   199  1.9800000000000E+00 -1.0632891904643E-01  8.6323830532060E-02
   200  1.9900000000000E+00 -9.9314708153779E-02  6.4154631295829E-02
   201  2.0000000000000E+00 -9.2495062206498E-02  4.3585733293697E-02
   202  2.0100000000000E+00 -8.5887875633343E-02  2.4617589616544E-02
   203  2.0200000000000E+00 -7.9508731747361E-02  7.2424285173927E-03
   204  2.0300000000000E+00 -7.3371019696973E-02 -8.5549475690737E-03
   205  2.0400000000000E+00 -6.7486083045657E-02 -2.2796283788409E-02
   206  2.0500000000000E+00 -6.1863270726639E-02 -3.5509545254744E-02
   207  2.0600000000000E+00 -5.6509966544574E-02 -4.6728727290291E-02
   208  2.0700000000000E+00 -5.1431637601646E-02 -5.6493587910288E-02
   209  2.0800000000000E+00 -4.6631890126464E-02 -6.4849364180882E-02
   210  2.0900000000000E+00 -4.2112534154992E-02 -7.1846463522372E-02
   211  2.1000000000000E+00 -3.7873656726571E-02 -7.7540130954889E-02
   212  2.1100000000000E+00 -3.3913703004052E-02 -8.1990094431747E-02
   213  2.1200000000000E+00 -3.0229564759990E-02 -8.5260190136380E-02
   214  2.1300000000000E+00 -2.6816675632706E-02 -8.7417969722189E-02
   215  2.1400000000000E+00 -2.3669112524251E-02 -8.8534291559765E-02
   216  2.1500000000000E+00 -2.0779702481877E-02 -8.8682898136617E-02
   217  2.1600000000000E+00 -1.8140134377595E-02 -8.7939981824493E-02
   218  2.1700000000000E+00 -1.5741074679751E-02 -8.6383741281659E-02
   219  2.1800000000000E+00 -1.3572286590899E-02 -8.4093930805287E-02
   220  2.1900000000000E+00 -1.1622751813440E-02 -8.1151404979094E-02
   221  2.2000000000000E+00 -9.8807941917228E-03 -7.7637660987841E-02
   222  2.2100000000000E+00 -8.3342044749103E-03 -7.3634380975354E-02
   223  2.2200000000000E+00 -6.9703654425428E-03 -6.9222976819791E-02
   224  2.2300000000000E+00 -5.7763766362187E-03 -6.4484139687494E-02
   225  2.2400000000000E+00 -4.7391771857056E-03 -5.9497398515403E-02
   226  2.2500000000000E+00 -3.8456700772978E-03 -5.4340679963148E-02
   227  2.2600000000000E+00 -3.0828477233252E-03 -4.9089870771045E-02
   228  2.2700000000000E+00 -2.4378684827796E-03 -4.3818502156419E-02
   229  2.2800000000000E+00 -1.8982225414390E-03 -3.8597231169579E-02
   230  2.2900000000000E+00 -1.4523937095113E-03 -3.3492138373944E-02
   231  2.3000000000000E+00 -1.0908324561593E-03 -2.8562283135922E-02
   232  2.3100000000000E+00 -8.0271740106728E-04 -2.3867327251689E-02
   233  2.3200000000000E+00 -5.7683340537144E-04 -1.9465359384000E-02
   234  2.3300000000000E+00 -4.0309682213190E-04 -1.5409180679664E-02
   235  2.3400000000000E+00 -2.7225788980463E-04 -1.1746929547751E-02
   236  2.3500000000000E+00 -1.7605339874981E-04 -8.5216472296590E-03
   237  2.3600000000000E+00 -1.0725869443718E-04 -5.7710913907784E-03
   238  2.3700000000000E+00 -5.9771342172177E-05 -3.5289127270066E-03
   239  2.3800000000000E+00 -2.8484178843485E-05 -1.8124490062895E-03
   240  2.3900000000000E+00 -9.8590307236659E-06 -6.6025930151789E-04
   241  2.4000000000000E+00 -1.5730065542495E-06 -1.0526432818320E-04
   242  2.4100000000000E+00  3.5620192835986E-07  2.9385908714121E-05
   243  2.4200000000000E+00 -1.4798157941792E-08 -1.1369904239582E-06
   244  2.43  0.  0.
   245  2.44  0.  0.
   246  2.45  0.  0.
   247  2.46  0.  0.
   248  2.47  0.  0.
   249  2.48  0.  0.
   250  2.49  0.  0.
   251  2.50  0.  0.
   252  2.51  0.  0.
   253  2.52  0.  0.
   254  2.53  0.  0.
   255  2.54  0.  0.
   256  2.55  0.  0.
   257  2.56  0.  0.
   258  2.57  0.  0.
   259  2.58  0.  0.
   260  2.59  0.  0.
   261  2.60  0.  0.
   262  2.61  0.  0.
   263  2.62  0.  0.
   264  2.63  0.  0.
   265  2.64  0.  0.
   266  2.65  0.  0.
   267  2.66  0.  0.
   268  2.67  0.  0.
   269  2.68  0.  0.
   270  2.69  0.  0.
   271  2.70  0.  0.
   272  2.71  0.  0.
   273  2.72  0.  0.
   274  2.73  0.  0.
   275  2.74  0.  0.
   276  2.75  0.  0.
   277  2.76  0.  0.
   278  2.77  0.  0.
   279  2.78  0.  0.
   280  2.79  0.  0.
   281  2.80  0.  0.
   282  2.81  0.  0.
   283  2.82  0.  0.
   284  2.83  0.  0.
   285  2.84  0.  0.
   286  2.85  0.  0.
   287  2.86  0.  0.
   288  2.87  0.  0.
   289  2.88  0.  0.
   290  2.89  0.  0.
   291  2.90  0.  0.
   292  2.91  0.  0.
   293  2.92  0.  0.
   294  2.93  0.  0.
   295  2.94  0.  0.
   296  2.95  0.  0.
   297  2.96  0.  0.
   298  2.97  0.  0.
   299  2.98  0.  0.
   300  2.99  0.  0.
   301  3.00  0.  0.
   302  3.01  0.  0.
   303  3.02  0.  0.
   304  3.03  0.  0.
   305  3.04  0.  0.
   306  3.05  0.  0.
   307  3.06  0.  0.
   308  3.07  0.  0.
   309  3.08  0.  0.
   310  3.09  0.  0.
   311  3.10  0.  0.
   312  3.11  0.  0.
   313  3.12  0.  0.
   314  3.13  0.  0.
   315  3.14  0.  0.
   316  3.15  0.  0.
   317  3.16  0.  0.
   318  3.17  0.  0.
   319  3.18  0.  0.
   320  3.19  0.  0.
   321  3.20  0.  0.
   322  3.21  0.  0.
   323  3.22  0.  0.
   324  3.23  0.  0.
   325  3.24  0.  0.
   326  3.25  0.  0.
   327  3.26  0.  0.
   328  3.27  0.  0.
   329  3.28  0.  0.
   330  3.29  0.  0.
   331  3.30  0.  0.
   332  3.31  0.  0.
   333  3.32  0.  0.
   334  3.33  0.  0.
   335  3.34  0.  0.
   336  3.35  0.  0.
   337  3.36  0.  0.
   338  3.37  0.  0.
   339  3.38  0.  0.
   340  3.39  0.  0.
   341  3.40  0.  0.
   342  3.41  0.  0.
   343  3.42  0.  0.
   344  3.43  0.  0.
   345  3.44  0.  0.
   346  3.45  0.  0.
   347  3.46  0.  0.
   348  3.47  0.  0.
   349  3.48  0.  0.
   350  3.49  0.  0.
   351  3.50  0.  0.
   352  3.51  0.  0.
   353  3.52  0.  0.
   354  3.53  0.  0.
   355  3.54  0.  0.
   356  3.55  0.  0.
   357  3.56  0.  0.
   358  3.57  0.  0.
   359  3.58  0.  0.
   360  3.59  0.  0.
   361  3.60  0.  0.
   362  3.61  0.  0.
   363  3.62  0.  0.
   364  3.63  0.  0.
   365  3.64  0.  0.
   366  3.65  0.  0.
   367  3.66  0.  0.
   368  3.67  0.  0.
   369  3.68  0.  0.
   370  3.69  0.  0.
   371  3.70  0.  0.
   372  3.71  0.  0.
   373  3.72  0.  0.
   374  3.73  0.  0.
   375  3.74  0.  0.
   376  3.75  0.  0.
   377  3.76  0.  0.
   378  3.77  0.  0.
   379  3.78  0.  0.
   380  3.79  0.  0.
   381  3.80  0.  0.
   382  3.81  0.  0.
   383  3.82  0.  0.
   384  3.83  0.  0.
   385  3.84  0.  0.
   386  3.85  0.  0.
   387  3.86  0.  0.
   388  3.87  0.  0.
   389  3.88  0.  0.
   390  3.89  0.  0.
   391  3.90  0.  0.
   392  3.91  0.  0.
   393  3.92  0.  0.
   394  3.93  0.  0.
   395  3.94  0.  0.
   396  3.95  0.  0.
   397  3.96  0.  0.
   398  3.97  0.  0.
   399  3.98  0.  0.
   400  3.99  0.  0.
   401  4.00  0.  0.
   402  4.01  0.  0.
   403  4.02  0.  0.
   404  4.03  0.  0.
   405  4.04  0.  0.
   406  4.05  0.  0.
   407  4.06  0.  0.
   408  4.07  0.  0.
   409  4.08  0.  0.
   410  4.09  0.  0.
   411  4.10  0.  0.
   412  4.11  0.  0.
   413  4.12  0.  0.
   414  4.13  0.  0.
   415  4.14  0.  0.
   416  4.15  0.  0.
   417  4.16  0.  0.
   418  4.17  0.  0.
   419  4.18  0.  0.
   420  4.19  0.  0.
   421  4.20  0.  0.
   422  4.21  0.  0.
   423  4.22  0.  0.
   424  4.23  0.  0.
   425  4.24  0.  0.
   426  4.25  0.  0.
   427  4.26  0.  0.
   428  4.27  0.  0.
   429  4.28  0.  0.
   430  4.29  0.  0.
   431  4.30  0.  0.
   432  4.31  0.  0.
   433  4.32  0.  0.
   434  4.33  0.  0.
   435  4.34  0.  0.
   436  4.35  0.  0.
   437  4.36  0.  0.
   438  4.37  0.  0.
   439  4.38  0.  0.
   440  4.39  0.  0.
   441  4.40  0.  0.
   442  4.41  0.  0.
   443  4.42  0.  0.
   444  4.43  0.  0.
   445  4.44  0.  0.
   446  4.45  0.  0.
   447  4.46  0.  0.
   448  4.47  0.  0.
   449  4.48  0.  0.
   450  4.49  0.  0.
   451  4.50  0.  0.
   452  4.51  0.  0.
   453  4.52  0.  0.
   454  4.53  0.  0.
   455  4.54  0.  0.
   456  4.55  0.  0.
   457  4.56  0.  0.
   458  4.57  0.  0.
   459  4.58  0.  0.
   460  4.59  0.  0.
   461  4.60  0.  0.
   462  4.61  0.  0.
   463  4.62  0.  0.
   464  4.63  0.  0.
   465  4.64  0.  0.
   466  4.65  0.  0.
   467  4.66  0.  0.
   468  4.67  0.  0.
   469  4.68  0.  0.
   470  4.69  0.  0.
   471  4.70  0.  0.
   472  4.71  0.  0.
   473  4.72  0.  0.
   474  4.73  0.  0.
   475  4.74  0.  0.
   476  4.75  0.  0.
   477  4.76  0.  0.
   478  4.77  0.  0.
   479  4.78  0.  0.
   480  4.79  0.  0.
   481  4.80  0.  0.
   482  4.81  0.  0.
   483  4.82  0.  0.
   484  4.83  0.  0.
   485  4.84  0.  0.
   486  4.85  0.  0.
   487  4.86  0.  0.
   488  4.87  0.  0.
   489  4.88  0.  0.
   490  4.89  0.  0.
   491  4.90  0.  0.
   492  4.91  0.  0.
   493  4.92  0.  0.
   494  4.93  0.  0.
   495  4.94  0.  0.
   496  4.95  0.  0.
   497  4.96  0.  0.
   498  4.97  0.  0.
   499  4.98  0.  0.
   500  4.99  0.  0.
   501  5.00  0.  0.
   502  5.01  0.  0.
   503  5.02  0.  0.
   504  5.03  0.  0.
   505  5.04  0.  0.
   506  5.05  0.  0.
   507  5.06  0.  0.
   508  5.07  0.  0.
   509  5.08  0.  0.
   510  5.09  0.  0.
   511  5.10  0.  0.
   512  5.11  0.  0.
   513  5.12  0.  0.
   514  5.13  0.  0.
   515  5.14  0.  0.
   516  5.15  0.  0.
   517  5.16  0.  0.
   518  5.17  0.  0.
   519  5.18  0.  0.
   520  5.19  0.  0.
   521  5.20  0.  0.
   522  5.21  0.  0.
   523  5.22  0.  0.
   524  5.23  0.  0.
   525  5.24  0.  0.
   526  5.25  0.  0.
   527  5.26  0.  0.
   528  5.27  0.  0.
   529  5.28  0.  0.
   530  5.29  0.  0.
   531  5.30  0.  0.
   532  5.31  0.  0.
   533  5.32  0.  0.
   534  5.33  0.  0.
   535  5.34  0.  0.
   536  5.35  0.  0.
   537  5.36  0.  0.
   538  5.37  0.  0.
   539  5.38  0.  0.
   540  5.39  0.  0.
   541  5.40  0.  0.
   542  5.41  0.  0.
   543  5.42  0.  0.
   544  5.43  0.  0.
   545  5.44  0.  0.
   546  5.45  0.  0.
   547  5.46  0.  0.
   548  5.47  0.  0.
   549  5.48  0.  0.
   550  5.49  0.  0.
   551  5.50  0.  0.
   552  5.51  0.  0.
   553  5.52  0.  0.
   554  5.53  0.  0.
   555  5.54  0.  0.
   556  5.55  0.  0.
   557  5.56  0.  0.
   558  5.57  0.  0.
   559  5.58  0.  0.
   560  5.59  0.  0.
   561  5.60  0.  0.
   562  5.61  0.  0.
   563  5.62  0.  0.
   564  5.63  0.  0.
   565  5.64  0.  0.
   566  5.65  0.  0.
   567  5.66  0.  0.
   568  5.67  0.  0.
   569  5.68  0.  0.
   570  5.69  0.  0.
   571  5.70  0.  0.
   572  5.71  0.  0.
   573  5.72  0.  0.
   574  5.73  0.  0.
   575  5.74  0.  0.
   576  5.75  0.  0.
   577  5.76  0.  0.
   578  5.77  0.  0.
   579  5.78  0.  0.
   580  5.79  0.  0.
   581  5.80  0.  0.
   582  5.81  0.  0.
   583  5.82  0.  0.
   584  5.83  0.  0.
   585  5.84  0.  0.
   586  5.85  0.  0.
   587  5.86  0.  0.
   588  5.87  0.  0.
   589  5.88  0.  0.
   590  5.89  0.  0.
   591  5.90  0.  0.
   592  5.91  0.  0.
   593  5.92  0.  0.
   594  5.93  0.  0.
   595  5.94  0.  0.
   596  5.95  0.  0.
   597  5.96  0.  0.
   598  5.97  0.  0.
   599  5.98  0.  0.
   600  5.99  0.  0.
   1                         4.2499046582554E+00  5.3240354310390E-01  2.5208046693097E-02
     1  0.0000000000000E+00  1.2336381916001E-12 -1.9797254113829E-11  2.7976433669696E-10
     2  1.0000000000000E-02  2.6226537879217E-04 -2.1660073131184E-04  7.6154948128728E-04
     3  2.0000000000000E-02  1.0488628439979E-03 -8.6587464118991E-04  3.0417358465353E-03
     4  3.0000000000000E-02  2.3591965155684E-03 -1.9462387939287E-03  6.8271987417625E-03
     5  4.0000000000000E-02  4.1922737042855E-03 -3.4550613411653E-03  1.2095757037254E-02
     6  5.0000000000000E-02  6.5467055757219E-03 -5.3886710523275E-03  1.8816537507909E-02
     7  6.0000000000000E-02  9.4207080751339E-03 -7.7423705849217E-03  2.6950153968306E-02
     8  7.0000000000000E-02  1.2812103108673E-02 -1.0510453422787E-02  3.6448935851789E-02
     9  8.0000000000000E-02  1.6718319975072E-02 -1.3686224390646E-02  4.7257204943105E-02
    10  9.0000000000000E-02  2.1136397040737E-02 -1.7262023633914E-02  5.9311598701632E-02
    11  1.0000000000000E-01  2.6062983650068E-02 -2.1229253934068E-02  7.2541438347837E-02
    12  1.1000000000000E-01  3.1494342261724E-02 -2.5578411211890E-02  8.6869139631214E-02
    13  1.2000000000000E-01  3.7426350800597E-02 -3.0299118053762E-02  1.0221066395443E-01
    14  1.3000000000000E-01  4.3854505214330E-02 -3.5380160079997E-02  1.1847600729767E-01
    15  1.4000000000000E-01  5.0773922222436E-02 -4.0809524959011E-02  1.3556972416979E-01
    16  1.5000000000000E-01  5.8179342245343E-02 -4.6574443857047E-02  1.5339148361087E-01
    17  1.6000000000000E-01  6.6065132500158E-02 -5.2661435100319E-02  1.7183665408436E-01
    18  1.7000000000000E-01  7.4425290249428E-02 -5.9056349814816E-02  1.9079691392780E-01
    19  1.8000000000000E-01  8.3253446188870E-02 -6.5744419298748E-02  2.1016088388030E-01
    20  1.9000000000000E-01  9.2542867959834E-02 -7.2710303873747E-02  2.2981477807226E-01
    21  2.0000000000000E-01  1.0228646377217E-01 -7.9938142953537E-02  2.4964306975040E-01
    22  2.1000000000000E-01  1.1247678612329E-01 -8.7411606062866E-02  2.6952916791912E-01
    23  2.2000000000000E-01  1.2310603559933E-01 -9.5113944535163E-02  2.8935610100735E-01
    24  2.3000000000000E-01  1.3416606474481E-01 -1.0302804361455E-01  3.0900720362040E-01
    25  2.4000000000000E-01  1.4564838198757E-01 -1.1113647468674E-01  3.2836680240771E-01
    26  2.5000000000000E-01  1.5754415560648E-01 -1.1942154736362E-01  3.4732089707108E-01
    27  2.6000000000000E-01  1.6984421773010E-01 -1.2786536114859E-01  3.6575783255355E-01
    28  2.7000000000000E-01  1.8253906835563E-01 -1.3644985641319E-01  3.8356895848699E-01
    29  2.8000000000000E-01  1.9561887937820E-01 -1.4515686442083E-01  4.0064927203574E-01
    30  2.9000000000000E-01  2.0907349862220E-01 -1.5396815614050E-01  4.1689804035560E-01
    31  3.0000000000000E-01  2.2289245386715E-01 -1.6286548960132E-01  4.3221939898977E-01
    32  3.1000000000000E-01  2.3706495686262E-01 -1.7183065554918E-01  4.4652292264775E-01
    33  3.2000000000000E-01  2.5157990732785E-01 -1.8084552117766E-01  4.5972416495681E-01
    34  3.3000000000000E-01  2.6642589693358E-01 -1.8989207171856E-01  4.7174516394010E-01
    35  3.4000000000000E-01  2.8159121326541E-01 -1.9895244969110E-01  4.8251491015807E-01
    36  3.5000000000000E-01  2.9706384376984E-01 -2.0800899162475E-01  4.9196977465100E-01
    37  3.6000000000000E-01  3.1283147968593E-01 -2.1704426208673E-01  5.0005389403832E-01
    38  3.7000000000000E-01  3.2888151996793E-01 -2.2604108486326E-01  5.0671951036458E-01
    39  3.8000000000000E-01  3.4520107520574E-01 -2.3498257116222E-01  5.1192726353055E-01
    40  3.9000000000000E-01  3.6177697155285E-01 -2.4385214472449E-01  5.1564643441044E-01
    41  4.0000000000000E-01  3.7859575467281E-01 -2.5263356375172E-01  5.1785513703068E-01
    42  4.1000000000000E-01  3.9564369371817E-01 -2.6131093957924E-01  5.1854045847097E-01
    43  4.2000000000000E-01  4.1290678535733E-01 -2.6986875204471E-01  5.1769854544284E-01
    44  4.3000000000000E-01  4.3037075786744E-01 -2.7829186152508E-01  5.1533463680319E-01
    45  4.4000000000000E-01  4.4802107531327E-01 -2.8656551763689E-01  5.1146304156859E-01
    46  4.5000000000000E-01  4.6584294183401E-01 -2.9467536461768E-01  5.0610706230887E-01
    47  4.6000000000000E-01  4.8382130606235E-01 -3.0260744342880E-01  4.9929886411391E-01
    48  4.7000000000000E-01  5.0194086570161E-01 -3.1034819064280E-01  4.9107928964416E-01
    49  4.8000000000000E-01  5.2018607228896E-01 -3.1788443420076E-01  4.8149762109081E-01
    50  4.9000000000000E-01  5.3854113617423E-01 -3.2520338614706E-01  4.7061129018510E-01
    51  5.0000000000000E-01  5.5699003174555E-01 -3.3229263247079E-01  4.5848553770484E-01
    52  5.1000000000000E-01  5.7551650293446E-01 -3.3914012020388E-01  4.4519302422925E-01
    53  5.2000000000000E-01  5.9410406903444E-01 -3.4573414194618E-01  4.3081339418821E-01
    54  5.3000000000000E-01  6.1273603086812E-01 -3.5206331800735E-01  4.1543279553780E-01