Bi    ONCVPSP-4.0.1  r_core=   2.40513   2.50798   2.10854
     83.0000     15.0000      250217    zatom,zion,pspd
     8       2   2     4   600     0    pspcod,pspxc,lmax,lloc,mmax,r2well
  5.99000000  6.00000000  0.00000000    rchrg fchrg qchrg
     2     3     2     0    nproj
     3     1           extension_switch
     4     3     0    nprojso
   0                         5.5914748083575E+00  7.8558689827983E-01
     1  0.0000000000000E+00 -9.4088903335177E-12  2.3231021273329E-11
     2  1.0000000000000E-02  1.9317606810171E-02 -6.6961941793733E-03
     3  2.0000000000000E-02  3.8620733253928E-02 -1.3364561653241E-02
     4  3.0000000000000E-02  5.7894975658553E-02 -1.9977457281542E-02
     5  4.0000000000000E-02  7.7126083276155E-02 -2.6507597946586E-02
     6  5.0000000000000E-02  9.6300033592063E-02 -3.2928240798838E-02
     7  6.0000000000000E-02  1.1540310625503E-01 -3.9213358200622E-02
     8  7.0000000000000E-02  1.3442195518090E-01 -4.5337808294370E-02
     9  8.0000000000000E-02  1.5334367839077E-01 -5.1277500145224E-02
    10  9.0000000000000E-02  1.7215588515642E-01 -5.7009552436665E-02
    11  1.0000000000000E-01  1.9084676003954E-01 -6.2512444732131E-02
    12  1.1000000000000E-01  2.0940512342748E-01 -6.7766160355182E-02
    13  1.2000000000000E-01  2.2782048818632E-01 -7.2752319985530E-02
    14  1.3000000000000E-01  2.4608311207209E-01 -7.7454305117879E-02
    15  1.4000000000000E-01  2.6418404556320E-01 -8.1857370584857E-02
    16  1.5000000000000E-01  2.8211517480090E-01 -8.5948745404051E-02
    17  1.6000000000000E-01  2.9986925935008E-01 -8.9717721272099E-02
    18  1.7000000000000E-01  3.1743996451997E-01 -9.3155728095507E-02
    19  1.8000000000000E-01  3.3482188801289E-01 -9.6256396018107E-02
    20  1.9000000000000E-01  3.5201058069903E-01 -9.9015603478617E-02
    21  2.0000000000000E-01  3.6900256134657E-01 -1.0143151090806E-01
    22  2.1000000000000E-01  3.8579532516832E-01 -1.0350457975546E-01
    23  2.2000000000000E-01  4.0238734607947E-01 -1.0523757661141E-01
    24  2.3000000000000E-01  4.1877807259458E-01 -1.0663556228132E-01
    25  2.4000000000000E-01  4.3496791732649E-01 -1.0770586574434E-01
    26  2.5000000000000E-01  4.5095824008451E-01 -1.0845804301858E-01
    27  2.6000000000000E-01  4.6675132460456E-01 -1.0890382103848E-01
    28  2.7000000000000E-01  4.8235034897868E-01 -1.0905702673547E-01
    29  2.8000000000000E-01  4.9775934988689E-01 -1.0893350159790E-01
    30  2.9000000000000E-01  5.1298318076874E-01 -1.0855100207044E-01
    31  3.0000000000000E-01  5.2802746410658E-01 -1.0792908623566E-01
    32  3.1000000000000E-01  5.4289853802619E-01 -1.0708898730185E-01
    33  3.2000000000000E-01  5.5760339745355E-01 -1.0605347450020E-01
    34  3.3000000000000E-01  5.7214963009849E-01 -1.0484670207080E-01
    35  3.4000000000000E-01  5.8654534756712E-01 -1.0349404709061E-01
    36  3.5000000000000E-01  6.0079911193438E-01 -1.0202193696683E-01
    37  3.6000000000000E-01  6.1491985813673E-01 -1.0045766748570E-01
    38  3.7000000000000E-01  6.2891681257137E-01 -9.8829212369062E-02
    39  3.8000000000000E-01  6.4279940831367E-01 -9.7165025349298E-02
    40  3.9000000000000E-01  6.5657719738756E-01 -9.5493835826401E-02
    41  4.0000000000000E-01  6.7025976054478E-01 -9.3844439219112E-02
    42  4.1000000000000E-01  6.8385661502812E-01 -9.2245483165008E-02
    43  4.2000000000000E-01  6.9737712081031E-01 -9.0725250761316E-02
    44  4.3000000000000E-01  7.1083038581526E-01 -8.9311442069751E-02
    45  4.4000000000000E-01  7.2422517063997E-01 -8.8030955133598E-02
    46  4.5000000000000E-01  7.3756979330522E-01 -8.6909667774097E-02
    47  4.6000000000000E-01  7.5087203457021E-01 -8.5972221445464E-02
    48  4.7000000000000E-01  7.6413904435062E-01 -8.5241808433633E-02
    49  4.8000000000000E-01  7.7737724978117E-01 -8.4739963682656E-02
    50  4.9000000000000E-01  7.9059226546267E-01 -8.4486362524838E-02
    51  5.0000000000000E-01  8.0378880643000E-01 -8.4498625576045E-02
    52  5.1000000000000E-01  8.1697060437028E-01 -8.4792132036069E-02
    53  5.2000000000000E-01  8.3014032761169E-01 -8.5379842605422E-02
    54  5.3000000000000E-01  8.4329950539085E-01 -8.6272133195081E-02
    55  5.4000000000000E-01  8.5644845689192E-01 -8.7476640563607E-02
    56  5.5000000000000E-01  8.6958622553301E-01 -8.8998120967998E-02
    57  5.6000000000000E-01  8.8271051895524E-01 -9.0838322859838E-02
    58  5.7000000000000E-01  8.9581765514697E-01 -9.2995874597543E-02
    59  5.8000000000000E-01  9.0890251511053E-01 -9.5466188078644E-02
    60  5.9000000000000E-01  9.2195850245092E-01 -9.8241379123747E-02
    61  6.0000000000000E-01  9.3497751023635E-01 -1.0131020536607E-01
    62  6.1000000000000E-01  9.4794989544791E-01 -1.0465802231750E-01
    63  6.2000000000000E-01  9.6086446130187E-01 -1.0826675819476E-01
    64  6.3000000000000E-01  9.7370844769192E-01 -1.1211490799771E-01
    65  6.4000000000000E-01  9.8646752996093E-01 -1.1617754723570E-01
    66  6.5000000000000E-01  9.9912582617246E-01 -1.2042636559972E-01
    67  6.6000000000000E-01  1.0116659130116E+00 -1.2482972077533E-01
    68  6.7000000000000E-01  1.0240688504026E+00 -1.2935271248725E-01
    69  6.8000000000000E-01  1.0363142148885E+00 -1.3395727676058E-01
    70  6.9000000000000E-01  1.0483801417727E+00 -1.3860230027493E-01
    71  7.0000000000000E-01  1.0602433759808E+00 -1.4324375457996E-01
    72  7.1000000000000E-01  1.0718793315528E+00 -1.4783484983122E-01
    73  7.2000000000000E-01  1.0832621596345E+00 -1.5232620759666E-01
    74  7.3000000000000E-01  1.0943648247892E+00 -1.5666605217625E-01
    75  7.4000000000000E-01  1.1051591894086E+00 -1.6080041977028E-01
    76  7.5000000000000E-01  1.1156161059559E+00 -1.6467338472747E-01
    77  7.6000000000000E-01  1.1257055167327E+00 -1.6822730200176E-01
    78  7.7000000000000E-01  1.1353965608170E+00 -1.7140306484750E-01
    79  7.8000000000000E-01  1.1446576877809E+00 -1.7414037668736E-01
    80  7.9000000000000E-01  1.1534567777553E+00 -1.7637803599607E-01
    81  8.0000000000000E-01  1.1617612673702E+00 -1.7805423295636E-01
    82  8.1000000000000E-01  1.1695382810667E+00 -1.7910685656223E-01
    83  8.2000000000000E-01  1.1767547672377E+00 -1.7947381076921E-01
    84  8.3000000000000E-01  1.1833776386263E+00 -1.7909333822162E-01
    85  8.4000000000000E-01  1.1893739163804E+00 -1.7790435002422E-01
    86  8.5000000000000E-01  1.1947108771343E+00 -1.7584675996996E-01
    87  8.6000000000000E-01  1.1993562024652E+00 -1.7286182158737E-01
    88  8.7000000000000E-01  1.2032781300510E+00 -1.6889246633042E-01
    89  8.8000000000000E-01  1.2064456058390E+00 -1.6388364120178E-01
    90  8.9000000000000E-01  1.2088284365176E+00 -1.5778264407631E-01
    91  9.0000000000000E-01  1.2103974415751E+00 -1.5053945497639E-01
    92  9.1000000000000E-01  1.2111246042195E+00 -1.4210706154415E-01
    93  9.2000000000000E-01  1.2109832204295E+00 -1.3244177695876E-01
    94  9.3000000000000E-01  1.2099480454056E+00 -1.2150354855807E-01
    95  9.4000000000000E-01  1.2079954366947E+00 -1.0925625544509E-01
    96  9.5000000000000E-01  1.2051034932642E+00 -9.5667993389740E-02
    97  9.6000000000000E-01  1.2012521898165E+00 -8.0711345375731E-02
    98  9.7000000000000E-01  1.1964235056447E+00 -6.4363636190196E-02
    99  9.8000000000000E-01  1.1906015473495E+00 -4.6607169511432E-02
   100  9.9000000000000E-01  1.1837726647573E+00 -2.7429446015787E-02
   101  1.0000000000000E+00  1.1759255594056E+00 -6.8233610991695E-03
   102  1.0100000000000E+00  1.1670513849861E+00  1.5212619108639E-02
   103  1.0200000000000E+00  1.1571438391727E+00  3.8674304668058E-02
   104  1.0300000000000E+00  1.1461992462896E+00  6.3551652825033E-02
   105  1.0400000000000E+00  1.1342166303168E+00  8.9828664105745E-02
   106  1.0500000000000E+00  1.1211977777692E+00  1.1748330442623E-01
   107  1.0600000000000E+00  1.1071472900275E+00  1.4648745401497E-01
   108  1.0700000000000E+00  1.0920726247465E+00  1.7680688382234E-01
   109  1.0800000000000E+00  1.0759841260130E+00  2.0840125996244E-01
   110  1.0900000000000E+00  1.0588950429758E+00  2.4122417659957E-01
   111  1.1000000000000E+00  1.0408215367233E+00  2.7522321755428E-01
   112  1.1100000000000E+00  1.0217826752356E+00  3.1034004676475E-01
   113  1.1200000000000E+00  1.0018004162950E+00  3.4651052759579E-01
   114  1.1300000000000E+00  9.8089957829398E-01  3.8366487084433E-01
   115  1.1400000000000E+00  9.5910779893552E-01  4.2172781114484E-01
   116  1.1500000000000E+00  9.3645548188064E-01  4.6061881133270E-01
   117  1.1600000000000E+00  9.1297573145262E-01  5.0025229417892E-01
   118  1.1700000000000E+00  8.8870427556722E-01  5.4053790076627E-01
   119  1.1800000000000E+00  8.6367937711442E-01  5.8138077463475E-01
   120  1.1900000000000E+00  8.3794173407409E-01  6.2268187068704E-01
   121  1.2000000000000E+00  8.1153436870382E-01  6.6433828770798E-01
   122  1.2100000000000E+00  7.8450250619158E-01  7.0624362322313E-01
   123  1.2200000000000E+00  7.5689344321870E-01  7.4828834929457E-01
   124  1.2300000000000E+00  7.2875640693031E-01  7.9036020773321E-01
   125  1.2400000000000E+00  7.0014240485890E-01  8.3234462309313E-01
   126  1.2500000000000E+00  6.7110406639429E-01  8.7412513170742E-01
   127  1.2600000000000E+00  6.4169547643659E-01  9.1558382492679E-01
   128  1.2700000000000E+00  6.1197200191092E-01  9.5660180463173E-01
   129  1.2800000000000E+00  5.8199011186054E-01  9.9705964900837E-01
   130  1.2900000000000E+00  5.5180719187010E-01  1.0368378865062E+00
   131  1.3000000000000E+00  5.2148135360240E-01  1.0758174758341E+00
   132  1.3100000000000E+00  4.9107124025978E-01  1.1138802897992E+00
   133  1.3200000000000E+00  4.6063582880529E-01  1.1509096007537E+00
   134  1.3300000000000E+00  4.3023422979881E-01  1.1867905653825E+00
   135  1.3400000000000E+00  3.9992548571913E-01  1.2214107065487E+00
   136  1.3500000000000E+00  3.6976836865489E-01  1.2546603899044E+00
   137  1.3600000000000E+00  3.3982117825406E-01  1.2864332929803E+00
   138  1.3700000000000E+00  3.1014154082543E-01  1.3166268644834E+00
   139  1.3800000000000E+00  2.8078621048325E-01  1.3451427715593E+00
   140  1.3900000000000E+00  2.5181087322106E-01  1.3718873328149E+00
   141  1.4000000000000E+00  2.2326995478983E-01  1.3967719349501E+00
   142  1.4100000000000E+00  1.9521643324120E-01  1.4197134309054E+00
   143  1.4200000000000E+00  1.6770165697756E-01  1.4406345175114E+00
   144  1.4300000000000E+00  1.4077516912706E-01  1.4594640907034E+00
   145  1.4400000000000E+00  1.1448453903473E-01  1.4761375764654E+00
   146  1.4500000000000E+00  8.8875201628931E-02  1.4905972357681E+00
   147  1.4600000000000E+00  6.3990305387404E-02  1.5027924418803E+00
   148  1.4700000000000E+00  3.9870569587640E-02  1.5126799285588E+00
   149  1.4800000000000E+00  1.6554151484221E-02  1.5202240077490E+00
   150  1.4900000000000E+00 -5.9234759905201E-03  1.5253967555726E+00
   151  1.5000000000000E+00 -2.7529635455003E-02  1.5281781655203E+00
   152  1.5100000000000E+00 -4.8234544740398E-02  1.5285562679245E+00
   153  1.5200000000000E+00 -6.8011404544809E-02  1.5265272149424E+00
   154  1.5300000000000E+00 -8.6836473695089E-02  1.5220953304437E+00
   155  1.5400000000000E+00 -1.0468913169043E-01  1.5152731243654E+00
   156  1.5500000000000E+00 -1.2155192826222E-01  1.5060812712651E+00
   157  1.5600000000000E+00 -1.3741061974648E-01  1.4945485529771E+00
   158  1.5700000000000E+00 -1.5225419212796E-01  1.4807117654484E+00
   159  1.5800000000000E+00 -1.6607487067871E-01  1.4646155900088E+00
   160  1.5900000000000E+00 -1.7886811617770E-01  1.4463124294985E+00
   161  1.6000000000000E+00 -1.9063260776233E-01  1.4258622098526E+00
   162  1.6100000000000E+00 -2.0137021252617E-01  1.4033321479102E+00
   163  1.6200000000000E+00 -2.1108594204069E-01  1.3787964863819E+00
   164  1.6300000000000E+00 -2.1978789604072E-01  1.3523361970733E+00
   165  1.6400000000000E+00 -2.2748719357435E-01  1.3240386536181E+00
   166  1.6500000000000E+00 -2.3419789197733E-01  1.2939972751268E+00
   167  1.6600000000000E+00 -2.3993689408941E-01  1.2623111423015E+00
   168  1.6700000000000E+00 -2.4472384418505E-01  1.2290845877052E+00
   169  1.6800000000000E+00 -2.4858101314392E-01  1.1944267620004E+00
   170  1.6900000000000E+00 -2.5153317343592E-01  1.1584511780968E+00
   171  1.7000000000000E+00 -2.5360746454278E-01  1.1212752352518E+00
   172  1.7100000000000E+00 -2.5483324948133E-01  1.0830197252743E+00
   173  1.7200000000000E+00 -2.5524196313357E-01  1.0438083230653E+00
   174  1.7300000000000E+00 -2.5486695312482E-01  1.0037670638120E+00
   175  1.7400000000000E+00 -2.5374331402350E-01  9.6302380921453E-01
   176  1.7500000000000E+00 -2.5190771566393E-01  9.2170770517999E-01
   177  1.7600000000000E+00 -2.4939822641770E-01  8.7994863346079E-01
   178  1.7700000000000E+00 -2.4625413225830E-01  8.3787665974089E-01
   179  1.7800000000000E+00 -2.4251575247882E-01  7.9562148069138E-01
   180  1.7900000000000E+00 -2.3822425293287E-01  7.5331187251908E-01
   181  1.8000000000000E+00 -2.3342145767492E-01  7.1107514352164E-01
   182  1.8100000000000E+00 -2.2814965987698E-01  6.6903659313979E-01
   183  1.8200000000000E+00 -2.2245143289578E-01  6.2731897996124E-01
   184  1.8300000000000E+00 -2.1636944235600E-01  5.8604200108242E-01
   185  1.8400000000000E+00 -2.0994626010319E-01  5.4532178517262E-01
   186  1.8500000000000E+00 -2.0322418086257E-01  5.0527040151268E-01
   187  1.8600000000000E+00 -1.9624504241915E-01  4.6599538719504E-01
   188  1.8700000000000E+00 -1.8905005010868E-01  4.2759929457567E-01
   189  1.8800000000000E+00 -1.8167960637983E-01  3.9017926096159E-01
   190  1.8900000000000E+00 -1.7417314615449E-01  3.5382660240170E-01
   191  1.9000000000000E+00 -1.6656897867627E-01  3.1862643332053E-01
   192  1.9100000000000E+00 -1.5890413649650E-01  2.8465731360016E-01
   193  1.9200000000000E+00 -1.5121423220375E-01  2.5199092457187E-01
   194  1.9300000000000E+00 -1.4353332345615E-01  2.2069177522841E-01
   195  1.9400000000000E+00 -1.3589378682673E-01  1.9081693981087E-01
   196  1.9500000000000E+00 -1.2832620092025E-01  1.6241582776124E-01
   197  1.9600000000000E+00 -1.2085923916613E-01  1.3552998686326E-01
   198  1.9700000000000E+00 -1.1351957263716E-01  1.1019294022523E-01
   199  1.9800000000000E+00 -1.0633178312146E-01  8.6430057248915E-02
   200  1.9900000000000E+00 -9.9318286771200E-02  6.4258459412022E-02
   201  2.0000000000000E+00 -9.2499270549350E-02  4.3686970997132E-02
   202  2.0100000000000E+00 -8.5892630270551E-02  2.4716058085378E-02
   203  2.0200000000000E+00 -7.9513951186312E-02  7.3379628960701E-03
   204  2.0300000000000E+00 -7.3376624854008E-02 -8.4624974469129E-03
   205  2.0400000000000E+00 -6.7491997623226E-02 -2.2707052945203E-02
   206  2.0500000000000E+00 -6.1869421553286E-02 -3.5423653216993E-02
   207  2.0600000000000E+00 -5.6516283892788E-02 -4.6646277793479E-02
   208  2.0700000000000E+00 -5.1438055476984E-02 -5.6414668677096E-02
   209  2.0800000000000E+00 -4.6638346527550E-02 -6.4774046771031E-02
   210  2.0900000000000E+00 -4.2118971303020E-02 -7.1774803255483E-02
   211  2.1000000000000E+00 -3.7880021263151E-02 -7.7472166907288E-02
   212  2.1100000000000E+00 -3.3919946156291E-02 -8.1925849508055E-02
   213  2.1200000000000E+00 -3.0235642471935E-02 -8.5199671216243E-02
   214  2.1300000000000E+00 -2.6822548662459E-02 -8.7361167882133E-02
   215  2.1400000000000E+00 -2.3674746506140E-02 -8.8481182370054E-02
   216  2.1500000000000E+00 -2.0785067953322E-02 -8.8633442032498E-02
   217  2.1600000000000E+00 -1.8145206770427E-02 -8.7894124550962E-02
   218  2.1700000000000E+00 -1.5745834275935E-02 -8.6341414410579E-02
   219  2.1800000000000E+00 -1.3576718442768E-02 -8.4055052323379E-02
   220  2.1900000000000E+00 -1.1626845628703E-02 -8.1115879945017E-02
   221  2.2000000000000E+00 -9.8845441837199E-03 -7.7605382256267E-02
   222  2.2100000000000E+00 -8.3376091787000E-03 -7.3605229985696E-02
   223  2.2200000000000E+00 -6.9734274975887E-03 -6.9196824446966E-02
   224  2.2300000000000E+00 -5.7791025366088E-03 -6.4460847151799E-02
   225  2.2400000000000E+00 -4.7415769987959E-03 -5.9476818349076E-02
   226  2.2500000000000E+00 -3.8477571327838E-03 -5.4322657027156E-02
   227  2.2600000000000E+00 -3.0846382746618E-03 -4.9074243315634E-02
   228  2.2700000000000E+00 -2.4393813353877E-03 -4.3805102956218E-02
   229  2.2800000000000E+00 -1.8994786557262E-03 -3.8585888674895E-02
   230  2.2900000000000E+00 -1.4534159288276E-03 -3.3482677350355E-02
   231  2.3000000000000E+00 -1.0916454653881E-03 -2.8554524436267E-02
   232  2.3100000000000E+00 -8.0334687133084E-04 -2.3861090707571E-02
   233  2.3200000000000E+00 -5.7730524256254E-04 -1.9460466123493E-02
   234  2.3300000000000E+00 -4.0343669058050E-04 -1.5405454232968E-02
   235  2.3400000000000E+00 -2.7249066315620E-04 -1.1744197252755E-02
   236  2.3500000000000E+00 -1.7620262181385E-04 -8.5197415635352E-03
   237  2.3600000000000E+00 -1.0734604185138E-04 -5.7698512970883E-03
   238  2.3700000000000E+00 -5.9816078771237E-05 -3.5281846882982E-03
   239  2.3800000000000E+00 -2.8502617701392E-05 -1.8120901311725E-03
   240  2.3900000000000E+00 -9.8640409623149E-06 -6.6013394657221E-04
   241  2.4000000000000E+00 -1.5735471971552E-06 -1.0524512377018E-04
   242  2.4100000000000E+00  3.5624752103841E-07  2.9380875507691E-05
   243  2.4200000000000E+00 -1.4802607485226E-08 -1.1367876552224E-06
   244  2.43  0.  0.
   245  2.44  0.  0.
   246  2.45  0.  0.
   247  2.46  0.  0.
   248  2.47  0.  0.
   249  2.48  0.  0.
   250  2.49  0.  0.
   251  2.50  0.  0.
   252  2.51  0.  0.
   253  2.52  0.  0.
   254  2.53  0.  0.
   255  2.54  0.  0.
   256  2.55  0.  0.
   257  2.56  0.  0.
   258  2.57  0.  0.
   259  2.58  0.  0.
   260  2.59  0.  0.
   261  2.60  0.  0.
   262  2.61  0.  0.
   263  2.62  0.  0.
   264  2.63  0.  0.
   265  2.64  0.  0.
   266  2.65  0.  0.
   267  2.66  0.  0.
   268  2.67  0.  0.
   269  2.68  0.  0.
   270  2.69  0.  0.
   271  2.70  0.  0.
   272  2.71  0.  0.
   273  2.72  0.  0.
   274  2.73  0.  0.
   275  2.74  0.  0.
   276  2.75  0.  0.
   277  2.76  0.  0.
   278  2.77  0.  0.
   279  2.78  0.  0.
   280  2.79  0.  0.
   281  2.80  0.  0.
   282  2.81  0.  0.
   283  2.82  0.  0.
   284  2.83  0.  0.
   285  2.84  0.  0.
   286  2.85  0.  0.
   287  2.86  0.  0.
   288  2.87  0.  0.
   289  2.88  0.  0.
   290  2.89  0.  0.
   291  2.90  0.  0.
   292  2.91  0.  0.
   293  2.92  0.  0.
   294  2.93  0.  0.
   295  2.94  0.  0.
   296  2.95  0.  0.
   297  2.96  0.  0.
   298  2.97  0.  0.
   299  2.98  0.  0.
   300  2.99  0.  0.
   301  3.00  0.  0.
   302  3.01  0.  0.
   303  3.02  0.  0.
   304  3.03  0.  0.
   305  3.04  0.  0.
   306  3.05  0.  0.
   307  3.06  0.  0.
   308  3.07  0.  0.
   309  3.08  0.  0.
   310  3.09  0.  0.
   311  3.10  0.  0.
   312  3.11  0.  0.
   313  3.12  0.  0.
   314  3.13  0.  0.
   315  3.14  0.  0.
   316  3.15  0.  0.
   317  3.16  0.  0.
   318  3.17  0.  0.
   319  3.18  0.  0.
   320  3.19  0.  0.
   321  3.20  0.  0.
   322  3.21  0.  0.
   323  3.22  0.  0.
   324  3.23  0.  0.
   325  3.24  0.  0.
   326  3.25  0.  0.
   327  3.26  0.  0.
   328  3.27  0.  0.
   329  3.28  0.  0.
   330  3.29  0.  0.
   331  3.30  0.  0.
   332  3.31  0.  0.
   333  3.32  0.  0.
   334  3.33  0.  0.
   335  3.34  0.  0.
   336  3.35  0.  0.
   337  3.36  0.  0.
   338  3.37  0.  0.
   339  3.38  0.  0.
   340  3.39  0.  0.
   341  3.40  0.  0.
   342  3.41  0.  0.
   343  3.42  0.  0.
   344  3.43  0.  0.
   345  3.44  0.  0.
   346  3.45  0.  0.
   347  3.46  0.  0.
   348  3.47  0.  0.
   349  3.48  0.  0.
   350  3.49  0.  0.
   351  3.50  0.  0.
   352  3.51  0.  0.
   353  3.52  0.  0.
   354  3.53  0.  0.
   355  3.54  0.  0.
   356  3.55  0.  0.
   357  3.56  0.  0.
   358  3.57  0.  0.
   359  3.58  0.  0.
   360  3.59  0.  0.
   361  3.60  0.  0.
   362  3.61  0.  0.
   363  3.62  0.  0.
   364  3.63  0.  0.
   365  3.64  0.  0.
   366  3.65  0.  0.
   367  3.66  0.  0.
   368  3.67  0.  0.
   369  3.68  0.  0.
   370  3.69  0.  0.
   371  3.70  0.  0.
   372  3.71  0.  0.
   373  3.72  0.  0.
   374  3.73  0.  0.
   375  3.74  0.  0.
   376  3.75  0.  0.
   377  3.76  0.  0.
   378  3.77  0.  0.
   379  3.78  0.  0.
   380  3.79  0.  0.
   381  3.80  0.  0.
   382  3.81  0.  0.
   383  3.82  0.  0.
   384  3.83  0.  0.
   385  3.84  0.  0.
   386  3.85  0.  0.
   387  3.86  0.  0.
   388  3.87  0.  0.
   389  3.88  0.  0.
   390  3.89  0.  0.
   391  3.90  0.  0.
   392  3.91  0.  0.
   393  3.92  0.  0.
   394  3.93  0.  0.
   395  3.94  0.  0.
   396  3.95  0.  0.
   397  3.96  0.  0.
   398  3.97  0.  0.
   399  3.98  0.  0.
   400  3.99  0.  0.
   401  4.00  0.  0.
   402  4.01  0.  0.
   403  4.02  0.  0.
   404  4.03  0.  0.
   405  4.04  0.  0.
   406  4.05  0.  0.
   407  4.06  0.  0.
   408  4.07  0.  0.
   409  4.08  0.  0.
   410  4.09  0.  0.
   411  4.10  0.  0.
   412  4.11  0.  0.
   413  4.12  0.  0.
   414  4.13  0.  0.
   415  4.14  0.  0.
   416  4.15  0.  0.
   417  4.16  0.  0.
   418  4.17  0.  0.
   419  4.18  0.  0.
   420  4.19  0.  0.
   421  4.20  0.  0.
   422  4.21  0.  0.
   423  4.22  0.  0.
   424  4.23  0.  0.
   425  4.24  0.  0.
   426  4.25  0.  0.
   427  4.26  0.  0.
   428  4.27  0.  0.
   429  4.28  0.  0.
   430  4.29  0.  0.
   431  4.30  0.  0.
   432  4.31  0.  0.
   433  4.32  0.  0.
   434  4.33  0.  0.
   435  4.34  0.  0.
   436  4.35  0.  0.
   437  4.36  0.  0.
   438  4.37  0.  0.
   439  4.38  0.  0.
   440  4.39  0.  0.
   441  4.40  0.  0.
   442  4.41  0.  0.
   443  4.42  0.  0.
   444  4.43  0.  0.
   445  4.44  0.  0.
   446  4.45  0.  0.
   447  4.46  0.  0.
   448  4.47  0.  0.
   449  4.48  0.  0.
   450  4.49  0.  0.
   451  4.50  0.  0.
   452  4.51  0.  0.
   453  4.52  0.  0.
   454  4.53  0.  0.
   455  4.54  0.  0.
   456  4.55  0.  0.
   457  4.56  0.  0.
   458  4.57  0.  0.
   459  4.58  0.  0.
   460  4.59  0.  0.
   461  4.60  0.  0.
   462  4.61  0.  0.
   463  4.62  0.  0.
   464  4.63  0.  0.
   465  4.64  0.  0.
   466  4.65  0.  0.
   467  4.66  0.  0.
   468  4.67  0.  0.
   469  4.68  0.  0.
   470  4.69  0.  0.
   471  4.70  0.  0.
   472  4.71  0.  0.
   473  4.72  0.  0.
   474  4.73  0.  0.
   475  4.74  0.  0.
   476  4.75  0.  0.
   477  4.76  0.  0.
   478  4.77  0.  0.
   479  4.78  0.  0.
   480  4.79  0.  0.
   481  4.80  0.  0.
   482  4.81  0.  0.
   483  4.82  0.  0.
   484  4.83  0.  0.
   485  4.84  0.  0.
   486  4.85  0.  0.
   487  4.86  0.  0.
   488  4.87  0.  0.
   489  4.88  0.  0.
   490  4.89  0.  0.
   491  4.90  0.  0.
   492  4.91  0.  0.
   493  4.92  0.  0.
   494  4.93  0.  0.
   495  4.94  0.  0.
   496  4.95  0.  0.
   497  4.96  0.  0.
   498  4.97  0.  0.
   499  4.98  0.  0.
   500  4.99  0.  0.
   501  5.00  0.  0.
   502  5.01  0.  0.
   503  5.02  0.  0.
   504  5.03  0.  0.
   505  5.04  0.  0.
   506  5.05  0.  0.
   507  5.06  0.  0.
   508  5.07  0.  0.
   509  5.08  0.  0.
   510  5.09  0.  0.
   511  5.10  0.  0.
   512  5.11  0.  0.
   513  5.12  0.  0.
   514  5.13  0.  0.
   515  5.14  0.  0.
   516  5.15  0.  0.
   517  5.16  0.  0.
   518  5.17  0.  0.
   519  5.18  0.  0.
   520  5.19  0.  0.
   521  5.20  0.  0.
   522  5.21  0.  0.
   523  5.22  0.  0.
   524  5.23  0.  0.
   525  5.24  0.  0.
   526  5.25  0.  0.
   527  5.26  0.  0.
   528  5.27  0.  0.
   529  5.28  0.  0.
   530  5.29  0.  0.
   531  5.30  0.  0.
   532  5.31  0.  0.
   533  5.32  0.  0.
   534  5.33  0.  0.
   535  5.34  0.  0.
   536  5.35  0.  0.
   537  5.36  0.  0.
   538  5.37  0.  0.
   539  5.38  0.  0.
   540  5.39  0.  0.
   541  5.40  0.  0.
   542  5.41  0.  0.
   543  5.42  0.  0.
   544  5.43  0.  0.
   545  5.44  0.  0.
   546  5.45  0.  0.
   547  5.46  0.  0.
   548  5.47  0.  0.
   549  5.48  0.  0.
   550  5.49  0.  0.
   551  5.50  0.  0.
   552  5.51  0.  0.
   553  5.52  0.  0.
   554  5.53  0.  0.
   555  5.54  0.  0.
   556  5.55  0.  0.
   557  5.56  0.  0.
   558  5.57  0.  0.
   559  5.58  0.  0.
   560  5.59  0.  0.
   561  5.60  0.  0.
   562  5.61  0.  0.
   563  5.62  0.  0.
   564  5.63  0.  0.
   565  5.64  0.  0.
   566  5.65  0.  0.
   567  5.66  0.  0.
   568  5.67  0.  0.
   569  5.68  0.  0.
   570  5.69  0.  0.
   571  5.70  0.  0.
   572  5.71  0.  0.
   573  5.72  0.  0.
   574  5.73  0.  0.
   575  5.74  0.  0.
   576  5.75  0.  0.
   577  5.76  0.  0.
   578  5.77  0.  0.
   579  5.78  0.  0.
   580  5.79  0.  0.
   581  5.80  0.  0.
   582  5.81  0.  0.
   583  5.82  0.  0.
   584  5.83  0.  0.
   585  5.84  0.  0.
   586  5.85  0.  0.
   587  5.86  0.  0.
   588  5.87  0.  0.
   589  5.88  0.  0.
   590  5.89  0.  0.
   591  5.90  0.  0.
   592  5.91  0.  0.
   593  5.92  0.  0.
   594  5.93  0.  0.
   595  5.94  0.  0.
   596  5.95  0.  0.
   597  5.96  0.  0.
   598  5.97  0.  0.
   599  5.98  0.  0.
   600  5.99  0.  0.
   1                         4.2482569934511E+00  5.3208941247465E-01  2.5224240515556E-02
     1  0.0000000000000E+00  1.2251796799312E-12 -1.9765647452097E-11  2.7955499026788E-10
     2  1.0000000000000E-02  2.6223154964137E-04 -2.1654185485690E-04  7.6162457465764E-04
     3  2.0000000000000E-02  1.0487277460876E-03 -8.6563955503037E-04  3.0420351033583E-03
     4  3.0000000000000E-02  2.3588933639303E-03 -1.9457114212652E-03  6.8278678914040E-03
     5  4.0000000000000E-02  4.1917368002454E-03 -3.4541276908978E-03  1.2096936271997E-02
     6  5.0000000000000E-02  6.5458707314208E-03 -5.3872200357621E-03  1.8818359332470E-02
     7  6.0000000000000E-02  9.4195130281234E-03 -7.7402948150248E-03  2.6952741113236E-02
     8  7.0000000000000E-02  1.2810487923856E-02 -1.0507649991170E-02  3.6452399268120E-02
     9  8.0000000000000E-02  1.6716227431328E-02 -1.3682595617585E-02  4.7261641895143E-02
    10  9.0000000000000E-02  2.1133772999679E-02 -1.7257477786865E-02  5.9317090974110E-02
    11  1.0000000000000E-01  2.6059777404463E-02 -2.1223705910315E-02  7.2548050582730E-02
    12  1.1000000000000E-01  3.1490506861261E-02 -2.5571783181155E-02  8.6876917808652E-02
    13  1.2000000000000E-01  3.7421843352800E-02 -3.0291340056862E-02  1.0221963403115E-01
    14  1.3000000000000E-01  4.3849287158583E-02 -3.5371170579843E-02  1.1848617401517E-01
    15  1.4000000000000E-01  5.0767959575236E-02 -4.0799271340538E-02  1.3558107004339E-01
    16  1.5000000000000E-01  5.8172605815091E-02 -4.6562882872953E-02  1.5340396810929E-01
    17  1.6000000000000E-01  6.6057598069968E-02 -5.2648533259797E-02  1.7185021300819E-01
    18  1.7000000000000E-01  7.4416938726644E-02 -5.9042083712787E-02  1.9081145899401E-01
    19  1.8000000000000E-01  8.3244263720186E-02 -6.5728775883439E-02  2.1017630251799E-01
    20  1.9000000000000E-01  9.2532846011113E-02 -7.2693280650839E-02  2.2983093343365E-01
    21  2.0000000000000E-01  1.0227559917230E-01 -7.9919748125433E-02  2.4965980093962E-01
    22  2.1000000000000E-01  1.1246508107161E-01 -8.7391858602046E-02  2.6954629043933E-01
    23  2.2000000000000E-01  1.2309349763642E-01 -9.5092874190947E-02  2.8937340742551E-01
    24  2.3000000000000E-01  1.3415270668670E-01 -1.0300569085300E-01  3.0902446444729E-01
    25  2.4000000000000E-01  1.4563422182352E-01 -1.1111289056381E-01  3.2838376718917E-01
    26  2.5000000000000E-01  1.5752921636085E-01 -1.1939679333209E-01  3.4733729568499E-01
    27  2.6000000000000E-01  1.6982852728912E-01 -1.2783950879964E-01  3.6577337670545E-01
    28  2.7000000000000E-01  1.8252265925984E-01 -1.3642298715397E-01  3.8358334339576E-01
    29  2.8000000000000E-01  1.9560178858189E-01 -1.4512906908967E-01  4.0066217829943E-01
    30  2.9000000000000E-01  2.0905576722107E-01 -1.5393953456184E-01  4.1690913598592E-01
    31  3.0000000000000E-01  2.2287412679601E-01 -1.6283615008281E-01  4.3222834160286E-01
    32  3.1000000000000E-01  2.3704608256468E-01 -1.7180071432370E-01  4.4652936179704E-01
    33  3.2000000000000E-01  2.5156053739782E-01 -1.8081510179347E-01  4.5972774459323E-01
    34  3.3000000000000E-01  2.6640608573664E-01 -1.8986130438095E-01  4.7174552498354E-01
    35  3.4000000000000E-01  2.8157101753448E-01 -1.9892147055945E-01  4.8251169316320E-01
    36  3.5000000000000E-01  2.9704332218358E-01 -2.0797794206894E-01  4.9196262254965E-01
    37  3.6000000000000E-01  3.1281069243029E-01 -2.1701328790734E-01  5.0004245494005E-01
    38  3.7000000000000E-01  3.2886052828388E-01 -2.2601033548012E-01  5.0670344039639E-01
    39  3.8000000000000E-01  3.4517994092625E-01 -2.3495219877619E-01  5.1190622969632E-01
    40  3.9000000000000E-01  3.6175575663202E-01 -2.4382230345734E-01  5.1562011745029E-01
    41  4.0000000000000E-01  3.7857452071036E-01 -2.5260440876948E-01  5.1782323426035E-01
    42  4.1000000000000E-01  3.9562250148232E-01 -2.6128262620423E-01  5.1850268658116E-01
    43  4.2000000000000E-01  4.1288569430946E-01 -2.6984143486174E-01  5.1765464323855E-01
    44  4.3000000000000E-01  4.3034982569164E-01 -2.7826569348735E-01  5.1528436786347E-01
    45  4.4000000000000E-01  4.4800035745400E-01 -2.8654064917711E-01  5.1140619680719E-01
    46  4.5000000000000E-01  4.6582249104530E-01 -2.9465194277005E-01  5.0604346241697E-01
    47  4.6000000000000E-01  4.8380117197152E-01 -3.0258561096746E-01  4.9922836186658E-01
    48  4.7000000000000E-01  5.0192109439080E-01 -3.1032808524219E-01  4.9100177205302E-01
    49  4.8000000000000E-01  5.2016670589755E-01 -3.1786618762335E-01  4.8141301138613E-01
    50  4.9000000000000E-01  5.3852221252505E-01 -3.2518712346386E-01  4.7051954961154E-01
    51  5.0000000000000E-01  5.5697158399787E-01 -3.3227847131969E-01  4.5838666711619E-01
    52  5.1000000000000E-01  5.7549855926649E-01 -3.3912817009095E-01  4.4508706546847E-01
    53  5.2000000000000E-01  5.9408665235790E-01 -3.4572450359459E-01  4.3070043124066E-01
    54  5.3000000000000E-01  6.1271915857734E-01 -3.5205608275857E-01  4.1531295544651E-01