Cl    ONCVPSP-4.0.1  r_core=   1.55471   1.35487   1.75230
     17.0000      7.0000      231019    zatom,zion,pspd
     8       2   2     4   600     0    pspcod,pspxc,lmax,lloc,mmax,r2well
  5.99000000  8.00000000  0.00000000    rchrg fchrg qchrg
     2     2     2     0     0    nproj
     1     1           extension_switch
   0                         8.2207543459532E+00  7.2198489795473E-01
     1  0.0000000000000E+00  5.8451432582984E-10 -3.2750232248357E-09
     2  1.0000000000000E-02  4.6830448133495E-02 -1.8651295062952E-02
     3  2.0000000000000E-02  9.3633890487975E-02 -3.7366804227108E-02
     4  3.0000000000000E-02  1.4038291761108E-01 -5.6208414731984E-02
     5  4.0000000000000E-02  1.8704932086663E-01 -7.5233405471812E-02
     6  5.0000000000000E-02  2.3360371309636E-01 -9.4492255408786E-02
     7  6.0000000000000E-02  2.8001517315922E-01 -1.1402658469974E-01
     8  7.0000000000000E-02  3.2625092160479E-01 -1.3386726884012E-01
     9  8.0000000000000E-02  3.7227603415299E-01 -1.5403276285421E-01
    10  9.0000000000000E-02  4.1805319894322E-01 -1.7452766858536E-01
    11  1.0000000000000E-01  4.6354252269615E-01 -1.9534157354114E-01
    12  1.1000000000000E-01  5.0870139001711E-01 -2.1644818461264E-01
    13  1.2000000000000E-01  5.5348437907841E-01 -2.3780477441350E-01
    14  1.3000000000000E-01  5.9784323586825E-01 -2.5935195207785E-01
    15  1.4000000000000E-01  6.4172690810750E-01 -2.8101376423085E-01
    16  1.5000000000000E-01  6.8508163883156E-01 -3.0269812561589E-01
    17  1.6000000000000E-01  7.2785111853613E-01 -3.2429757264940E-01
    18  1.7000000000000E-01  7.6997669371249E-01 -3.4569032709296E-01
    19  1.8000000000000E-01  8.1139762857115E-01 -3.6674165120127E-01
    20  1.9000000000000E-01  8.5205141579191E-01 -3.8730547023089E-01
    21  2.0000000000000E-01  8.9187413126117E-01 -4.0722623318521E-01
    22  2.1000000000000E-01  9.3080082698119E-01 -4.2634097821734E-01
    23  2.2000000000000E-01  9.6876595567397E-01 -4.4448156530033E-01
    24  2.3000000000000E-01  1.0057038200681E+00 -4.6147703567376E-01
    25  2.4000000000000E-01  1.0415490394588E+00 -4.7715605524540E-01
    26  2.5000000000000E-01  1.0762370258756E+00 -4.9134939760795E-01
    27  2.6000000000000E-01  1.1097044620868E+00 -5.0389242165363E-01
    28  2.7000000000000E-01  1.1418897737084E+00 -5.1462749894159E-01
    29  2.8000000000000E-01  1.1727335878739E+00 -5.2340634699223E-01
    30  2.9000000000000E-01  1.2021791712499E+00 -5.3009222652604E-01
    31  3.0000000000000E-01  1.2301728406468E+00 -5.3456196329550E-01
    32  3.1000000000000E-01  1.2566643400600E+00 -5.3670775852641E-01
    33  3.2000000000000E-01  1.2816071786763E+00 -5.3643875602125E-01
    34  3.3000000000000E-01  1.3049589251774E+00 -5.3368233860682E-01
    35  3.4000000000000E-01  1.3266814545458E+00 -5.2838513173861E-01
    36  3.5000000000000E-01  1.3467411445213E+00 -5.2051369760846E-01
    37  3.6000000000000E-01  1.3651090198338E+00 -5.1005490893309E-01
    38  3.7000000000000E-01  1.3817608433480E+00 -4.9701599761617E-01
    39  3.8000000000000E-01  1.3966771542607E+00 -4.8142427956358E-01
    40  3.9000000000000E-01  1.4098432544888E+00 -4.6332656297048E-01
    41  4.0000000000000E-01  1.4212491453367E+00 -4.4278825327955E-01
    42  4.1000000000000E-01  1.4308894174384E+00 -4.1989217361646E-01
    43  4.2000000000000E-01  1.4387630977946E+00 -3.9473712473962E-01
    44  4.3000000000000E-01  1.4448734584692E+00 -3.6743621329496E-01
    45  4.4000000000000E-01  1.4492277921447E+00 -3.3811498135569E-01
    46  4.5000000000000E-01  1.4518371602647E+00 -3.0690937377462E-01
    47  4.6000000000000E-01  1.4527161198869E+00 -2.7396358271450E-01
    48  4.7000000000000E-01  1.4518824356484E+00 -2.3942781080234E-01
    49  4.8000000000000E-01  1.4493567833723E+00 -2.0345599563602E-01
    50  4.9000000000000E-01  1.4451624518528E+00 -1.6620353883686E-01
    51  5.0000000000000E-01  1.4393250492156E+00 -1.2782508248296E-01
    52  5.1000000000000E-01  1.4318722199890E+00 -8.8472374584544E-02
    53  5.2000000000000E-01  1.4228333786284E+00 -4.8292263300262E-02
    54  5.3000000000000E-01  1.4122394647365E+00 -7.4248568819157E-03
    55  5.4000000000000E-01  1.4001227246103E+00  3.3998117071615E-02
    56  5.5000000000000E-01  1.3865165230496E+00  7.5854723504609E-02
    57  5.6000000000000E-01  1.3714551885884E+00  1.1803397797589E-01
    58  5.7000000000000E-01  1.3549738944775E+00  1.6043673099187E-01
    59  5.8000000000000E-01  1.3371085768735E+00  2.0297626408865E-01
    60  5.9000000000000E-01  1.3178958907944E+00  2.4557858881675E-01
    61  6.0000000000000E-01  1.2973732034968E+00  2.8818244559937E-01
    62  6.1000000000000E-01  1.2755786240485E+00  3.3073900529391E-01
    63  6.2000000000000E-01  1.2525510670071E+00  3.7321128207431E-01
    64  6.3000000000000E-01  1.2283303473165E+00  4.1557327186214E-01
    65  6.4000000000000E-01  1.2029573027861E+00  4.5780883585950E-01
    66  6.5000000000000E-01  1.1764739398572E+00  4.9991035368028E-01
    67  6.6000000000000E-01  1.1489235977941E+00  5.4187717504409E-01
    68  6.7000000000000E-01  1.1203511259684E+00  5.8371390290859E-01
    69  6.8000000000000E-01  1.0908030685534E+00  6.2542854420017E-01
    70  6.9000000000000E-01  1.0603278507095E+00  6.6703056689835E-01
    71  7.0000000000000E-01  1.0289759602299E+00  7.0852890409341E-01
    72  7.1000000000000E-01  9.9680011862560E-01  7.4992994673354E-01
    73  7.2000000000000E-01  9.6385543576422E-01  7.9123556709400E-01
    74  7.3000000000000E-01  9.3019954242980E-01  8.3244121452846E-01
    75  7.4000000000000E-01  8.9589269553867E-01  8.7353412381837E-01
    76  7.5000000000000E-01  8.6099785121798E-01  9.1449167444157E-01
    77  7.6000000000000E-01  8.2558070152235E-01  9.5527993637926E-01
    78  7.7000000000000E-01  7.8970967121535E-01  9.9585243472003E-01
    79  7.8000000000000E-01  7.5345587176479E-01  1.0361491613692E+00
    80  7.9000000000000E-01  7.1689301047813E-01  1.0760958577006E+00
    81  8.0000000000000E-01  6.8009725352288E-01  1.1156035870846E+00
    82  8.1000000000000E-01  6.4314704241844E-01  1.1545686109790E+00
    83  8.2000000000000E-01  6.0612286443622E-01  1.1928725767727E+00
    84  8.3000000000000E-01  5.6910697818627E-01  1.2303830199345E+00
    85  8.4000000000000E-01  5.3218309648588E-01  1.2669541773299E+00
    86  8.5000000000000E-01  4.9543602938352E-01  1.3024281029412E+00
    87  8.6000000000000E-01  4.5895129093562E-01  1.3366360717573E+00
    88  8.7000000000000E-01  4.2281467399110E-01  1.3694002523808E+00
    89  8.8000000000000E-01  3.8711179781888E-01  1.4005356240281E+00
    90  8.9000000000000E-01  3.5192763390521E-01  1.4298521091598E+00
    91  9.0000000000000E-01  3.1734601564515E-01  1.4571568890360E+00
    92  9.1000000000000E-01  2.8344913794781E-01  1.4822568661297E+00
    93  9.2000000000000E-01  2.5031705296629E-01  1.5049612345862E+00
    94  9.3000000000000E-01  2.1802716824721E-01  1.5250841178477E+00
    95  9.4000000000000E-01  1.8665375357352E-01  1.5424472311881E+00
    96  9.5000000000000E-01  1.5626746264871E-01  1.5568825262498E+00
    97  9.6000000000000E-01  1.2693487554640E-01  1.5682347747457E+00
    98  9.7000000000000E-01  9.8718067531908E-02  1.5763640492741E+00
    99  9.8000000000000E-01  7.1674209460339E-02  1.5811480606787E+00
   100  9.9000000000000E-01  4.5855204477285E-02  1.5824843135356E+00
   101  1.0000000000000E+00  2.1307365205476E-02  1.5802920441171E+00
   102  1.0100000000000E+00 -1.9288649967294E-03  1.5745139085248E+00
   103  1.0200000000000E+00 -2.3819143757582E-02  1.5651173925311E+00
   104  1.0300000000000E+00 -4.4335412115152E-02  1.5520959189518E+00
   105  1.0400000000000E+00 -6.3456026045388E-02  1.5354696330173E+00
   106  1.0500000000000E+00 -8.1165836186591E-02  1.5152858511345E+00
   107  1.0600000000000E+00 -9.7456215529869E-02  1.4916191635483E+00
   108  1.0700000000000E+00 -1.1232503550324E-01  1.4645711866321E+00
   109  1.0800000000000E+00 -1.2577659150372E-01  1.4342699657868E+00
   110  1.0900000000000E+00 -1.3782147951560E-01  1.4008690350919E+00
   111  1.1000000000000E+00 -1.4847642598924E-01  1.3645461448851E+00
   112  1.1100000000000E+00 -1.5776407363017E-01  1.3255016732286E+00
   113  1.1200000000000E+00 -1.6571272616295E-01  1.2839567417137E+00
   114  1.1300000000000E+00 -1.7235605547844E-01  1.2401510601524E+00
   115  1.1400000000000E+00 -1.7773277484761E-01  1.1943405283892E+00
   116  1.1500000000000E+00 -1.8188628208608E-01  1.1467946266384E+00
   117  1.1600000000000E+00 -1.8486427668251E-01  1.0977936284099E+00
   118  1.1700000000000E+00 -1.8671835496123E-01  1.0476256721641E+00
   119  1.1800000000000E+00 -1.8750358733872E-01  9.9658372933279E-01
   120  1.1900000000000E+00 -1.8727808165896E-01  9.4496250722231E-01
   121  1.2000000000000E+00 -1.8610253645729E-01  8.9305532559643E-01
   122  1.2100000000000E+00 -1.8403978781621E-01  8.4115100540474E-01
   123  1.2200000000000E+00 -1.8115435324159E-01  7.8953080720449E-01
   124  1.2300000000000E+00 -1.7751197571518E-01  7.3846545534076E-01
   125  1.2400000000000E+00 -1.7317917077539E-01  6.8821228194077E-01
   126  1.2500000000000E+00 -1.6822277914943E-01  6.3901252226210E-01
   127  1.2600000000000E+00 -1.6270952711753E-01  5.9108878999648E-01
   128  1.2700000000000E+00 -1.5670559643815E-01  5.4464275778645E-01
   129  1.2800000000000E+00 -1.5027620531084E-01  4.9985306453452E-01
   130  1.2900000000000E+00 -1.4348520148454E-01  4.5687346694725E-01
   131  1.3000000000000E+00 -1.3639466873756E-01  4.1583125249216E-01
   132  1.3100000000000E+00 -1.2906454424845E-01  3.7682589717731E-01
   133  1.3200000000000E+00 -1.2155237895794E-01  3.3992909250127E-01
   134  1.3300000000000E+00 -1.1391362480517E-01  3.0518913378180E-01
   135  1.3400000000000E+00 -1.0620181880668E-01  2.7263396916032E-01
   136  1.3500000000000E+00 -9.8468504511941E-02  2.4227193167865E-01
   137  1.3600000000000E+00 -9.0763170271973E-02  2.1409272240007E-01
   138  1.3700000000000E+00 -8.3133202451282E-02  1.8806862142706E-01
   139  1.3800000000000E+00 -7.5623854046475E-02  1.6415592473433E-01
   140  1.3900000000000E+00 -6.8278226913891E-02  1.4229658140704E-01
   141  1.4000000000000E+00 -6.1137265870075E-02  1.2242000420122E-01
   142  1.4100000000000E+00 -5.4239762925288E-02  1.0444502413511E-01
   143  1.4200000000000E+00 -4.7622369924064E-02  8.8281957953233E-02
   144  1.4300000000000E+00 -4.1319617905259E-02  7.3834755910761E-02
   145  1.4400000000000E+00 -3.5363941554027E-02  6.1003196402923E-02
   146  1.4500000000000E+00 -2.9785706529429E-02  4.9685092184540E-02
   147  1.4600000000000E+00 -2.4613244773757E-02  3.9778486310848E-02
   148  1.4700000000000E+00 -1.9872871607281E-02  3.1183769518151E-02
   149  1.4800000000000E+00 -1.5589076264048E-02  2.3805985379467E-02
   150  1.4900000000000E+00 -1.1786103392406E-02  1.7560492960507E-02
   151  1.5000000000000E+00 -8.4850076810104E-03  1.2368939686878E-02
   152  1.5100000000000E+00 -5.7037692317524E-03  8.1596628066702E-03
   153  1.5200000000000E+00 -3.4582372177864E-03  4.8708434866283E-03
   154  1.5300000000000E+00 -1.7626981167021E-03  2.4527550328430E-03
   155  1.5400000000000E+00 -6.2449019591590E-04  8.6161204228287E-04
   156  1.5500000000000E+00 -7.6095555113330E-05  1.0448793980284E-04
   157  1.5600000000000E+00  1.0678789782731E-05 -1.4573816084731E-05
   158  1.5700000000000E+00 -3.1839687104757E-06  4.3536095096940E-06
   159  1.58  0. -0.
   160  1.59  0. -0.
   161  1.60  0.  0.
   162  1.61  0.  0.
   163  1.62  0.  0.
   164  1.63  0.  0.
   165  1.64  0.  0.
   166  1.65  0.  0.
   167  1.66  0.  0.
   168  1.67  0.  0.
   169  1.68  0.  0.
   170  1.69  0.  0.
   171  1.70  0.  0.
   172  1.71  0.  0.
   173  1.72  0.  0.
   174  1.73  0.  0.
   175  1.74  0.  0.
   176  1.75  0.  0.
   177  1.76  0.  0.
   178  1.77  0.  0.
   179  1.78  0.  0.
   180  1.79  0.  0.
   181  1.80  0.  0.
   182  1.81  0.  0.
   183  1.82  0.  0.
   184  1.83  0.  0.
   185  1.84  0.  0.
   186  1.85  0.  0.
   187  1.86  0.  0.
   188  1.87  0.  0.
   189  1.88  0.  0.
   190  1.89  0.  0.
   191  1.90  0.  0.
   192  1.91  0.  0.
   193  1.92  0.  0.
   194  1.93  0.  0.
   195  1.94  0.  0.
   196  1.95  0.  0.
   197  1.96  0.  0.
   198  1.97  0.  0.
   199  1.98  0.  0.
   200  1.99  0.  0.
   201  2.00  0.  0.
   202  2.01  0.  0.
   203  2.02  0.  0.
   204  2.03  0.  0.
   205  2.04  0.  0.
   206  2.05  0.  0.
   207  2.06  0.  0.
   208  2.07  0.  0.
   209  2.08  0.  0.
   210  2.09  0.  0.
   211  2.10  0.  0.
   212  2.11  0.  0.
   213  2.12  0.  0.
   214  2.13  0.  0.
   215  2.14  0.  0.
   216  2.15  0.  0.
   217  2.16  0.  0.
   218  2.17  0.  0.
   219  2.18  0.  0.
   220  2.19  0.  0.
   221  2.20  0.  0.
   222  2.21  0.  0.
   223  2.22  0.  0.
   224  2.23  0.  0.
   225  2.24  0.  0.
   226  2.25  0.  0.
   227  2.26  0.  0.
   228  2.27  0.  0.
   229  2.28  0.  0.
   230  2.29  0.  0.
   231  2.30  0.  0.
   232  2.31  0.  0.
   233  2.32  0.  0.
   234  2.33  0.  0.
   235  2.34  0.  0.
   236  2.35  0.  0.
   237  2.36  0.  0.
   238  2.37  0.  0.
   239  2.38  0.  0.
   240  2.39  0.  0.
   241  2.40  0.  0.
   242  2.41  0.  0.
   243  2.42  0.  0.
   244  2.43  0.  0.
   245  2.44  0.  0.
   246  2.45  0.  0.
   247  2.46  0.  0.
   248  2.47  0.  0.
   249  2.48  0.  0.
   250  2.49  0.  0.
   251  2.50  0.  0.
   252  2.51  0.  0.
   253  2.52  0.  0.
   254  2.53  0.  0.
   255  2.54  0.  0.
   256  2.55  0.  0.
   257  2.56  0.  0.
   258  2.57  0.  0.
   259  2.58  0.  0.
   260  2.59  0.  0.
   261  2.60  0.  0.
   262  2.61  0.  0.
   263  2.62  0.  0.
   264  2.63  0.  0.
   265  2.64  0.  0.
   266  2.65  0.  0.
   267  2.66  0.  0.
   268  2.67  0.  0.
   269  2.68  0.  0.
   270  2.69  0.  0.
   271  2.70  0.  0.
   272  2.71  0.  0.
   273  2.72  0.  0.
   274  2.73  0.  0.
   275  2.74  0.  0.
   276  2.75  0.  0.
   277  2.76  0.  0.
   278  2.77  0.  0.
   279  2.78  0.  0.
   280  2.79  0.  0.
   281  2.80  0.  0.
   282  2.81  0.  0.
   283  2.82  0.  0.
   284  2.83  0.  0.
   285  2.84  0.  0.
   286  2.85  0.  0.
   287  2.86  0.  0.
   288  2.87  0.  0.
   289  2.88  0.  0.
   290  2.89  0.  0.
   291  2.90  0.  0.
   292  2.91  0.  0.
   293  2.92  0.  0.
   294  2.93  0.  0.
   295  2.94  0.  0.
   296  2.95  0.  0.
   297  2.96  0.  0.
   298  2.97  0.  0.
   299  2.98  0.  0.
   300  2.99  0.  0.
   301  3.00  0.  0.
   302  3.01  0.  0.
   303  3.02  0.  0.
   304  3.03  0.  0.
   305  3.04  0.  0.
   306  3.05  0.  0.
   307  3.06  0.  0.
   308  3.07  0.  0.
   309  3.08  0.  0.
   310  3.09  0.  0.
   311  3.10  0.  0.
   312  3.11  0.  0.
   313  3.12  0.  0.
   314  3.13  0.  0.
   315  3.14  0.  0.
   316  3.15  0.  0.
   317  3.16  0.  0.
   318  3.17  0.  0.
   319  3.18  0.  0.
   320  3.19  0.  0.
   321  3.20  0.  0.
   322  3.21  0.  0.
   323  3.22  0.  0.
   324  3.23  0.  0.
   325  3.24  0.  0.
   326  3.25  0.  0.
   327  3.26  0.  0.
   328  3.27  0.  0.
   329  3.28  0.  0.
   330  3.29  0.  0.
   331  3.30  0.  0.
   332  3.31  0.  0.
   333  3.32  0.  0.
   334  3.33  0.  0.
   335  3.34  0.  0.
   336  3.35  0.  0.
   337  3.36  0.  0.
   338  3.37  0.  0.
   339  3.38  0.  0.
   340  3.39  0.  0.
   341  3.40  0.  0.
   342  3.41  0.  0.
   343  3.42  0.  0.
   344  3.43  0.  0.
   345  3.44  0.  0.
   346  3.45  0.  0.
   347  3.46  0.  0.
   348  3.47  0.  0.
   349  3.48  0.  0.
   350  3.49  0.  0.
   351  3.50  0.  0.
   352  3.51  0.  0.
   353  3.52  0.  0.
   354  3.53  0.  0.
   355  3.54  0.  0.
   356  3.55  0.  0.
   357  3.56  0.  0.
   358  3.57  0.  0.
   359  3.58  0.  0.
   360  3.59  0.  0.
   361  3.60  0.  0.
   362  3.61  0.  0.
   363  3.62  0.  0.
   364  3.63  0.  0.
   365  3.64  0.  0.
   366  3.65  0.  0.
   367  3.66  0.  0.
   368  3.67  0.  0.
   369  3.68  0.  0.
   370  3.69  0.  0.
   371  3.70  0.  0.
   372  3.71  0.  0.
   373  3.72  0.  0.
   374  3.73  0.  0.
   375  3.74  0.  0.
   376  3.75  0.  0.
   377  3.76  0.  0.
   378  3.77  0.  0.
   379  3.78  0.  0.
   380  3.79  0.  0.
   381  3.80  0.  0.
   382  3.81  0.  0.
   383  3.82  0.  0.
   384  3.83  0.  0.
   385  3.84  0.  0.
   386  3.85  0.  0.
   387  3.86  0.  0.
   388  3.87  0.  0.
   389  3.88  0.  0.
   390  3.89  0.  0.
   391  3.90  0.  0.
   392  3.91  0.  0.
   393  3.92  0.  0.
   394  3.93  0.  0.
   395  3.94  0.  0.
   396  3.95  0.  0.
   397  3.96  0.  0.
   398  3.97  0.  0.
   399  3.98  0.  0.
   400  3.99  0.  0.
   401  4.00  0.  0.
   402  4.01  0.  0.
   403  4.02  0.  0.
   404  4.03  0.  0.
   405  4.04  0.  0.
   406  4.05  0.  0.
   407  4.06  0.  0.
   408  4.07  0.  0.
   409  4.08  0.  0.
   410  4.09  0.  0.
   411  4.10  0.  0.
   412  4.11  0.  0.
   413  4.12  0.  0.
   414  4.13  0.  0.
   415  4.14  0.  0.
   416  4.15  0.  0.
   417  4.16  0.  0.
   418  4.17  0.  0.
   419  4.18  0.  0.
   420  4.19  0.  0.
   421  4.20  0.  0.
   422  4.21  0.  0.
   423  4.22  0.  0.
   424  4.23  0.  0.
   425  4.24  0.  0.
   426  4.25  0.  0.
   427  4.26  0.  0.
   428  4.27  0.  0.
   429  4.28  0.  0.
   430  4.29  0.  0.
   431  4.30  0.  0.
   432  4.31  0.  0.
   433  4.32  0.  0.
   434  4.33  0.  0.
   435  4.34  0.  0.
   436  4.35  0.  0.
   437  4.36  0.  0.
   438  4.37  0.  0.
   439  4.38  0.  0.
   440  4.39  0.  0.
   441  4.40  0.  0.
   442  4.41  0.  0.
   443  4.42  0.  0.
   444  4.43  0.  0.
   445  4.44  0.  0.
   446  4.45  0.  0.
   447  4.46  0.  0.
   448  4.47  0.  0.
   449  4.48  0.  0.
   450  4.49  0.  0.
   451  4.50  0.  0.
   452  4.51  0.  0.
   453  4.52  0.  0.
   454  4.53  0.  0.
   455  4.54  0.  0.
   456  4.55  0.  0.
   457  4.56  0.  0.
   458  4.57  0.  0.
   459  4.58  0.  0.
   460  4.59  0.  0.
   461  4.60  0.  0.
   462  4.61  0.  0.
   463  4.62  0.  0.
   464  4.63  0.  0.
   465  4.64  0.  0.
   466  4.65  0.  0.
   467  4.66  0.  0.
   468  4.67  0.  0.
   469  4.68  0.  0.
   470  4.69  0.  0.
   471  4.70  0.  0.
   472  4.71  0.  0.
   473  4.72  0.  0.
   474  4.73  0.  0.
   475  4.74  0.  0.
   476  4.75  0.  0.
   477  4.76  0.  0.
   478  4.77  0.  0.
   479  4.78  0.  0.
   480  4.79  0.  0.
   481  4.80  0.  0.
   482  4.81  0.  0.
   483  4.82  0.  0.
   484  4.83  0.  0.
   485  4.84  0.  0.
   486  4.85  0.  0.
   487  4.86  0.  0.
   488  4.87  0.  0.
   489  4.88  0.  0.
   490  4.89  0.  0.
   491  4.90  0.  0.
   492  4.91  0.  0.
   493  4.92  0.  0.
   494  4.93  0.  0.
   495  4.94  0.  0.
   496  4.95  0.  0.
   497  4.96  0.  0.
   498  4.97  0.  0.
   499  4.98  0.  0.
   500  4.99  0.  0.
   501  5.00  0.  0.
   502  5.01  0.  0.
   503  5.02  0.  0.
   504  5.03  0.  0.
   505  5.04  0.  0.
   506  5.05  0.  0.
   507  5.06  0.  0.
   508  5.07  0.  0.
   509  5.08  0.  0.
   510  5.09  0.  0.
   511  5.10  0.  0.
   512  5.11  0.  0.
   513  5.12  0.  0.
   514  5.13  0.  0.
   515  5.14  0.  0.
   516  5.15  0.  0.
   517  5.16  0.  0.
   518  5.17  0.  0.
   519  5.18  0.  0.
   520  5.19  0.  0.
   521  5.20  0.  0.
   522  5.21  0.  0.
   523  5.22  0.  0.
   524  5.23  0.  0.
   525  5.24  0.  0.
   526  5.25  0.  0.
   527  5.26  0.  0.
   528  5.27  0.  0.
   529  5.28  0.  0.
   530  5.29  0.  0.
   531  5.30  0.  0.
   532  5.31  0.  0.
   533  5.32  0.  0.
   534  5.33  0.  0.
   535  5.34  0.  0.
   536  5.35  0.  0.
   537  5.36  0.  0.
   538  5.37  0.  0.
   539  5.38  0.  0.
   540  5.39  0.  0.
   541  5.40  0.  0.
   542  5.41  0.  0.
   543  5.42  0.  0.
   544  5.43  0.  0.
   545  5.44  0.  0.
   546  5.45  0.  0.
   547  5.46  0.  0.
   548  5.47  0.  0.
   549  5.48  0.  0.
   550  5.49  0.  0.
   551  5.50  0.  0.
   552  5.51  0.  0.
   553  5.52  0.  0.
   554  5.53  0.  0.
   555  5.54  0.  0.
   556  5.55  0.  0.
   557  5.56  0.  0.
   558  5.57  0.  0.
   559  5.58  0.  0.
   560  5.59  0.  0.
   561  5.60  0.  0.
   562  5.61  0.  0.
   563  5.62  0.  0.
   564  5.63  0.  0.
   565  5.64  0.  0.
   566  5.65  0.  0.
   567  5.66  0.  0.
   568  5.67  0.  0.
   569  5.68  0.  0.
   570  5.69  0.  0.
   571  5.70  0.  0.
   572  5.71  0.  0.
   573  5.72  0.  0.
   574  5.73  0.  0.
   575  5.74  0.  0.
   576  5.75  0.  0.
   577  5.76  0.  0.
   578  5.77  0.  0.
   579  5.78  0.  0.
   580  5.79  0.  0.
   581  5.80  0.  0.
   582  5.81  0.  0.
   583  5.82  0.  0.
   584  5.83  0.  0.
   585  5.84  0.  0.
   586  5.85  0.  0.
   587  5.86  0.  0.
   588  5.87  0.  0.
   589  5.88  0.  0.
   590  5.89  0.  0.
   591  5.90  0.  0.
   592  5.91  0.  0.
   593  5.92  0.  0.
   594  5.93  0.  0.
   595  5.94  0.  0.
   596  5.95  0.  0.
   597  5.96  0.  0.
   598  5.97  0.  0.
   599  5.98  0.  0.
   600  5.99  0.  0.
   1                         3.5585538108667E+00  8.5953352617175E-01
     1  0.0000000000000E+00  9.1438173560610E-08 -1.7935236998334E-07
     2  1.0000000000000E-02  2.7014843258930E-03 -3.2742352330714E-03
     3  2.0000000000000E-02  1.0736725690006E-02 -1.2966599559491E-02
     4  3.0000000000000E-02  2.3900128438430E-02 -2.8690053355806E-02
     5  4.0000000000000E-02  4.1855772246069E-02 -4.9812698060619E-02
     6  5.0000000000000E-02  6.4147318707699E-02 -7.5477130957167E-02
     7  6.0000000000000E-02  9.0211482217049E-02 -1.0462676032151E-01
     8  7.0000000000000E-02  1.1939468007438E-01 -1.3603832548914E-01
     9  8.0000000000000E-02  1.5097238532485E-01 -1.6835968704052E-01
    10  9.0000000000000E-02  1.8417062762783E-01 -2.0015179894864E-01
    11  1.0000000000000E-01  2.1818902467981E-01 -2.2993365146746E-01
    12  1.1000000000000E-01  2.5222468113102E-01 -2.5622888424337E-01
    13  1.2000000000000E-01  2.8549626484744E-01 -2.7761271615321E-01
    14  1.3000000000000E-01  3.1726756257410E-01 -2.9275782327615E-01
    15  1.4000000000000E-01  3.4686982882022E-01 -3.0047781971760E-01
    16  1.5000000000000E-01  3.7372227284655E-01 -2.9976705719501E-01
    17  1.6000000000000E-01  3.9735007819573E-01 -2.8983555680434E-01
    18  1.7000000000000E-01  4.1739941596155E-01 -2.7013801764271E-01
    19  1.8000000000000E-01  4.3364899516447E-01 -2.4039600847104E-01
    20  1.9000000000000E-01  4.4601778898040E-01 -2.0061263601735E-01
    21  2.0000000000000E-01  4.5456868157923E-01 -1.5107919178092E-01
    22  2.1000000000000E-01  4.5950789409159E-01 -9.2373502643252E-02
    23  2.2000000000000E-01  4.6118016663257E-01 -2.5349943123214E-02
    24  2.3000000000000E-01  4.6005979312673E-01  4.8878697638666E-02
    25  2.4000000000000E-01  4.5673772360238E-01  1.2896706959935E-01
    26  2.5000000000000E-01  4.5190506139219E-01  2.1337019035624E-01
    27  2.6000000000000E-01  4.4633338715493E-01  3.0038259765555E-01
    28  2.7000000000000E-01  4.4085243489042E-01  3.8818269211223E-01
    29  2.8000000000000E-01  4.3632572451822E-01  4.7488108075487E-01
    30  2.9000000000000E-01  4.3362481885427E-01  5.5857160810520E-01
    31  3.0000000000000E-01  4.3360291809800E-01  6.3738367295551E-01
    32  3.1000000000000E-01  4.3706853086404E-01  7.0953437850607E-01
    33  3.2000000000000E-01  4.4475996650267E-01  7.7337905273808E-01
    34  3.3000000000000E-01  4.5732137864251E-01  8.2745870542630E-01
    35  3.4000000000000E-01  4.7528105480145E-01  8.7054305754716E-01
    36  3.5000000000000E-01  4.9903259234686E-01  9.0166788643640E-01
    37  3.6000000000000E-01  5.2881952837311E-01  9.2016557326844E-01
    38  3.7000000000000E-01  5.6472390203906E-01  9.2568791465687E-01
    39  3.8000000000000E-01  6.0665912485622E-01  9.1822046290402E-01
    40  3.9000000000000E-01  6.5436742002867E-01  8.9808788437410E-01
    41  4.0000000000000E-01  7.0742196922859E-01  8.6595006669912E-01
    42  4.1000000000000E-01  7.6523377741004E-01  8.2278895663674E-01
    43  4.2000000000000E-01  8.2706313684196E-01  7.6988636464937E-01
    44  4.3000000000000E-01  8.9203544397616E-01  7.0879322279240E-01
    45  4.4000000000000E-01  9.5916100053183E-01  6.4129102245563E-01
    46  4.5000000000000E-01  1.0273583166361E+00  5.6934638129517E-01
    47  4.6000000000000E-01  1.0954803321650E+00  4.9505988812536E-01
    48  4.7000000000000E-01  1.1623428854424E+00  4.2061054499184E-01
    49  4.8000000000000E-01  1.2267546886752E+00  3.4819726222614E-01
    50  4.9000000000000E-01  1.2875480189707E+00  2.7997896096533E-01
    51  5.0000000000000E-01  1.3436093040701E+00  2.1801489536417E-01
    52  5.1000000000000E-01  1.3939087740292E+00  1.6420682155994E-01
    53  5.2000000000000E-01  1.4375283644390E+00  1.2024461153199E-01
    54  5.3000000000000E-01  1.4736870932281E+00  8.7556837651787E-02
    55  5.4000000000000E-01  1.5017631908988E+00  6.7267739434382E-02
    56  5.5000000000000E-01  1.5213123418681E+00  6.0161830402406E-02
    57  5.6000000000000E-01  1.5320814905645E+00  6.6657213756684E-02
    58  5.7000000000000E-01  1.5340177776782E+00  8.6788455398160E-02
    59  5.8000000000000E-01  1.5272722966660E+00  1.2019961731719E-01
    60  5.9000000000000E-01  1.5121984950879E+00  1.6614778974139E-01
    61  6.0000000000000E-01  1.4893451861065E+00  2.2351718356372E-01
    62  6.1000000000000E-01  1.4594442788509E+00  2.9084356270199E-01
    63  6.2000000000000E-01  1.4233934785312E+00  3.6634851661829E-01
    64  6.3000000000000E-01  1.3822343444136E+00  4.4798280370377E-01
    65  6.4000000000000E-01  1.3371262223212E+00  5.3347774387967E-01
    66  6.5000000000000E-01  1.2893166847234E+00  6.2040341045848E-01
    67  6.6000000000000E-01  1.2401092124882E+00  7.0623217336819E-01
    68  6.7000000000000E-01  1.1908289351797E+00  7.8840598382882E-01
    69  6.8000000000000E-01  1.1427873089787E+00  8.6440566917782E-01
    70  6.9000000000000E-01  1.0972466510445E+00  9.3182042940563E-01
    71  7.0000000000000E-01  1.0553854651187E+00  9.8841569661602E-01
    72  7.1000000000000E-01  1.0182654847230E+00  1.0321975363750E+00
    73  7.2000000000000E-01  9.8680132738699E-01  1.0614718358155E+00
    74  7.3000000000000E-01  9.6173359655073E-01  1.0748966362256E+00
    75  7.4000000000000E-01  9.4360618837613E-01  1.0715261251901E+00
    76  7.5000000000000E-01  9.3274846048479E-01  1.0508450015668E+00
    77  7.6000000000000E-01  9.2926280105033E-01  1.0127921608794E+00
    78  7.7000000000000E-01  9.3301800260565E-01  9.5777291336278E-01
    79  7.8000000000000E-01  9.4364869872259E-01  8.8665923531718E-01
    80  7.9000000000000E-01  9.6056096707922E-01  8.0077785932724E-01
    81  8.0000000000000E-01  9.8294404329718E-01  7.0188632249571E-01
    82  8.1000000000000E-01  1.0097879304041E+00  5.9213740605613E-01
    83  8.2000000000000E-01  1.0399065330092E+00  4.7403270638506E-01
    84  8.3000000000000E-01  1.0719657973627E+00  3.5036636847812E-01
    85  8.4000000000000E-01  1.1045162023257E+00  2.2416028065670E-01
    86  8.5000000000000E-01  1.1360288255611E+00  9.8592266460136E-02
    87  8.6000000000000E-01  1.1649341072491E+00 -2.3080990129392E-02
    88  8.7000000000000E-01  1.1896623531702E+00 -1.3760439232645E-01
    89  8.8000000000000E-01  1.2086849623674E+00 -2.4180624663686E-01
    90  8.9000000000000E-01  1.2205553335017E+00 -3.3267938276476E-01
    91  9.0000000000000E-01  1.2239483994993E+00 -4.0745950487389E-01
    92  9.1000000000000E-01  1.2176977625192E+00 -4.6369874706235E-01
    93  9.2000000000000E-01  1.2008294503300E+00 -4.9933250369454E-01
    94  9.3000000000000E-01  1.1725913898511E+00 -5.1273775346883E-01
    95  9.4000000000000E-01  1.1324777922018E+00 -5.0278129143663E-01
    96  9.5000000000000E-01  1.0802477638055E+00 -4.6885652106385E-01
    97  9.6000000000000E-01  1.0159375969900E+00 -4.1090773306745E-01
    98  9.7000000000000E-01  9.3986634774407E-01 -3.2944110250995E-01
    99  9.8000000000000E-01  8.5263447400681E-01 -2.2552196294532E-01
   100  9.9000000000000E-01  7.5511548091725E-01 -1.0075825806242E-01
   101  1.0000000000000E+00  6.4844069545926E-01  4.2729581369051E-02
   102  1.0100000000000E+00  5.3397746747087E-01  2.0235174311617E-01
   103  1.0200000000000E+00  4.1330126257599E-01  3.7510419704920E-01
   104  1.0300000000000E+00  2.8816227079461E-01  5.5763468017063E-01
   105  1.0400000000000E+00  1.6044729838152E-01  7.4631798326818E-01
   106  1.0500000000000E+00  3.2137836113254E-02  9.3733877184752E-01
   107  1.0600000000000E+00 -9.4734698804053E-02  1.1267799694165E+00
   108  1.0700000000000E+00 -2.1813547024406E-01  1.3107145743462E+00
   109  1.0800000000000E+00 -3.3607334999781E-01  1.4852986773382E+00
   110  1.0900000000000E+00 -4.4664750873118E-01  1.6468633976240E+00
   111  1.1000000000000E+00 -5.4809231970184E-01  1.7920034642936E+00
   112  1.1100000000000E+00 -6.3881945658755E-01  1.9176602343682E+00
   113  1.1200000000000E+00 -7.1745612804085E-01  2.0211970607848E+00
   114  1.1300000000000E+00 -7.8287847952855E-01  2.1004650976196E+00
   115  1.1400000000000E+00 -8.3423930620137E-01  2.1538578538252E+00
   116  1.1500000000000E+00 -8.7098935548449E-01  2.1803530735811E+00
   117  1.1600000000000E+00 -8.9289165244488E-01  2.1795408264566E+00
   118  1.1700000000000E+00 -9.0002844970299E-01  2.1516370239317E+00
   119  1.1800000000000E+00 -8.9280058432199E-01  2.0974819356915E+00
   120  1.1900000000000E+00 -8.7191920971659E-01  2.0185236456707E+00
   121  1.2000000000000E+00 -8.3839005976810E-01  1.9167867612928E+00
   122  1.2100000000000E+00 -7.9349058654366E-01  1.7948270530168E+00
   123  1.2200000000000E+00 -7.3874049119239E-01  1.6556730529937E+00
   124  1.2300000000000E+00 -6.7586633257069E-01  1.5027559672257E+00
   125  1.2400000000000E+00 -6.0676104685433E-01  1.3398295490359E+00
   126  1.2500000000000E+00 -5.3343934049954E-01  1.1708818363460E+00
   127  1.2600000000000E+00 -4.5799002357394E-01  1.0000408616462E+00
   128  1.2700000000000E+00 -3.8252642024083E-01  8.3147658739707E-01
   129  1.2800000000000E+00 -3.0913612933339E-01  6.6930153103586E-01
   130  1.2900000000000E+00 -2.3982983557918E-01  5.1747051977930E-01
   131  1.3000000000000E+00 -1.7648317175095E-01  3.7967281463230E-01