Cl    ONCVPSP-4.0.1  r_core=   1.55471   1.35487   1.75230
     17.0000      7.0000      250217    zatom,zion,pspd
     8       2   2     4   600     0    pspcod,pspxc,lmax,lloc,mmax,r2well
  5.99000000  8.00000000  0.00000000    rchrg fchrg qchrg
     2     2     2     0    nproj
     3     1           extension_switch
     4     4     0    nprojso
   0                         8.2204057398392E+00  7.2182160669938E-01
     1  0.0000000000000E+00  5.8668231384118E-10 -3.2836881269649E-09
     2  1.0000000000000E-02  4.6824697584567E-02 -1.8645537729928E-02
     3  2.0000000000000E-02  9.3622436715816E-02 -3.7355441454064E-02
     4  3.0000000000000E-02  1.4036585434603E-01 -5.6191746643917E-02
     5  4.0000000000000E-02  1.8702678642430E-01 -7.5211873195383E-02
     6  5.0000000000000E-02  2.3357588770494E-01 -9.4466430453809E-02
     7  6.0000000000000E-02  2.7998227549946E-01 -1.1399715521853E-01
     8  7.0000000000000E-02  3.2621320464810E-01 -1.3383502310920E-01
     9  8.0000000000000E-02  3.7223378040056E-01 -1.5399857039263E-01
    10  9.0000000000000E-02  4.1800671518360E-01 -1.7449245938355E-01
    11  1.0000000000000E-01  4.6349213441086E-01 -1.9530631592198E-01
    12  1.1000000000000E-01  5.0864743557220E-01 -2.1641386228143E-01
    13  1.2000000000000E-01  5.5342720384530E-01 -2.3777236327446E-01
    14  1.3000000000000E-01  5.9778318641871E-01 -2.5932239740152E-01
    15  1.4000000000000E-01  6.4166432662560E-01 -2.8098795874874E-01
    16  1.5000000000000E-01  6.8501685787987E-01 -3.0267688909654E-01
    17  1.6000000000000E-01  7.2778445630434E-01 -3.2428163347350E-01
    18  1.7000000000000E-01  7.6990844986442E-01 -3.4568030629603E-01
    19  1.8000000000000E-01  8.1132808079072E-01 -3.6673804939097E-01
    20  1.9000000000000E-01  8.5198081711091E-01 -3.8730865771450E-01
    21  2.0000000000000E-01  8.9180270823164E-01 -4.0723644356234E-01
    22  2.1000000000000E-01  9.3072877873358E-01 -4.2635830560580E-01
    23  2.2000000000000E-01  9.6869345387940E-01 -4.4450596527138E-01
    24  2.3000000000000E-01  1.0056310097997E+00 -4.6150832987889E-01
    25  2.4000000000000E-01  1.0414760409235E+00 -4.7719393962232E-01
    26  2.5000000000000E-01  1.0761639369657E+00 -4.9139345396203E-01
    27  2.6000000000000E-01  1.1096313616778E+00 -5.0394213232320E-01
    28  2.7000000000000E-01  1.1418167256104E+00 -5.1468226417505E-01
    29  2.8000000000000E-01  1.1726606453262E+00 -5.2346550459323E-01
    30  2.9000000000000E-01  1.2021063818327E+00 -5.3015507326143E-01
    31  3.0000000000000E-01  1.2301002514725E+00 -5.3462777751209E-01
    32  3.1000000000000E-01  1.2565920030968E+00 -5.3677582338651E-01
    33  3.2000000000000E-01  1.2815351560539E+00 -5.3650838274661E-01
    34  3.3000000000000E-01  1.3048872943199E+00 -5.3375288911388E-01
    35  3.4000000000000E-01  1.3266103129836E+00 -5.2845604005777E-01
    36  3.5000000000000E-01  1.3466706142354E+00 -5.2058448950498E-01
    37  3.6000000000000E-01  1.3650392510008E+00 -5.1012521918599E-01
    38  3.7000000000000E-01  1.3816920173633E+00 -4.9708558446599E-01
    39  3.8000000000000E-01  1.3966094859371E+00 -4.8149303590483E-01
    40  3.9000000000000E-01  1.4097769933453E+00 -4.6339452394342E-01
    41  4.0000000000000E-01  1.4211845759156E+00 -4.4285560000164E-01
    42  4.1000000000000E-01  1.4308268586102E+00 -4.1995923288929E-01
    43  4.2000000000000E-01  1.4387029010391E+00 -3.9480436466595E-01
    44  4.3000000000000E-01  1.4448160051414E+00 -3.6750423484318E-01
    45  4.4000000000000E-01  1.4491734897656E+00 -3.3818450601198E-01
    46  4.5000000000000E-01  1.4517864378972E+00 -3.0698122752306E-01
    47  4.6000000000000E-01  1.4526694226850E+00 -2.7403867668197E-01
    48  4.7000000000000E-01  1.4518402186869E+00 -2.3950711899342E-01
    49  4.8000000000000E-01  1.4493195048864E+00 -2.0354053026278E-01
    50  4.9000000000000E-01  1.4451305660329E+00 -1.6629432381688E-01
    51  5.0000000000000E-01  1.4392989987165E+00 -1.2792312573381E-01
    52  5.1000000000000E-01  1.4318524283225E+00 -8.8578639783292E-02
    53  5.2000000000000E-01  1.4228202426157E+00 -4.8407641801781E-02
    54  5.3000000000000E-01  1.4122333471969E+00 -7.5501404971302E-03
    55  5.4000000000000E-01  1.4001239474613E+00  3.3862261744599E-02
    56  5.5000000000000E-01  1.3865253609877E+00  7.5707778530107E-02
    57  5.6000000000000E-01  1.3714718635079E+00  1.1787559468637E-01
    58  5.7000000000000E-01  1.3549985707700E+00  1.6026674718431E-01
    59  5.8000000000000E-01  1.3371413577344E+00  2.0279471731802E-01
    60  5.9000000000000E-01  1.3179368156377E+00  2.4538572537979E-01
    61  6.0000000000000E-01  1.2974222465593E+00  2.8797872489834E-01
    62  6.1000000000000E-01  1.2756356942331E+00  3.3052509937614E-01
    63  6.2000000000000E-01  1.2526160089921E+00  3.7298807025621E-01
    64  6.3000000000000E-01  1.2284029439229E+00  4.1534183046242E-01
    65  6.4000000000000E-01  1.2030372785699E+00  4.5757042318444E-01
    66  6.5000000000000E-01  1.1765609658620E+00  4.9966639051983E-01
    67  6.6000000000000E-01  1.1490172973717E+00  5.4162922104949E-01
    68  6.7000000000000E-01  1.1204510815493E+00  5.8346362932699E-01
    69  6.8000000000000E-01  1.0909088292243E+00  6.2517770353663E-01
    70  6.9000000000000E-01  1.0604389404351E+00  6.6678096015877E-01
    71  7.0000000000000E-01  1.0290918865379E+00  7.0828234633048E-01
    72  7.1000000000000E-01  9.9692038156043E-01  7.4968823167094E-01
    73  7.2000000000000E-01  9.6397953690742E-01  7.9100043163881E-01
    74  7.3000000000000E-01  9.3032699377883E-01  8.3221430399891E-01
    75  7.4000000000000E-01  8.9602302803754E-01  8.7331695871104E-01
    76  7.5000000000000E-01  8.6113062273814E-01  9.1428561954030E-01
    77  7.6000000000000E-01  8.2571550410238E-01  9.5508617296633E-01
    78  7.7000000000000E-01  7.8984613738298E-01  9.9567193659086E-01
    79  7.8000000000000E-01  7.5359367978363E-01  1.0359826752739E+00
    80  7.9000000000000E-01  7.1703188838519E-01  1.0759438887428E+00
    81  8.0000000000000E-01  6.8023698184905E-01  1.1154663895011E+00
    82  8.1000000000000E-01  6.4328745551399E-01  1.1544461846040E+00
    83  8.2000000000000E-01  6.0626385035520E-01  1.1927646693647E+00
    84  8.3000000000000E-01  5.6924847711698E-01  1.2302891354078E+00
    85  8.4000000000000E-01  5.3232509774893E-01  1.2668735897964E+00
    86  8.5000000000000E-01  4.9557856705316E-01  1.3023598763322E+00
    87  8.6000000000000E-01  4.5909443817348E-01  1.3365790846593E+00
    88  8.7000000000000E-01  4.2295853621351E-01  1.3693532275921E+00
    89  8.8000000000000E-01  3.8725650484831E-01  1.4004971622265E+00
    90  8.9000000000000E-01  3.5207333128333E-01  1.4298207259626E+00
    91  9.0000000000000E-01  3.1749285530736E-01  1.4571310546457E+00
    92  9.1000000000000E-01  2.8359726847813E-01  1.4822350466816E+00
    93  9.2000000000000E-01  2.5046660966508E-01  1.5049419342618E+00
    94  9.3000000000000E-01  2.1817826325303E-01  1.5250659207822E+00
    95  9.4000000000000E-01  1.8680646628355E-01  1.5424288421878E+00
    96  9.5000000000000E-01  1.5642183067992E-01  1.5568628093464E+00
    97  9.6000000000000E-01  1.2709088647172E-01  1.5682127886446E+00
    98  9.7000000000000E-01  9.8875651612247E-02  1.5763390788108E+00
    99  9.8000000000000E-01  7.1833233574532E-02  1.5811196434707E+00
   100  9.9000000000000E-01  4.6015467428456E-02  1.5824522611132E+00
   101  1.0000000000000E+00  2.1468594554166E-02  1.5802564569299E+00
   102  1.0100000000000E+00 -1.7670144541876E-03  1.5744751843486E+00
   103  1.0200000000000E+00 -2.3657089782324E-02  1.5650762279409E+00
   104  1.0300000000000E+00 -4.4173643045111E-02  1.5520533036788E+00
   105  1.0400000000000E+00 -6.3295097034455E-02  1.5354268371634E+00
   106  1.0500000000000E+00 -8.1006363697570E-02  1.5152444053815E+00
   107  1.0600000000000E+00 -9.7298870155055E-02  1.4915808326549E+00
   108  1.0700000000000E+00 -1.1217053322561E-01  1.4645379366721E+00
   109  1.0800000000000E+00 -1.2562568354869E-01  1.4342439257275E+00
   110  1.0900000000000E+00 -1.3767494097790E-01  1.4008524534483E+00
   111  1.1000000000000E+00 -1.4833504344998E-01  1.3645413423117E+00
   112  1.1100000000000E+00 -1.5762863200611E-01  1.3255109920127E+00
   113  1.1200000000000E+00 -1.6558399505129E-01  1.2839824932212E+00
   114  1.1300000000000E+00 -1.7223477527681E-01  1.2401954713416E+00
   115  1.1400000000000E+00 -1.7761964293913E-01  1.1944056885474E+00
   116  1.1500000000000E+00 -1.8178193938358E-01  1.1468824355108E+00
   117  1.1600000000000E+00 -1.8476929482351E-01  1.0979057468813E+00
   118  1.1700000000000E+00 -1.8663322443681E-01  1.0477634766179E+00
   119  1.1800000000000E+00 -1.8742870682453E-01  9.9674827074849E-01
   120  1.1900000000000E+00 -1.8721374879538E-01  9.4515447599192E-01
   121  1.2000000000000E+00 -1.8604894029968E-01  8.9327502292820E-01
   122  1.2100000000000E+00 -1.8399700314409E-01  8.4139832205771E-01
   123  1.2200000000000E+00 -1.8112233687973E-01  7.8980521015055E-01
   124  1.2300000000000E+00 -1.7749056497970E-01  7.3876598279040E-01
   125  1.2400000000000E+00 -1.7316808411517E-01  6.8853754699679E-01
   126  1.2500000000000E+00 -1.6822161900844E-01  6.3936072528574E-01
   127  1.2600000000000E+00 -1.6271778499785E-01  5.9145773958652E-01
   128  1.2700000000000E+00 -1.5672266009773E-01  5.4502990008781E-01
   129  1.2800000000000E+00 -1.5030136798501E-01  5.0025552041293E-01
   130  1.2900000000000E+00 -1.4351767297727E-01  4.5728807639441E-01
   131  1.3000000000000E+00 -1.3643358818825E-01  4.1625462546500E-01
   132  1.3100000000000E+00 -1.2910899434456E-01  3.7725446993002E-01
   133  1.3200000000000E+00 -1.2160140128322E-01  3.4035918832455E-01
   134  1.3300000000000E+00 -1.1396623585768E-01  3.0561702692378E-01
   135  1.3400000000000E+00 -1.0625702645189E-01  2.7305595073079E-01
   136  1.3500000000000E+00 -9.8525324662050E-02  2.4268437628088E-01
   137  1.3600000000000E+00 -9.0820643460877E-02  2.1449215415484E-01
   138  1.3700000000000E+00 -8.3190409974349E-02  1.8845177805219E-01
   139  1.3800000000000E+00 -7.5679933339611E-02  1.6451981836978E-01
   140  1.3900000000000E+00 -6.8332385859586E-02  1.4263855492939E-01
   141  1.4000000000000E+00 -6.1188795737860E-02  1.2273778185261E-01
   142  1.4100000000000E+00 -5.4288049680005E-02  1.0473675539772E-01
   143  1.4200000000000E+00 -4.7666903667045E-02  8.8546253728950E-02
   144  1.4300000000000E+00 -4.1360000250256E-02  7.4070716215622E-02
   145  1.4400000000000E+00 -3.5399890780864E-02  6.1210428952160E-02
   146  1.4500000000000E+00 -2.9817060403474E-02  4.9863721426682E-02
   147  1.4600000000000E+00 -2.4639960959620E-02  3.9929152639818E-02
   148  1.4700000000000E+00 -1.9895025685879E-02  3.1307618686430E-02
   149  1.4800000000000E+00 -1.5606857178372E-02  2.3904647634316E-02
   150  1.4900000000000E+00 -1.1799805506416E-02  1.7636049806072E-02
   151  1.5000000000000E+00 -8.4950235231320E-03  1.2423890157395E-02
   152  1.5100000000000E+00 -5.7105793192525E-03  8.1968785864513E-03
   153  1.5200000000000E+00 -3.4623971734280E-03  4.8935140652161E-03
   154  1.5300000000000E+00 -1.7648248655306E-03  2.4643298958888E-03
   155  1.5400000000000E+00 -6.2524047856462E-04  8.6570237252469E-04
   156  1.5500000000000E+00 -7.6180619719038E-05  1.0496993233740E-04
   157  1.5600000000000E+00  1.0694389371432E-05 -1.4650414471718E-05
   158  1.5700000000000E+00 -3.1883530204162E-06  4.3758094178050E-06
   159  1.58  0.  0.
   160  1.59  0.  0.
   161  1.60  0.  0.
   162  1.61  0.  0.
   163  1.62  0.  0.
   164  1.63  0.  0.
   165  1.64  0.  0.
   166  1.65  0.  0.
   167  1.66  0.  0.
   168  1.67  0.  0.
   169  1.68  0.  0.
   170  1.69  0.  0.
   171  1.70  0.  0.
   172  1.71  0.  0.
   173  1.72  0.  0.
   174  1.73  0.  0.
   175  1.74  0.  0.
   176  1.75  0.  0.
   177  1.76  0.  0.
   178  1.77  0.  0.
   179  1.78  0.  0.
   180  1.79  0.  0.
   181  1.80  0.  0.
   182  1.81  0.  0.
   183  1.82  0.  0.
   184  1.83  0.  0.
   185  1.84  0.  0.
   186  1.85  0.  0.
   187  1.86  0.  0.
   188  1.87  0.  0.
   189  1.88  0.  0.
   190  1.89  0.  0.
   191  1.90  0.  0.
   192  1.91  0.  0.
   193  1.92  0.  0.
   194  1.93  0.  0.
   195  1.94  0.  0.
   196  1.95  0.  0.
   197  1.96  0.  0.
   198  1.97  0.  0.
   199  1.98  0.  0.
   200  1.99  0.  0.
   201  2.00  0.  0.
   202  2.01  0.  0.
   203  2.02  0.  0.
   204  2.03  0.  0.
   205  2.04  0.  0.
   206  2.05  0.  0.
   207  2.06  0.  0.
   208  2.07  0.  0.
   209  2.08  0.  0.
   210  2.09  0.  0.
   211  2.10  0.  0.
   212  2.11  0.  0.
   213  2.12  0.  0.
   214  2.13  0.  0.
   215  2.14  0.  0.
   216  2.15  0.  0.
   217  2.16  0.  0.
   218  2.17  0.  0.
   219  2.18  0.  0.
   220  2.19  0.  0.
   221  2.20  0.  0.
   222  2.21  0.  0.
   223  2.22  0.  0.
   224  2.23  0.  0.
   225  2.24  0.  0.
   226  2.25  0.  0.
   227  2.26  0.  0.
   228  2.27  0.  0.
   229  2.28  0.  0.
   230  2.29  0.  0.
   231  2.30  0.  0.
   232  2.31  0.  0.
   233  2.32  0.  0.
   234  2.33  0.  0.
   235  2.34  0.  0.
   236  2.35  0.  0.
   237  2.36  0.  0.
   238  2.37  0.  0.
   239  2.38  0.  0.
   240  2.39  0.  0.
   241  2.40  0.  0.
   242  2.41  0.  0.
   243  2.42  0.  0.
   244  2.43  0.  0.
   245  2.44  0.  0.
   246  2.45  0.  0.
   247  2.46  0.  0.
   248  2.47  0.  0.
   249  2.48  0.  0.
   250  2.49  0.  0.
   251  2.50  0.  0.
   252  2.51  0.  0.
   253  2.52  0.  0.
   254  2.53  0.  0.
   255  2.54  0.  0.
   256  2.55  0.  0.
   257  2.56  0.  0.
   258  2.57  0.  0.
   259  2.58  0.  0.
   260  2.59  0.  0.
   261  2.60  0.  0.
   262  2.61  0.  0.
   263  2.62  0.  0.
   264  2.63  0.  0.
   265  2.64  0.  0.
   266  2.65  0.  0.
   267  2.66  0.  0.
   268  2.67  0.  0.
   269  2.68  0.  0.
   270  2.69  0.  0.
   271  2.70  0.  0.
   272  2.71  0.  0.
   273  2.72  0.  0.
   274  2.73  0.  0.
   275  2.74  0.  0.
   276  2.75  0.  0.
   277  2.76  0.  0.
   278  2.77  0.  0.
   279  2.78  0.  0.
   280  2.79  0.  0.
   281  2.80  0.  0.
   282  2.81  0.  0.
   283  2.82  0.  0.
   284  2.83  0.  0.
   285  2.84  0.  0.
   286  2.85  0.  0.
   287  2.86  0.  0.
   288  2.87  0.  0.
   289  2.88  0.  0.
   290  2.89  0.  0.
   291  2.90  0.  0.
   292  2.91  0.  0.
   293  2.92  0.  0.
   294  2.93  0.  0.
   295  2.94  0.  0.
   296  2.95  0.  0.
   297  2.96  0.  0.
   298  2.97  0.  0.
   299  2.98  0.  0.
   300  2.99  0.  0.
   301  3.00  0.  0.
   302  3.01  0.  0.
   303  3.02  0.  0.
   304  3.03  0.  0.
   305  3.04  0.  0.
   306  3.05  0.  0.
   307  3.06  0.  0.
   308  3.07  0.  0.
   309  3.08  0.  0.
   310  3.09  0.  0.
   311  3.10  0.  0.
   312  3.11  0.  0.
   313  3.12  0.  0.
   314  3.13  0.  0.
   315  3.14  0.  0.
   316  3.15  0.  0.
   317  3.16  0.  0.
   318  3.17  0.  0.
   319  3.18  0.  0.
   320  3.19  0.  0.
   321  3.20  0.  0.
   322  3.21  0.  0.
   323  3.22  0.  0.
   324  3.23  0.  0.
   325  3.24  0.  0.
   326  3.25  0.  0.
   327  3.26  0.  0.
   328  3.27  0.  0.
   329  3.28  0.  0.
   330  3.29  0.  0.
   331  3.30  0.  0.
   332  3.31  0.  0.
   333  3.32  0.  0.
   334  3.33  0.  0.
   335  3.34  0.  0.
   336  3.35  0.  0.
   337  3.36  0.  0.
   338  3.37  0.  0.
   339  3.38  0.  0.
   340  3.39  0.  0.
   341  3.40  0.  0.
   342  3.41  0.  0.
   343  3.42  0.  0.
   344  3.43  0.  0.
   345  3.44  0.  0.
   346  3.45  0.  0.
   347  3.46  0.  0.
   348  3.47  0.  0.
   349  3.48  0.  0.
   350  3.49  0.  0.
   351  3.50  0.  0.
   352  3.51  0.  0.
   353  3.52  0.  0.
   354  3.53  0.  0.
   355  3.54  0.  0.
   356  3.55  0.  0.
   357  3.56  0.  0.
   358  3.57  0.  0.
   359  3.58  0.  0.
   360  3.59  0.  0.
   361  3.60  0.  0.
   362  3.61  0.  0.
   363  3.62  0.  0.
   364  3.63  0.  0.
   365  3.64  0.  0.
   366  3.65  0.  0.
   367  3.66  0.  0.
   368  3.67  0.  0.
   369  3.68  0.  0.
   370  3.69  0.  0.
   371  3.70  0.  0.
   372  3.71  0.  0.
   373  3.72  0.  0.
   374  3.73  0.  0.
   375  3.74  0.  0.
   376  3.75  0.  0.
   377  3.76  0.  0.
   378  3.77  0.  0.
   379  3.78  0.  0.
   380  3.79  0.  0.
   381  3.80  0.  0.
   382  3.81  0.  0.
   383  3.82  0.  0.
   384  3.83  0.  0.
   385  3.84  0.  0.
   386  3.85  0.  0.
   387  3.86  0.  0.
   388  3.87  0.  0.
   389  3.88  0.  0.
   390  3.89  0.  0.
   391  3.90  0.  0.
   392  3.91  0.  0.
   393  3.92  0.  0.
   394  3.93  0.  0.
   395  3.94  0.  0.
   396  3.95  0.  0.
   397  3.96  0.  0.
   398  3.97  0.  0.
   399  3.98  0.  0.
   400  3.99  0.  0.
   401  4.00  0.  0.
   402  4.01  0.  0.
   403  4.02  0.  0.
   404  4.03  0.  0.
   405  4.04  0.  0.
   406  4.05  0.  0.
   407  4.06  0.  0.
   408  4.07  0.  0.
   409  4.08  0.  0.
   410  4.09  0.  0.
   411  4.10  0.  0.
   412  4.11  0.  0.
   413  4.12  0.  0.
   414  4.13  0.  0.
   415  4.14  0.  0.
   416  4.15  0.  0.
   417  4.16  0.  0.
   418  4.17  0.  0.
   419  4.18  0.  0.
   420  4.19  0.  0.
   421  4.20  0.  0.
   422  4.21  0.  0.
   423  4.22  0.  0.
   424  4.23  0.  0.
   425  4.24  0.  0.
   426  4.25  0.  0.
   427  4.26  0.  0.
   428  4.27  0.  0.
   429  4.28  0.  0.
   430  4.29  0.  0.
   431  4.30  0.  0.
   432  4.31  0.  0.
   433  4.32  0.  0.
   434  4.33  0.  0.
   435  4.34  0.  0.
   436  4.35  0.  0.
   437  4.36  0.  0.
   438  4.37  0.  0.
   439  4.38  0.  0.
   440  4.39  0.  0.
   441  4.40  0.  0.
   442  4.41  0.  0.
   443  4.42  0.  0.
   444  4.43  0.  0.
   445  4.44  0.  0.
   446  4.45  0.  0.
   447  4.46  0.  0.
   448  4.47  0.  0.
   449  4.48  0.  0.
   450  4.49  0.  0.
   451  4.50  0.  0.
   452  4.51  0.  0.
   453  4.52  0.  0.
   454  4.53  0.  0.
   455  4.54  0.  0.
   456  4.55  0.  0.
   457  4.56  0.  0.
   458  4.57  0.  0.
   459  4.58  0.  0.
   460  4.59  0.  0.
   461  4.60  0.  0.
   462  4.61  0.  0.
   463  4.62  0.  0.
   464  4.63  0.  0.
   465  4.64  0.  0.
   466  4.65  0.  0.
   467  4.66  0.  0.
   468  4.67  0.  0.
   469  4.68  0.  0.
   470  4.69  0.  0.
   471  4.70  0.  0.
   472  4.71  0.  0.
   473  4.72  0.  0.
   474  4.73  0.  0.
   475  4.74  0.  0.
   476  4.75  0.  0.
   477  4.76  0.  0.
   478  4.77  0.  0.
   479  4.78  0.  0.
   480  4.79  0.  0.
   481  4.80  0.  0.
   482  4.81  0.  0.
   483  4.82  0.  0.
   484  4.83  0.  0.
   485  4.84  0.  0.
   486  4.85  0.  0.
   487  4.86  0.  0.
   488  4.87  0.  0.
   489  4.88  0.  0.
   490  4.89  0.  0.
   491  4.90  0.  0.
   492  4.91  0.  0.
   493  4.92  0.  0.
   494  4.93  0.  0.
   495  4.94  0.  0.
   496  4.95  0.  0.
   497  4.96  0.  0.
   498  4.97  0.  0.
   499  4.98  0.  0.
   500  4.99  0.  0.
   501  5.00  0.  0.
   502  5.01  0.  0.
   503  5.02  0.  0.
   504  5.03  0.  0.
   505  5.04  0.  0.
   506  5.05  0.  0.
   507  5.06  0.  0.
   508  5.07  0.  0.
   509  5.08  0.  0.
   510  5.09  0.  0.
   511  5.10  0.  0.
   512  5.11  0.  0.
   513  5.12  0.  0.
   514  5.13  0.  0.
   515  5.14  0.  0.
   516  5.15  0.  0.
   517  5.16  0.  0.
   518  5.17  0.  0.
   519  5.18  0.  0.
   520  5.19  0.  0.
   521  5.20  0.  0.
   522  5.21  0.  0.
   523  5.22  0.  0.
   524  5.23  0.  0.
   525  5.24  0.  0.
   526  5.25  0.  0.
   527  5.26  0.  0.
   528  5.27  0.  0.
   529  5.28  0.  0.
   530  5.29  0.  0.
   531  5.30  0.  0.
   532  5.31  0.  0.
   533  5.32  0.  0.
   534  5.33  0.  0.
   535  5.34  0.  0.
   536  5.35  0.  0.
   537  5.36  0.  0.
   538  5.37  0.  0.
   539  5.38  0.  0.
   540  5.39  0.  0.
   541  5.40  0.  0.
   542  5.41  0.  0.
   543  5.42  0.  0.
   544  5.43  0.  0.
   545  5.44  0.  0.
   546  5.45  0.  0.
   547  5.46  0.  0.
   548  5.47  0.  0.
   549  5.48  0.  0.
   550  5.49  0.  0.
   551  5.50  0.  0.
   552  5.51  0.  0.
   553  5.52  0.  0.
   554  5.53  0.  0.
   555  5.54  0.  0.
   556  5.55  0.  0.
   557  5.56  0.  0.
   558  5.57  0.  0.
   559  5.58  0.  0.
   560  5.59  0.  0.
   561  5.60  0.  0.
   562  5.61  0.  0.
   563  5.62  0.  0.
   564  5.63  0.  0.
   565  5.64  0.  0.
   566  5.65  0.  0.
   567  5.66  0.  0.
   568  5.67  0.  0.
   569  5.68  0.  0.
   570  5.69  0.  0.
   571  5.70  0.  0.
   572  5.71  0.  0.
   573  5.72  0.  0.
   574  5.73  0.  0.
   575  5.74  0.  0.
   576  5.75  0.  0.
   577  5.76  0.  0.
   578  5.77  0.  0.
   579  5.78  0.  0.
   580  5.79  0.  0.
   581  5.80  0.  0.
   582  5.81  0.  0.
   583  5.82  0.  0.
   584  5.83  0.  0.
   585  5.84  0.  0.
   586  5.85  0.  0.
   587  5.86  0.  0.
   588  5.87  0.  0.
   589  5.88  0.  0.
   590  5.89  0.  0.
   591  5.90  0.  0.
   592  5.91  0.  0.
   593  5.92  0.  0.
   594  5.93  0.  0.
   595  5.94  0.  0.
   596  5.95  0.  0.
   597  5.96  0.  0.
   598  5.97  0.  0.
   599  5.98  0.  0.
   600  5.99  0.  0.
   1                         3.5597468465397E+00  8.6068691097534E-01
     1  0.0000000000000E+00  9.1532419144169E-08 -1.7929915233084E-07
     2  1.0000000000000E-02  2.7025122164804E-03 -3.2713199454194E-03
     3  2.0000000000000E-02  1.0740773175823E-02 -1.2954990366424E-02
     4  3.0000000000000E-02  2.3908997061046E-02 -2.8664126229510E-02
     5  4.0000000000000E-02  4.1870953436979E-02 -4.9767082381144E-02
     6  5.0000000000000E-02  6.4169883875555E-02 -7.5406802084136E-02
     7  6.0000000000000E-02  9.0241986471958E-02 -1.0452712365129E-01
     8  7.0000000000000E-02  1.1943308279518E-01 -1.3590528995245E-01
     9  8.0000000000000E-02  1.5101799028419E-01 -1.6818972627195E-01
    10  9.0000000000000E-02  1.8422204481818E-01 -1.9994199868235E-01
    11  1.0000000000000E-01  2.1824415534790E-01 -2.2968174207437E-01
    12  1.1000000000000E-01  2.5228072684549E-01 -2.5593325771382E-01
    13  1.2000000000000E-01  2.8554976071498E-01 -2.7727242723638E-01
    14  1.3000000000000E-01  3.1731443400196E-01 -2.9237257490239E-01
    15  1.4000000000000E-01  3.4690547051893E-01 -3.0004793324023E-01
    16  1.5000000000000E-01  3.7374164809544E-01 -2.9929342838577E-01
    17  1.6000000000000E-01  3.9734783577447E-01 -2.8931959890780E-01
    18  1.7000000000000E-01  4.1737002160164E-01 -2.6958159313314E-01
    19  1.8000000000000E-01  4.3358687391106E-01 -2.3980135144872E-01
    20  1.9000000000000E-01  4.4591747449029E-01 -1.9998226742407E-01
    21  2.0000000000000E-01  4.5442496812726E-01 -1.5041582979982E-01
    22  2.1000000000000E-01  4.5931598692146E-01 -9.1679970770020E-02
    23  2.2000000000000E-01  4.6093582627542E-01 -2.4629078452723E-02
    24  2.3000000000000E-01  4.5975946942188E-01  4.9624133377381E-02
    25  2.4000000000000E-01  4.5637867538780E-01  1.2973447380491E-01
    26  2.5000000000000E-01  4.5148545818204E-01  2.1415719580201E-01
    27  2.6000000000000E-01  4.4585238957877E-01  3.0118713911544E-01
    28  2.7000000000000E-01  4.4031025122194E-01  3.8900306151978E-01
    29  2.8000000000000E-01  4.3572364125585E-01  4.7571596936077E-01
    30  2.9000000000000E-01  4.3296520401488E-01  5.5942013445049E-01
    31  3.0000000000000E-01  4.3288919662927E-01  6.3824539586153E-01
    32  3.1000000000000E-01  4.3630513235088E-01  7.1040929468847E-01
    33  3.2000000000000E-01  4.4395224611700E-01  7.7426757906984E-01
    34  3.3000000000000E-01  4.5647551304235E-01  8.2836164629249E-01
    35  3.4000000000000E-01  4.7440391540399E-01  8.7146155814166E-01
    36  3.5000000000000E-01  4.9813159905991E-01  9.0260337323686E-01
    37  3.6000000000000E-01  5.2790248745239E-01  9.2111968328033E-01
    38  3.7000000000000E-01  5.6379883222675E-01  9.2666241533100E-01
    39  3.8000000000000E-01  6.0573407633651E-01  9.1921716489641E-01
    40  3.9000000000000E-01  6.5345029099531E-01  8.9910854952494E-01
    41  4.0000000000000E-01  7.0652032499030E-01  8.6699631375372E-01
    42  4.1000000000000E-01  7.6435467695675E-01  8.2386216731158E-01
    43  4.2000000000000E-01  8.2621297165663E-01  7.7098759265808E-01
    44  4.3000000000000E-01  8.9121979360581E-01  7.0992310838998E-01
    45  4.4000000000000E-01  9.5838450903311E-01  6.4244971493484E-01
    46  4.5000000000000E-01  1.0266245934947E+00  5.7053347168074E-01
    47  4.6000000000000E-01  1.0947918806667E+00  4.9627435406331E-01
    48  4.7000000000000E-01  1.1617010607642E+00  4.2185070953018E-01
    49  4.8000000000000E-01  1.2261596871807E+00  3.4946076783612E-01
    50  4.9000000000000E-01  1.2869988993637E+00  2.8126275976918E-01
    51  5.0000000000000E-01  1.3431040401967E+00  2.1931525612485E-01
    52  5.1000000000000E-01  1.3934443382528E+00  1.6551935356254E-01
    53  5.2000000000000E-01  1.4371008396588E+00  1.2156430505478E-01
    54  5.3000000000000E-01  1.4732918108071E+00  8.8878120300152E-02
    55  5.4000000000000E-01  1.5013948910150E+00  6.8584547202739E-02
    56  5.5000000000000E-01  1.5209653521430E+00  6.1467691949286E-02
    57  5.6000000000000E-01  1.5317499182619E+00  6.7945346035814E-02
    58  5.7000000000000E-01  1.5336957103232E+00  8.8051868492709E-02
    59  5.8000000000000E-01  1.5269540056288E+00  1.2143122608320E-01
    60  5.9000000000000E-01  1.5118786365068E+00  1.6734052968574E-01
    61  6.0000000000000E-01  1.4890189935105E+00  2.2466412826703E-01
    62  6.1000000000000E-01  1.4591077419733E+00  2.9193804005017E-01
    63  6.2000000000000E-01  1.4230435030919E+00  3.6738422112964E-01
    64  6.3000000000000E-01  1.3818688880720E+00  4.4895390233069E-01
    65  6.4000000000000E-01  1.3367444025670E+00  5.3437897282314E-01
    66  6.5000000000000E-01  1.2889188551546E+00  6.2123016075528E-01
    67  6.6000000000000E-01  1.2396970047152E+00  7.0698056328906E-01
    68  6.7000000000000E-01  1.1904052644682E+00  7.8907291645436E-01
    69  6.8000000000000E-01  1.1423563426825E+00  8.6498887388801E-01
    70  6.9000000000000E-01  1.0968137398571E+00  9.3231848641962E-01
    71  7.0000000000000E-01  1.0549570381639E+00  9.8882804414090E-01
    72  7.1000000000000E-01  1.0178489104860E+00  1.0325244603539E+00
    73  7.2000000000000E-01  9.8640474343034E-01  1.0617144426960E+00
    74  7.3000000000000E-01  9.6136571184058E-01  1.0750568095887E+00
    75  7.4000000000000E-01  9.4327606283630E-01  1.0716064674732E+00
    76  7.5000000000000E-01  9.3246526708400E-01  1.0508487624778E+00
    77  7.6000000000000E-01  9.2903557628366E-01  1.0127231544169E+00
    78  7.7000000000000E-01  9.3285539164555E-01  9.5763542562418E-01
    79  7.8000000000000E-01  9.4355870177110E-01  8.8645792548767E-01
    80  7.9000000000000E-01  9.6055069354437E-01  8.0051765638888E-01
    81  8.0000000000000E-01  9.8301948033755E-01  7.0157232027436E-01
    82  8.1000000000000E-01  1.0099537321363E+00  5.9177475923605E-01
    83  8.2000000000000E-01  1.0401658362586E+00  4.7362653006234E-01
    84  8.3000000000000E-01  1.0723200692633E+00  3.4992164369906E-01
    85  8.4000000000000E-01  1.1049651243620E+00  2.2368176819895E-01
    86  8.5000000000000E-01  1.1365702177938E+00  9.8084430867189E-02
    87  8.6000000000000E-01  1.1655638955198E+00 -2.3614044548112E-02
    88  8.7000000000000E-01  1.1903745810376E+00 -1.3815897215932E-01
    89  8.8000000000000E-01  1.2094718484330E+00 -2.4237910570339E-01
    90  8.9000000000000E-01  1.2214073736539E+00 -3.3326774352405E-01
    91  9.0000000000000E-01  1.2248545124721E+00 -4.0806106472688E-01
    92  9.1000000000000E-01  1.2186454760550E+00 -4.6431166978210E-01
    93  9.2000000000000E-01  1.2018051241833E+00 -4.9995539662479E-01
    94  9.3000000000000E-01  1.1735804708973E+00 -5.1336963151738E-01
    95  9.4000000000000E-01  1.1334650960520E+00 -5.0342152924613E-01
    96  9.5000000000000E-01  1.0812177765916E+00 -4.6950479505873E-01
    97  9.6000000000000E-01  1.0168747903997E+00 -4.1156395534349E-01
    98  9.7000000000000E-01  9.4075549996760E-01 -3.3010534874595E-01
    99  9.8000000000000E-01  8.5346098901510E-01 -2.2619439666738E-01
   100  9.9000000000000E-01  7.5586569843941E-01 -1.0143905367865E-01
   101  1.0000000000000E+00  6.4910218416118E-01  4.2040314326711E-02
   102  1.0100000000000E+00  5.3453929416153E-01  2.0165403215370E-01
   103  1.0200000000000E+00  4.1375423077291E-01  3.7439827300106E-01
   104  1.0300000000000E+00  2.8849912265591E-01  5.5692103552115E-01
   105  1.0400000000000E+00  1.6066287484284E-01  7.4559742064072E-01
   106  1.0500000000000E+00  3.2229191034360E-02  9.3661244108475E-01
   107  1.0600000000000E+00 -9.4768233598968E-02  1.1260493920053E+00
   108  1.0700000000000E+00 -2.1829227098315E-01  1.3099816543048E+00
   109  1.0800000000000E+00 -3.3634953876247E-01  1.4845656980730E+00
   110  1.0900000000000E+00 -4.4703704251703E-01  1.6461330046659E+00
   111  1.1000000000000E+00 -5.4858712896768E-01  1.7912786342292E+00
   112  1.1100000000000E+00 -6.3940963030656E-01  1.9169442306810E+00
   113  1.1200000000000E+00 -7.1813014111952E-01  2.0204933776962E+00
   114  1.1300000000000E+00 -7.8362345740407E-01  2.0997773933739E+00
   115  1.1400000000000E+00 -8.3504132049439E-01  2.1531898751685E+00
   116  1.1500000000000E+00 -8.7183374379499E-01  2.1797085734489E+00
   117  1.1600000000000E+00 -8.9376335475531E-01  2.1789234770936E+00
   118  1.1700000000000E+00 -9.0091235341080E-01  2.1510503278134E+00
   119  1.1800000000000E+00 -8.9368186967581E-01  2.0969291367026E+00
   120  1.1900000000000E+00 -8.7278368738294E-01  2.0180076430110E+00
   121  1.2000000000000E+00 -8.3922449241175E-01  1.9163100285308E+00
   122  1.2100000000000E+00 -7.9428298666083E-01  1.7943915645968E+00
   123  1.2200000000000E+00 -7.3948038798477E-01  1.6552802203208E+00
   124  1.2300000000000E+00 -6.7654500137609E-01  1.5024065862190E+00
   125  1.2400000000000E+00 -6.0737169554015E-01  1.3395237607527E+00
   126  1.2500000000000E+00 -5.3397724825630E-01  1.1706191019443E+00
   127  1.2600000000000E+00 -4.5845262869250E-01  9.9981995259476E-01
   128  1.2700000000000E+00 -3.8291335469133E-01  8.3129559146558E-01
   129  1.2800000000000E+00 -3.0944919925911E-01  6.6915787402903E-01
   130  1.2900000000000E+00 -2.4007294811250E-01  5.1736100600530E-01