Cl    ONCVPSP-4.0.1  r_core=   1.55471   1.35487   1.75230
     17.0000      7.0000      250925    zatom,zion,pspd
     8   -1012   2     4   600     0    pspcod,pspxc,lmax,lloc,mmax,r2well
  5.99000000  8.00000000  0.00000000    rchrg fchrg qchrg
     2     2     2     0    nproj
     3     1           extension_switch
     4     4     0    nprojso
   0                         8.2207394512813E+00  7.2187345200356E-01
     1  0.0000000000000E+00  5.8675581060541E-10 -3.2839367614113E-09
     2  1.0000000000000E-02  4.6822912294337E-02 -1.8646260974545E-02
     3  2.0000000000000E-02  9.3618873161047E-02 -3.7356890441363E-02
     4  3.0000000000000E-02  1.4036052651418E-01 -5.6193926261036E-02
     5  4.0000000000000E-02  1.8701971513830E-01 -7.5214790504751E-02
     6  5.0000000000000E-02  2.3356710043746E-01 -9.4470094382881E-02
     7  6.0000000000000E-02  2.7997180613213E-01 -1.1400157616519E-01
     8  7.0000000000000E-02  3.2620109318146E-01 -1.3384021247832E-01
     9  8.0000000000000E-02  3.7222007262136E-01 -1.5400454008235E-01
    10  9.0000000000000E-02  4.1799146229725E-01 -1.7449922124202E-01
    11  1.0000000000000E-01  4.6347539264745E-01 -1.9531388119710E-01
    12  1.1000000000000E-01  5.0862926577507E-01 -2.1642224108701E-01
    13  1.2000000000000E-01  5.5340767105125E-01 -2.3778156409621E-01
    14  1.3000000000000E-01  5.9776235943907E-01 -2.5933242666594E-01
    15  1.4000000000000E-01  6.4164227763709E-01 -2.8099882047619E-01
    16  1.5000000000000E-01  6.8499366203357E-01 -3.0268858465782E-01
    17  1.6000000000000E-01  7.2776019136050E-01 -3.2429416146612E-01
    18  1.7000000000000E-01  7.6988319585969E-01 -3.4569366255311E-01
    19  1.8000000000000E-01  8.1130191974344E-01 -3.6675222713119E-01
    20  1.9000000000000E-01  8.5195383276852E-01 -3.8732364783742E-01
    21  2.0000000000000E-01  8.9177498586310E-01 -4.0725223508815E-01
    22  2.1000000000000E-01  9.3070040496788E-01 -4.2637488625395E-01
    23  2.2000000000000E-01  9.6866451658991E-01 -4.4452332216714E-01
    24  2.3000000000000E-01  1.0056015980323E+00 -4.6152645037224E-01
    25  2.4000000000000E-01  1.0414462448649E+00 -4.7721281219874E-01
    26  2.5000000000000E-01  1.0761338479474E+00 -4.9141306922065E-01
    27  2.6000000000000E-01  1.1096010722088E+00 -5.0396248399402E-01
    28  2.7000000000000E-01  1.1417863294315E+00 -5.1470335014401E-01
    29  2.8000000000000E-01  1.1726302374773E+00 -5.2348732790163E-01
    30  2.9000000000000E-01  1.2020760587239E+00 -5.3017764304492E-01
    31  3.0000000000000E-01  1.2300701109496E+00 -5.3465110984398E-01
    32  3.1000000000000E-01  1.2565621444908E+00 -5.3679994199109E-01
    33  3.2000000000000E-01  1.2815056802047E+00 -5.3653331954917E-01
    34  3.3000000000000E-01  1.3048583035652E+00 -5.3377868459737E-01
    35  3.4000000000000E-01  1.3265819111032E+00 -5.2848274339949E-01
    36  3.5000000000000E-01  1.3466429063444E+00 -5.2061215847076E-01
    37  3.6000000000000E-01  1.3650123433833E+00 -5.1015391976547E-01
    38  3.7000000000000E-01  1.3816660172423E+00 -4.9711539023773E-01
    39  3.8000000000000E-01  1.3965845011770E+00 -4.8152402712757E-01
    40  3.9000000000000E-01  1.4097531320840E+00 -4.6342678637583E-01
    41  4.0000000000000E-01  1.4211619461272E+00 -4.4288922346123E-01
    42  4.1000000000000E-01  1.4308055676001E+00 -4.1999430956758E-01
    43  4.2000000000000E-01  1.4386830548745E+00 -3.9484098722501E-01
    44  4.3000000000000E-01  1.4447977080246E+00 -3.6754249432511E-01
    45  4.4000000000000E-01  1.4491568433567E+00 -3.3822448959946E-01
    46  4.5000000000000E-01  1.4517715405962E+00 -3.0702301619510E-01
    47  4.6000000000000E-01  1.4526563688851E+00 -2.7408234281350E-01
    48  4.7000000000000E-01  1.4518290980100E+00 -2.3955272395161E-01
    49  4.8000000000000E-01  1.4493104014169E+00 -2.0358812205555E-01
    50  4.9000000000000E-01  1.4451235575620E+00 -1.6634393485071E-01
    51  5.0000000000000E-01  1.4392941560134E+00 -1.2797477073783E-01
    52  5.1000000000000E-01  1.4318498144473E+00 -8.8632313955979E-02
    53  5.2000000000000E-01  1.4228199122887E+00 -4.8463319233233E-02
    54  5.3000000000000E-01  1.4122353462390E+00 -7.6077729166406E-03
    55  5.4000000000000E-01  1.4001283123190E+00  3.3802745852124E-02
    56  5.5000000000000E-01  1.3865321183545E+00  7.5646474401118E-02
    57  5.6000000000000E-01  1.3714810300521E+00  1.1781262131986E-01
    58  5.7000000000000E-01  1.3550101529791E+00  1.6020224692605E-01
    59  5.8000000000000E-01  1.3371553518807E+00  2.0272885497710E-01
    60  5.9000000000000E-01  1.3179532078698E+00  2.4531868687604E-01
    61  6.0000000000000E-01  1.2974410131211E+00  2.8791071545070E-01
    62  6.1000000000000E-01  1.2756568018087E+00  3.3045634125213E-01
    63  6.2000000000000E-01  1.2526394151726E+00  3.7291880011397E-01
    64  6.3000000000000E-01  1.2284285977887E+00  4.1527229632643E-01
    65  6.4000000000000E-01  1.2030651213783E+00  4.5750088110667E-01
    66  6.5000000000000E-01  1.1765909318297E+00  4.9959710098622E-01
    67  6.6000000000000E-01  1.1490493145367E+00  5.4156044519992E-01
    68  6.7000000000000E-01  1.1204850726967E+00  5.8339562506359E-01
    69  6.8000000000000E-01  1.0909447128587E+00  6.2511072159974E-01
    70  6.9000000000000E-01  1.0604766317793E+00  6.6671524025417E-01
    71  7.0000000000000E-01  1.0291312985382E+00  7.0821811339239E-01
    72  7.1000000000000E-01  9.9696142587911E-01  7.4962569234559E-01
    73  7.2000000000000E-01  9.6402212487976E-01  7.9093977107095E-01
    74  7.3000000000000E-01  9.3037103731622E-01  8.3215568299987E-01
    75  7.4000000000000E-01  8.9606844045645E-01  8.7326051138055E-01
    76  7.5000000000000E-01  8.6117731949729E-01  9.1423145140708E-01
    77  7.6000000000000E-01  8.2576340343194E-01  9.5503435970250E-01
    78  7.7000000000000E-01  7.8989516079190E-01  9.9562252334462E-01
    79  7.8000000000000E-01  7.5364375243370E-01  1.0359356766523E+00
    80  7.9000000000000E-01  7.1708293932340E-01  1.0758992894632E+00
    81  8.0000000000000E-01  6.8028894409281E-01  1.1154241457156E+00
    82  8.1000000000000E-01  6.4334026598738E-01  1.1544062258869E+00
    83  8.2000000000000E-01  6.0631744967758E-01  1.1927269013370E+00
    84  8.3000000000000E-01  5.6930280924897E-01  1.2302534429588E+00
    85  8.4000000000000E-01  5.3238010950420E-01  1.2668398408481E+00
    86  8.5000000000000E-01  4.9563420748782E-01  1.3023279260781E+00
    87  8.6000000000000E-01  4.5915065786790E-01  1.3365487801967E+00
    88  8.7000000000000E-01  4.2301528646457E-01  1.3693244128569E+00
    89  8.8000000000000E-01  3.8731373679237E-01  1.4004696831284E+00
    90  8.9000000000000E-01  3.5213099497240E-01  1.4297944356127E+00
    91  9.0000000000000E-01  3.1755089876280E-01  1.4571058185616E+00
    92  9.1000000000000E-01  2.8365563674727E-01  1.4822107478545E+00
    93  9.2000000000000E-01  2.5052524390671E-01  1.5049184779662E+00
    94  9.3000000000000E-01  2.1823709987796E-01  1.5250432390141E+00
    95  9.4000000000000E-01  1.8686543617579E-01  1.5424068976188E+00
    96  9.5000000000000E-01  1.5648085852296E-01  1.5568415986909E+00
    97  9.6000000000000E-01  1.2714989020270E-01  1.5681923453446E+00
    98  9.7000000000000E-01  9.8934542024632E-02  1.5763194749550E+00
    99  9.8000000000000E-01  7.1891914087001E-02  1.5811009908791E+00
   100  9.9000000000000E-01  4.6073834034753E-02  1.5824347115335E+00
   101  1.0000000000000E+00  2.1526535964893E-02  1.5802402013087E+00
   102  1.0100000000000E+00 -1.7096164708300E-03  1.5744604511599E+00
   103  1.0200000000000E+00 -2.3600359857850E-02  1.5650632805722E+00
   104  1.0300000000000E+00 -4.4117711467676E-02  1.5520424368962E+00
   105  1.0400000000000E+00 -6.3240098811245E-02  1.5354183726964E+00
   106  1.0500000000000E+00 -8.0952437432968E-02  1.5152386866870E+00
   107  1.0600000000000E+00 -9.7246156759236E-02  1.4915782189397E+00
   108  1.0700000000000E+00 -1.1211917447224E-01  1.4645387962703E+00
   109  1.0800000000000E+00 -1.2557582050426E-01  1.4342486289445E+00
   110  1.0900000000000E+00 -1.3762671232858E-01  1.4008613649994E+00
   111  1.1000000000000E+00 -1.4828858375494E-01  1.3645548134924E+00
   112  1.1100000000000E+00 -1.5758406990847E-01  1.3255293527492E+00
   113  1.1200000000000E+00 -1.6554145147996E-01  1.2840060441560E+00
   114  1.1300000000000E+00 -1.7219436167336E-01  1.2402244761129E+00
   115  1.1400000000000E+00 -1.7758145954467E-01  1.1944403664198E+00
   116  1.1500000000000E+00 -1.8174607362007E-01  1.1469229545159E+00
   117  1.1600000000000E+00 -1.8473581980339E-01  1.0979522176192E+00
   118  1.1700000000000E+00 -1.8660219763307E-01  1.0478159468608E+00
   119  1.1800000000000E+00 -1.8740016893098E-01  9.9680672098008E-01
   120  1.1900000000000E+00 -1.8718772280442E-01  9.4521881599745E-01
   121  1.2000000000000E+00 -1.8602543082082E-01  8.9334508953752E-01
   122  1.2100000000000E+00 -1.8397599598309E-01  8.4147387812224E-01
   123  1.2200000000000E+00 -1.8110379889341E-01  7.8988594481548E-01
   124  1.2300000000000E+00 -1.7747444421687E-01  7.3885151310163E-01
   125  1.2400000000000E+00 -1.7315431024918E-01  6.8862742085872E-01
   126  1.2500000000000E+00 -1.6821010406158E-01  6.3945442576299E-01
   127  1.2600000000000E+00 -1.6270842435274E-01  5.9155469051879E-01
   128  1.2700000000000E+00 -1.5671533378556E-01  5.4512947296420E-01
   129  1.2800000000000E+00 -1.5029594223571E-01  5.0035704242999E-01
   130  1.2900000000000E+00 -1.4351400201175E-01  4.5739083960094E-01
   131  1.3000000000000E+00 -1.3643151622876E-01  4.1635789687768E-01
   132  1.3100000000000E+00 -1.2910835781553E-01  3.7735750248946E-01
   133  1.3200000000000E+00 -1.2160203115473E-01  3.4046123241834E-01
   134  1.3300000000000E+00 -1.1396796002890E-01  3.0571734179957E-01
   135  1.3400000000000E+00 -1.0625967214409E-01  2.7315381570048E-01
   136  1.3500000000000E+00 -9.8528720813677E-02  2.4277910180011E-01
   137  1.3600000000000E+00 -9.0824623082753E-02  2.1458309259438E-01
   138  1.3700000000000E+00 -8.3194812423398E-02  1.8853833398200E-01
   139  1.3800000000000E+00 -7.5684606470851E-02  1.6460145818030E-01
   140  1.3900000000000E+00 -6.8337188018163E-02  1.4271481562433E-01
   141  1.4000000000000E+00 -6.1193597555614E-02  1.2280827886000E-01
   142  1.4100000000000E+00 -5.4292735644700E-02  1.0480118926155E-01
   143  1.4200000000000E+00 -4.7671373436390E-02  8.8604415562367E-02
   144  1.4300000000000E+00 -4.1364169687566E-02  7.4122491817161E-02
   145  1.4400000000000E+00 -3.5403692694272E-02  6.1255801509379E-02
   146  1.4500000000000E+00 -2.9820444975271E-02  4.9902772753461E-02
   147  1.4600000000000E+00 -2.4642895867064E-02  3.9962062945638E-02
   148  1.4700000000000E+00 -1.9897495878580E-02  3.1334664777615E-02
   149  1.4800000000000E+00 -1.5608864589685E-02  2.3926200376508E-02
   150  1.4900000000000E+00 -1.1801369937793E-02  1.7652574398523E-02
   151  1.5000000000000E+00 -8.4961794223134E-03  1.2435933922431E-02
   152  1.5100000000000E+00 -5.7113734487688E-03  8.2050610510955E-03
   153  1.5200000000000E+00 -3.4628872821616E-03  4.8985195607652E-03
   154  1.5300000000000E+00 -1.7650781553479E-03  2.4668996574758E-03
   155  1.5400000000000E+00 -6.2533110051443E-04  8.6661769610853E-04
   156  1.5500000000000E+00 -7.6191714828509E-05  1.0508179670606E-04
   157  1.5600000000000E+00  1.0695967177196E-05 -1.4666228760680E-05
   158  1.5700000000000E+00 -3.1888215375306E-06  4.3805130456147E-06
   159  1.58  0.  0.
   160  1.59  0.  0.
   161  1.60  0.  0.
   162  1.61  0.  0.
   163  1.62  0.  0.
   164  1.63  0.  0.
   165  1.64  0.  0.
   166  1.65  0.  0.
   167  1.66  0.  0.
   168  1.67  0.  0.
   169  1.68  0.  0.
   170  1.69  0.  0.
   171  1.70  0.  0.
   172  1.71  0.  0.
   173  1.72  0.  0.
   174  1.73  0.  0.
   175  1.74  0.  0.
   176  1.75  0.  0.
   177  1.76  0.  0.
   178  1.77  0.  0.
   179  1.78  0.  0.
   180  1.79  0.  0.
   181  1.80  0.  0.
   182  1.81  0.  0.
   183  1.82  0.  0.
   184  1.83  0.  0.
   185  1.84  0.  0.
   186  1.85  0.  0.
   187  1.86  0.  0.
   188  1.87  0.  0.
   189  1.88  0.  0.
   190  1.89  0.  0.
   191  1.90  0.  0.
   192  1.91  0.  0.
   193  1.92  0.  0.
   194  1.93  0.  0.
   195  1.94  0.  0.
   196  1.95  0.  0.
   197  1.96  0.  0.
   198  1.97  0.  0.
   199  1.98  0.  0.
   200  1.99  0.  0.
   201  2.00  0.  0.
   202  2.01  0.  0.
   203  2.02  0.  0.
   204  2.03  0.  0.
   205  2.04  0.  0.
   206  2.05  0.  0.
   207  2.06  0.  0.
   208  2.07  0.  0.
   209  2.08  0.  0.
   210  2.09  0.  0.
   211  2.10  0.  0.
   212  2.11  0.  0.
   213  2.12  0.  0.
   214  2.13  0.  0.
   215  2.14  0.  0.
   216  2.15  0.  0.
   217  2.16  0.  0.
   218  2.17  0.  0.
   219  2.18  0.  0.
   220  2.19  0.  0.
   221  2.20  0.  0.
   222  2.21  0.  0.
   223  2.22  0.  0.
   224  2.23  0.  0.
   225  2.24  0.  0.
   226  2.25  0.  0.
   227  2.26  0.  0.
   228  2.27  0.  0.
   229  2.28  0.  0.
   230  2.29  0.  0.
   231  2.30  0.  0.
   232  2.31  0.  0.
   233  2.32  0.  0.
   234  2.33  0.  0.
   235  2.34  0.  0.
   236  2.35  0.  0.
   237  2.36  0.  0.
   238  2.37  0.  0.
   239  2.38  0.  0.
   240  2.39  0.  0.
   241  2.40  0.  0.
   242  2.41  0.  0.
   243  2.42  0.  0.
   244  2.43  0.  0.
   245  2.44  0.  0.
   246  2.45  0.  0.
   247  2.46  0.  0.
   248  2.47  0.  0.
   249  2.48  0.  0.
   250  2.49  0.  0.
   251  2.50  0.  0.
   252  2.51  0.  0.
   253  2.52  0.  0.
   254  2.53  0.  0.
   255  2.54  0.  0.
   256  2.55  0.  0.
   257  2.56  0.  0.
   258  2.57  0.  0.
   259  2.58  0.  0.
   260  2.59  0.  0.
   261  2.60  0.  0.
   262  2.61  0.  0.
   263  2.62  0.  0.
   264  2.63  0.  0.
   265  2.64  0.  0.
   266  2.65  0.  0.
   267  2.66  0.  0.
   268  2.67  0.  0.
   269  2.68  0.  0.
   270  2.69  0.  0.
   271  2.70  0.  0.
   272  2.71  0.  0.
   273  2.72  0.  0.
   274  2.73  0.  0.
   275  2.74  0.  0.
   276  2.75  0.  0.
   277  2.76  0.  0.
   278  2.77  0.  0.
   279  2.78  0.  0.
   280  2.79  0.  0.
   281  2.80  0.  0.
   282  2.81  0.  0.
   283  2.82  0.  0.
   284  2.83  0.  0.
   285  2.84  0.  0.
   286  2.85  0.  0.
   287  2.86  0.  0.
   288  2.87  0.  0.
   289  2.88  0.  0.
   290  2.89  0.  0.
   291  2.90  0.  0.
   292  2.91  0.  0.
   293  2.92  0.  0.
   294  2.93  0.  0.
   295  2.94  0.  0.
   296  2.95  0.  0.
   297  2.96  0.  0.
   298  2.97  0.  0.
   299  2.98  0.  0.
   300  2.99  0.  0.
   301  3.00  0.  0.
   302  3.01  0.  0.
   303  3.02  0.  0.
   304  3.03  0.  0.
   305  3.04  0.  0.
   306  3.05  0.  0.
   307  3.06  0.  0.
   308  3.07  0.  0.
   309  3.08  0.  0.
   310  3.09  0.  0.
   311  3.10  0.  0.
   312  3.11  0.  0.
   313  3.12  0.  0.
   314  3.13  0.  0.
   315  3.14  0.  0.
   316  3.15  0.  0.
   317  3.16  0.  0.
   318  3.17  0.  0.
   319  3.18  0.  0.
   320  3.19  0.  0.
   321  3.20  0.  0.
   322  3.21  0.  0.
   323  3.22  0.  0.
   324  3.23  0.  0.
   325  3.24  0.  0.
   326  3.25  0.  0.
   327  3.26  0.  0.
   328  3.27  0.  0.
   329  3.28  0.  0.
   330  3.29  0.  0.
   331  3.30  0.  0.
   332  3.31  0.  0.
   333  3.32  0.  0.
   334  3.33  0.  0.
   335  3.34  0.  0.
   336  3.35  0.  0.
   337  3.36  0.  0.
   338  3.37  0.  0.
   339  3.38  0.  0.
   340  3.39  0.  0.
   341  3.40  0.  0.
   342  3.41  0.  0.
   343  3.42  0.  0.
   344  3.43  0.  0.
   345  3.44  0.  0.
   346  3.45  0.  0.
   347  3.46  0.  0.
   348  3.47  0.  0.
   349  3.48  0.  0.
   350  3.49  0.  0.
   351  3.50  0.  0.
   352  3.51  0.  0.
   353  3.52  0.  0.
   354  3.53  0.  0.
   355  3.54  0.  0.
   356  3.55  0.  0.
   357  3.56  0.  0.
   358  3.57  0.  0.
   359  3.58  0.  0.
   360  3.59  0.  0.
   361  3.60  0.  0.
   362  3.61  0.  0.
   363  3.62  0.  0.
   364  3.63  0.  0.
   365  3.64  0.  0.
   366  3.65  0.  0.
   367  3.66  0.  0.
   368  3.67  0.  0.
   369  3.68  0.  0.
   370  3.69  0.  0.
   371  3.70  0.  0.
   372  3.71  0.  0.
   373  3.72  0.  0.
   374  3.73  0.  0.
   375  3.74  0.  0.
   376  3.75  0.  0.
   377  3.76  0.  0.
   378  3.77  0.  0.
   379  3.78  0.  0.
   380  3.79  0.  0.
   381  3.80  0.  0.
   382  3.81  0.  0.
   383  3.82  0.  0.
   384  3.83  0.  0.
   385  3.84  0.  0.
   386  3.85  0.  0.
   387  3.86  0.  0.
   388  3.87  0.  0.
   389  3.88  0.  0.
   390  3.89  0.  0.
   391  3.90  0.  0.
   392  3.91  0.  0.
   393  3.92  0.  0.
   394  3.93  0.  0.
   395  3.94  0.  0.
   396  3.95  0.  0.
   397  3.96  0.  0.
   398  3.97  0.  0.
   399  3.98  0.  0.
   400  3.99  0.  0.
   401  4.00  0.  0.
   402  4.01  0.  0.
   403  4.02  0.  0.
   404  4.03  0.  0.
   405  4.04  0.  0.
   406  4.05  0.  0.
   407  4.06  0.  0.
   408  4.07  0.  0.
   409  4.08  0.  0.
   410  4.09  0.  0.
   411  4.10  0.  0.
   412  4.11  0.  0.
   413  4.12  0.  0.
   414  4.13  0.  0.
   415  4.14  0.  0.
   416  4.15  0.  0.
   417  4.16  0.  0.
   418  4.17  0.  0.
   419  4.18  0.  0.
   420  4.19  0.  0.
   421  4.20  0.  0.
   422  4.21  0.  0.
   423  4.22  0.  0.
   424  4.23  0.  0.
   425  4.24  0.  0.
   426  4.25  0.  0.
   427  4.26  0.  0.
   428  4.27  0.  0.
   429  4.28  0.  0.
   430  4.29  0.  0.
   431  4.30  0.  0.
   432  4.31  0.  0.
   433  4.32  0.  0.
   434  4.33  0.  0.
   435  4.34  0.  0.
   436  4.35  0.  0.
   437  4.36  0.  0.
   438  4.37  0.  0.
   439  4.38  0.  0.
   440  4.39  0.  0.
   441  4.40  0.  0.
   442  4.41  0.  0.
   443  4.42  0.  0.
   444  4.43  0.  0.
   445  4.44  0.  0.
   446  4.45  0.  0.
   447  4.46  0.  0.
   448  4.47  0.  0.
   449  4.48  0.  0.
   450  4.49  0.  0.
   451  4.50  0.  0.
   452  4.51  0.  0.
   453  4.52  0.  0.
   454  4.53  0.  0.
   455  4.54  0.  0.
   456  4.55  0.  0.
   457  4.56  0.  0.
   458  4.57  0.  0.
   459  4.58  0.  0.
   460  4.59  0.  0.
   461  4.60  0.  0.
   462  4.61  0.  0.
   463  4.62  0.  0.
   464  4.63  0.  0.
   465  4.64  0.  0.
   466  4.65  0.  0.
   467  4.66  0.  0.
   468  4.67  0.  0.
   469  4.68  0.  0.
   470  4.69  0.  0.
   471  4.70  0.  0.
   472  4.71  0.  0.
   473  4.72  0.  0.
   474  4.73  0.  0.
   475  4.74  0.  0.
   476  4.75  0.  0.
   477  4.76  0.  0.
   478  4.77  0.  0.
   479  4.78  0.  0.
   480  4.79  0.  0.
   481  4.80  0.  0.
   482  4.81  0.  0.
   483  4.82  0.  0.
   484  4.83  0.  0.
   485  4.84  0.  0.
   486  4.85  0.  0.
   487  4.86  0.  0.
   488  4.87  0.  0.
   489  4.88  0.  0.
   490  4.89  0.  0.
   491  4.90  0.  0.
   492  4.91  0.  0.
   493  4.92  0.  0.
   494  4.93  0.  0.
   495  4.94  0.  0.
   496  4.95  0.  0.
   497  4.96  0.  0.
   498  4.97  0.  0.
   499  4.98  0.  0.
   500  4.99  0.  0.
   501  5.00  0.  0.
   502  5.01  0.  0.
   503  5.02  0.  0.
   504  5.03  0.  0.
   505  5.04  0.  0.
   506  5.05  0.  0.
   507  5.06  0.  0.
   508  5.07  0.  0.
   509  5.08  0.  0.
   510  5.09  0.  0.
   511  5.10  0.  0.
   512  5.11  0.  0.
   513  5.12  0.  0.
   514  5.13  0.  0.
   515  5.14  0.  0.
   516  5.15  0.  0.
   517  5.16  0.  0.
   518  5.17  0.  0.
   519  5.18  0.  0.
   520  5.19  0.  0.
   521  5.20  0.  0.
   522  5.21  0.  0.
   523  5.22  0.  0.
   524  5.23  0.  0.
   525  5.24  0.  0.
   526  5.25  0.  0.
   527  5.26  0.  0.
   528  5.27  0.  0.
   529  5.28  0.  0.
   530  5.29  0.  0.
   531  5.30  0.  0.
   532  5.31  0.  0.
   533  5.32  0.  0.
   534  5.33  0.  0.
   535  5.34  0.  0.
   536  5.35  0.  0.
   537  5.36  0.  0.
   538  5.37  0.  0.
   539  5.38  0.  0.
   540  5.39  0.  0.
   541  5.40  0.  0.
   542  5.41  0.  0.
   543  5.42  0.  0.
   544  5.43  0.  0.
   545  5.44  0.  0.
   546  5.45  0.  0.
   547  5.46  0.  0.
   548  5.47  0.  0.
   549  5.48  0.  0.
   550  5.49  0.  0.
   551  5.50  0.  0.
   552  5.51  0.  0.
   553  5.52  0.  0.
   554  5.53  0.  0.
   555  5.54  0.  0.
   556  5.55  0.  0.
   557  5.56  0.  0.
   558  5.57  0.  0.
   559  5.58  0.  0.
   560  5.59  0.  0.
   561  5.60  0.  0.
   562  5.61  0.  0.
   563  5.62  0.  0.
   564  5.63  0.  0.
   565  5.64  0.  0.
   566  5.65  0.  0.
   567  5.66  0.  0.
   568  5.67  0.  0.
   569  5.68  0.  0.
   570  5.69  0.  0.
   571  5.70  0.  0.
   572  5.71  0.  0.
   573  5.72  0.  0.
   574  5.73  0.  0.
   575  5.74  0.  0.
   576  5.75  0.  0.
   577  5.76  0.  0.
   578  5.77  0.  0.
   579  5.78  0.  0.
   580  5.79  0.  0.
   581  5.80  0.  0.
   582  5.81  0.  0.
   583  5.82  0.  0.
   584  5.83  0.  0.
   585  5.84  0.  0.
   586  5.85  0.  0.
   587  5.86  0.  0.
   588  5.87  0.  0.
   589  5.88  0.  0.
   590  5.89  0.  0.
   591  5.90  0.  0.
   592  5.91  0.  0.
   593  5.92  0.  0.
   594  5.93  0.  0.
   595  5.94  0.  0.
   596  5.95  0.  0.
   597  5.96  0.  0.
   598  5.97  0.  0.
   599  5.98  0.  0.
   600  5.99  0.  0.
   1                         3.5603539251137E+00  8.6094048392338E-01
     1  0.0000000000000E+00  9.1535332313875E-08 -1.7928940113099E-07
     2  1.0000000000000E-02  2.7024685951729E-03 -3.2710415690187E-03
     3  2.0000000000000E-02  1.0740597541388E-02 -1.2953885792122E-02
     4  3.0000000000000E-02  2.3908597628765E-02 -2.8661674190054E-02
     5  4.0000000000000E-02  4.1870232947807E-02 -4.9762805073625E-02
     6  5.0000000000000E-02  6.4168737779062E-02 -7.5400280912198E-02
     7  6.0000000000000E-02  9.0240301466725E-02 -1.0451801337420E-01
     8  7.0000000000000E-02  1.1943073580765E-01 -1.3589333085650E-01
     9  8.0000000000000E-02  1.5101484795189E-01 -1.6817475402988E-01
    10  9.0000000000000E-02  1.8421796352607E-01 -1.9992395162605E-01
    11  1.0000000000000E-01  2.1823898184728E-01 -2.2966066567181E-01
    12  1.1000000000000E-01  2.5227429946464E-01 -2.5590930611307E-01
    13  1.2000000000000E-01  2.8554191114977E-01 -2.7724586181498E-01
    14  1.3000000000000E-01  3.1730498965378E-01 -2.9234375983697E-01
    15  1.4000000000000E-01  3.4689425732716E-01 -3.0001732818886E-01
    16  1.5000000000000E-01  3.7372849379303E-01 -2.9926157844963E-01
    17  1.6000000000000E-01  3.9733257347837E-01 -2.8928712211012E-01
    18  1.7000000000000E-01  4.1735249363573E-01 -2.6954916571819E-01
    19  1.8000000000000E-01  4.3356693574798E-01 -2.3976969136118E-01
    20  1.9000000000000E-01  4.4589499869099E-01 -1.9995211637818E-01
    21  2.0000000000000E-01  4.5439984815279E-01 -1.5038793438602E-01
    22  2.1000000000000E-01  4.5928814069178E-01 -9.1655063074361E-02
    23  2.2000000000000E-01  4.6090519935336E-01 -2.4607856680108E-02
    24  2.3000000000000E-01  4.5972603770860E-01  4.9641023781918E-02
    25  2.4000000000000E-01  4.5634244722721E-01  1.2974645805162E-01
    26  2.5000000000000E-01  4.5144647578668E-01  2.1416378620461E-01
    27  2.6000000000000E-01  4.4581072970780E-01  3.0118794966111E-01
    28  2.7000000000000E-01  4.4026602506211E-01  3.8899782017408E-01
    29  2.8000000000000E-01  4.3567699347926E-01  4.7570452777442E-01
    30  2.9000000000000E-01  4.3291631101085E-01  5.5940247479735E-01
    31  3.0000000000000E-01  4.3283826393263E-01  6.3822163460682E-01
    32  3.1000000000000E-01  4.3625239131308E-01  7.1037968316105E-01
    33  3.2000000000000E-01  4.4389794989044E-01  7.7423250079077E-01
    34  3.3000000000000E-01  4.5641993197046E-01  8.2832161109222E-01
    35  3.4000000000000E-01  4.7434733192951E-01  8.7141719317772E-01
    36  3.5000000000000E-01  4.9807430228101E-01  9.0255541110116E-01
    37  3.6000000000000E-01  5.2784476747006E-01  9.2106894745815E-01
    38  3.7000000000000E-01  5.6374097443666E-01  9.2660980334056E-01
    39  3.8000000000000E-01  6.0567635582430E-01  9.1916362949693E-01
    40  3.9000000000000E-01  6.5339296719509E-01  8.9905507843078E-01
    41  4.0000000000000E-01  7.0646363676303E-01  8.6694390833143E-01
    42  4.1000000000000E-01  7.6429883823656E-01  8.2381182076414E-01
    43  4.2000000000000E-01  8.2615816780083E-01  7.7094026821625E-01
    44  4.3000000000000E-01  8.9116617856722E-01  7.0987971803280E-01
    45  4.4000000000000E-01  9.5833220345268E-01  6.4241109915167E-01
    46  4.5000000000000E-01  1.0265736837884E+00  5.7050038076377E-01
    47  4.6000000000000E-01  1.0947424191538E+00  4.9624743138532E-01
    48  4.7000000000000E-01  1.1616530668551E+00  4.2183047721541E-01
    49  4.8000000000000E-01  1.2261131496128E+00  3.4944761517640E-01
    50  4.9000000000000E-01  1.2869537794433E+00  2.8125693467191E-01
    51  5.0000000000000E-01  1.3430602759742E+00  2.1931685980735E-01
    52  5.1000000000000E-01  1.3934018495303E+00  1.6552833862933E-01
    53  5.2000000000000E-01  1.4370595337038E+00  1.2158047701309E-01
    54  5.3000000000000E-01  1.4732515886186E+00  8.8901142485878E-02
    55  5.4000000000000E-01  1.5013556539729E+00  6.8613949006863E-02
    56  5.5000000000000E-01  1.5209270088523E+00  6.1502880154539E-02
    57  5.6000000000000E-01  1.5317123913937E+00  6.7985618998103E-02
    58  5.7000000000000E-01  1.5336589432488E+00  8.8096432832603E-02
    59  5.8000000000000E-01  1.5269179686423E+00  1.2147921549169E-01
    60  5.9000000000000E-01  1.5118433324377E+00  1.6739102539700E-01
    61  6.0000000000000E-01  1.4889844625378E+00  2.2471618071028E-01
    62  6.1000000000000E-01  1.4590740654699E+00  2.9199069116382E-01
    63  6.2000000000000E-01  1.4230108063491E+00  3.6743652680482E-01
    64  6.3000000000000E-01  1.3818373417805E+00  4.4900495444798E-01
    65  6.4000000000000E-01  1.3367142229604E+00  5.3442792035621E-01
    66  6.5000000000000E-01  1.2888903027552E+00  6.2127622943772E-01
    67  6.6000000000000E-01  1.2396703816583E+00  7.0702307337599E-01
    68  6.7000000000000E-01  1.1903809104180E+00  7.8911129815660E-01
    69  6.8000000000000E-01  1.1423346293913E+00  8.6502268011325E-01
    70  6.9000000000000E-01  1.0967950644573E+00  9.3234740252111E-01
    71  7.0000000000000E-01  1.0549418153183E+00  9.8885189444647E-01
    72  7.1000000000000E-01  1.0178375635568E+00  1.0325432113270E+00
    73  7.2000000000000E-01  9.8639769485662E-01  1.0617282026622E+00
    74  7.3000000000000E-01  9.6136337294119E-01  1.0750658250441E+00
    75  7.4000000000000E-01  9.4327882327721E-01  1.0716111160755E+00
    76  7.5000000000000E-01  9.3247348426322E-01  1.0508495428985E+00
    77  7.6000000000000E-01  9.2904956489787E-01  1.0127206733116E+00
    78  7.7000000000000E-01  9.3287541370489E-01  9.5763038204581E-01
    79  7.8000000000000E-01  9.4358495732500E-01  8.8645109312839E-01
    80  7.9000000000000E-01  9.6058331237071E-01  8.0050986408869E-01
    81  8.0000000000000E-01  9.8305851483007E-01  7.0156443127481E-01
    82  8.1000000000000E-01  1.0099991516019E+00  5.9176764968598E-01
    83  8.2000000000000E-01  1.0402175228061E+00  4.7362106729918E-01
    84  8.3000000000000E-01  1.0723778154320E+00  3.4991866483228E-01
    85  8.4000000000000E-01  1.1050286325965E+00  2.2368205951272E-01
    86  8.5000000000000E-01  1.1366391018331E+00  9.8088708536936E-02
    87  8.6000000000000E-01  1.1656376837189E+00 -2.3605151964948E-02
    88  8.7000000000000E-01  1.1904527215977E+00 -1.3814493904369E-01
    89  8.8000000000000E-01  1.2095537164669E+00 -2.4235952214713E-01
    90  8.9000000000000E-01  1.2214922799688E+00 -3.3324232525959E-01
    91  9.0000000000000E-01  1.2249417139077E+00 -4.0802965999063E-01
    92  9.1000000000000E-01  1.2187341871753E+00 -4.6427426296413E-01
    93  9.2000000000000E-01  1.2018945300837E+00 -4.9991210863721E-01
    94  9.3000000000000E-01  1.1736697408590E+00 -5.1332071689452E-01
    95  9.4000000000000E-01  1.1335533977495E+00 -5.0336737006990E-01
    96  9.5000000000000E-01  1.0813042905433E+00 -4.6944589187966E-01
    97  9.6000000000000E-01  1.0169587243397E+00 -4.1150091534081E-01
    98  9.7000000000000E-01  9.4083610281535E-01 -3.3003887143605E-01
    99  9.8000000000000E-01  8.5353756412447E-01 -2.2612525752841E-01
   100  9.9000000000000E-01  7.5593761582174E-01 -1.0136808610722E-01
   101  1.0000000000000E+00  6.4916889139843E-01  4.2112238272080E-02
   102  1.0100000000000E+00  5.3460032575325E-01  2.0172602174204E-01
   103  1.0200000000000E+00  4.1380921569586E-01  3.7446943905590E-01
   104  1.0300000000000E+00  2.8854778995553E-01  5.5699051038793E-01
   105  1.0400000000000E+00  1.6070505712132E-01  7.4566437740788E-01
   106  1.0500000000000E+00  3.2264825749542E-02  9.3667611159399E-01
   107  1.0600000000000E+00 -9.4739105058046E-02  1.1261090832204E+00
   108  1.0700000000000E+00 -2.1826950642458E-01  1.3100367626524E+00
   109  1.0800000000000E+00 -3.3633290045125E-01  1.4846157214221E+00
   110  1.0900000000000E+00 -4.4702620444144E-01  1.6461775516743E+00
   111  1.1000000000000E+00 -5.4858168593823E-01  1.7913174308524E+00
   112  1.1100000000000E+00 -6.3940910866766E-01  1.9169771237112E+00
   113  1.1200000000000E+00 -7.1813401081356E-01  2.0205203352738E+00
   114  1.1300000000000E+00 -7.8363114509295E-01  2.0997985024890E+00
   115  1.1400000000000E+00 -8.3505222341618E-01  2.1532053362441E+00
   116  1.1500000000000E+00 -8.7184724401336E-01  2.1797186921705E+00
   117  1.1600000000000E+00 -8.9377883344828E-01  2.1789286537137E+00
   118  1.1700000000000E+00 -9.0092920484216E-01  2.1510510442224E+00
   119  1.1800000000000E+00 -8.9369951449904E-01  2.0969259416085E+00
   120  1.1900000000000E+00 -8.7280158494183E-01  2.0180011356149E+00
   121  1.2000000000000E+00 -8.3924215172561E-01  1.9163008411182E+00
   122  1.2100000000000E+00 -7.9429997581318E-01  1.7943803444870E+00
   123  1.2200000000000E+00 -7.3949634167289E-01  1.6552676116306E+00
   124  1.2300000000000E+00 -6.7655962642401E-01  1.5023932118953E+00
   125  1.2400000000000E+00 -6.0738477422741E-01  1.3395102053187E+00
   126  1.2500000000000E+00 -5.3398863936954E-01  1.1706058953836E+00
   127  1.2600000000000E+00 -4.5846226626394E-01  9.9980755576438E-01
   128  1.2700000000000E+00 -3.8292124444962E-01  8.3128438339905E-01
   129  1.2800000000000E+00 -3.0945541285714E-01  6.6914814138762E-01
   130  1.2900000000000E+00 -2.4007761576635E-01  5.1735293609953E-01