Hg    ONCVPSP-4.0.1  r_core=   1.60279   1.60279   1.45649   1.60279
     80.0000     20.0000      250925    zatom,zion,pspd
     8   -1012   3     4   600     0    pspcod,pspxc,lmax,lloc,mmax,r2well
  5.99000000  5.00000000  0.00000000    rchrg fchrg qchrg
     2     3     3     1    nproj
     3     1           extension_switch
     4     4     2    nprojso
   0                         1.4344285484136E+01  1.9352614801085E+00
     1  0.0000000000000E+00  1.2400289683967E-09 -2.1930144401827E-09
     2  1.0000000000000E-02  6.9665166391987E-02  2.9667720986670E-03
     3  2.0000000000000E-02  1.3923182626481E-01  5.8967228686296E-03
     4  3.0000000000000E-02  2.0860071319197E-01  8.7547590995604E-03
     5  4.0000000000000E-02  2.7767105958031E-01  1.1509210399914E-02
     6  5.0000000000000E-02  3.4633989238368E-01  1.4133457633023E-02
     7  6.0000000000000E-02  4.1450138347330E-01  1.6607463376280E-02
     8  7.0000000000000E-02  4.8204627140061E-01  1.8919174368132E-02
     9  8.0000000000000E-02  5.4886137004782E-01  2.1065768100575E-02
    10  9.0000000000000E-02  6.1482917815060E-01  2.3054718387520E-02
    11  1.0000000000000E-01  6.7982760191870E-01  2.4904657847364E-02
    12  1.1000000000000E-01  7.4372980100575E-01  2.6646018730096E-02
    13  1.2000000000000E-01  8.0640416591815E-01  2.8321437337464E-02
    14  1.3000000000000E-01  8.6771443264413E-01  2.9985911365633E-02
    15  1.4000000000000E-01  9.2751993786269E-01  3.1706703775949E-02
    16  1.5000000000000E-01  9.8567601560033E-01  3.3562991199305E-02
    17  1.6000000000000E-01  1.0420345336821E+00  3.5645259330350E-02
    18  1.7000000000000E-01  1.0964445658140E+00  3.8054452194400E-02
    19  1.8000000000000E-01  1.1487531926787E+00  4.0900886498959E-02
    20  1.9000000000000E-01  1.1988064230658E+00  4.4302946439623E-02
    21  2.0000000000000E-01  1.2464502238343E+00  4.8385578247516E-02
    22  2.1000000000000E-01  1.2915316454490E+00  5.3278607374989E-02
    23  2.2000000000000E-01  1.3339000279912E+00  5.9114904457205E-02
    24  2.3000000000000E-01  1.3734082709321E+00  6.6028429003509E-02
    25  2.4000000000000E-01  1.4099141486214E+00  7.4152182114966E-02
    26  2.5000000000000E-01  1.4432816523907E+00  8.3616101352288E-02
    27  2.6000000000000E-01  1.4733823394296E+00  9.4544932158785E-02
    28  2.7000000000000E-01  1.5000966681753E+00  1.0705611095130E-01
    29  2.8000000000000E-01  1.5233152998656E+00  1.2125769511458E-01
    30  2.9000000000000E-01  1.5429403461543E+00  1.3724637466595E-01
    31  3.0000000000000E-01  1.5588865432645E+00  1.5510559930215E-01
    32  3.1000000000000E-01  1.5710823340567E+00  1.7490385291357E-01
    33  3.2000000000000E-01  1.5794708406023E+00  1.9669310547785E-01
    34  3.3000000000000E-01  1.5840107113589E+00  2.2050746955636E-01
    35  3.4000000000000E-01  1.5846768288136E+00  2.4636208545852E-01
    36  3.5000000000000E-01  1.5814608654802E+00  2.7425225555761E-01
    37  3.6000000000000E-01  1.5743716783554E+00  3.0415284429771E-01
    38  3.7000000000000E-01  1.5634355343379E+00  3.3601795618708E-01
    39  3.8000000000000E-01  1.5486961616445E+00  3.6978089959902E-01
    40  3.9000000000000E-01  1.5302146248807E+00  4.0535443957040E-01
    41  4.0000000000000E-01  1.5080690240995E+00  4.4263133807737E-01
    42  4.1000000000000E-01  1.4823540208586E+00  4.8148517555639E-01
    43  4.2000000000000E-01  1.4531801969336E+00  5.2177144280494E-01
    44  4.3000000000000E-01  1.4206732538987E+00  5.6332888791968E-01
    45  4.4000000000000E-01  1.3849730642250E+00  6.0598109868610E-01
    46  4.5000000000000E-01  1.3462325868129E+00  6.4953829689517E-01
    47  4.6000000000000E-01  1.3046166619380E+00  6.9379931749981E-01
    48  4.7000000000000E-01  1.2603007024142E+00  7.3855374239651E-01
    49  4.8000000000000E-01  1.2134692993268E+00  7.8358415598410E-01
    50  4.9000000000000E-01  1.1643147619430E+00  8.2866848755740E-01
    51  5.0000000000000E-01  1.1130356123361E+00  8.7358240408017E-01
    52  5.1000000000000E-01  1.0598350558535E+00  9.1810171597589E-01
    53  5.2000000000000E-01  1.0049194487997E+00  9.6200475829948E-01
    54  5.3000000000000E-01  9.4849678459524E-01  1.0050747100136E+00
    55  5.4000000000000E-01  8.9077521920188E-01  1.0471018150904E+00
    56  5.5000000000000E-01  8.3196165578895E-01  1.0878854707818E+00
    57  5.6000000000000E-01  7.7226040746236E-01  1.1272361506195E+00
    58  5.7000000000000E-01  7.1187195540590E-01  1.1649771324967E+00
    59  5.8000000000000E-01  6.5099181801855E-01  1.2009460054920E+00
    60  5.9000000000000E-01  5.8980954459903E-01  1.2349959328794E+00
    61  6.0000000000000E-01  5.2850784486512E-01  1.2669966529541E+00
    62  6.1000000000000E-01  4.6726186313664E-01  1.2968352038402E+00
    63  6.2000000000000E-01  4.0623860340007E-01  1.3244163632338E+00
    64  6.3000000000000E-01  3.4559650875329E-01  1.3496627990197E+00
    65  6.4000000000000E-01  2.8548519594822E-01  1.3725149317744E+00
    66  6.5000000000000E-01  2.2604534295505E-01  1.3929305152579E+00
    67  6.6000000000000E-01  1.6740872471292E-01  1.4108839460155E+00
    68  6.7000000000000E-01  1.0969838955718E-01  1.4263653180555E+00
    69  6.8000000000000E-01  5.3028966270856E-02  1.4393792431738E+00
    70  6.9000000000000E-01 -2.4929106576987E-03  1.4499434617644E+00
    71  7.0000000000000E-01 -5.6768072133811E-02  1.4580872728126E+00
    72  7.1000000000000E-01 -1.0970419835899E-01  1.4638498151459E+00
    73  7.2000000000000E-01 -1.6121513357254E-01  1.4672782348516E+00
    74  7.3000000000000E-01 -2.1122015092934E-01  1.4684257759983E+00
    75  7.4000000000000E-01 -2.5964318772029E-01  1.4673498333886E+00
    76  7.5000000000000E-01 -3.0641207168007E-01  1.4641100069709E+00
    77  7.6000000000000E-01 -3.5145775927890E-01  1.4587661977418E+00
    78  7.7000000000000E-01 -3.9471360665698E-01  1.4513767844517E+00
    79  7.8000000000000E-01 -4.3611469322918E-01  1.4419969191970E+00
    80  7.9000000000000E-01 -4.7559721697277E-01  1.4306769780467E+00
    81  8.0000000000000E-01 -5.1309797902510E-01  1.4174612002398E+00
    82  8.1000000000000E-01 -5.4855397348163E-01  1.4023865462393E+00
    83  8.2000000000000E-01 -5.8190209622527E-01  1.3854818010856E+00
    84  8.3000000000000E-01 -6.1307898426672E-01  1.3667669451188E+00
    85  8.4000000000000E-01 -6.4202099447340E-01  1.3462528093029E+00
    86  8.5000000000000E-01 -6.6866432775197E-01  1.3239410271694E+00
    87  8.6000000000000E-01 -6.9294530177614E-01  1.2998242898807E+00
    88  8.7000000000000E-01 -7.1480077226789E-01  1.2738869051963E+00
    89  8.8000000000000E-01 -7.3416869969889E-01  1.2461056552988E+00
    90  8.9000000000000E-01 -7.5098885513741E-01  1.2164509426069E+00
    91  9.0000000000000E-01 -7.6520365587838E-01  1.1848882069658E+00
    92  9.1000000000000E-01 -7.7675911851818E-01  1.1513795920690E+00
    93  9.2000000000000E-01 -7.8560591432539E-01  1.1158858337262E+00
    94  9.3000000000000E-01 -7.9170050916707E-01  1.0783683377459E+00
    95  9.4000000000000E-01 -7.9500636792778E-01  1.0387914108404E+00
    96  9.5000000000000E-01 -7.9549520134988E-01  9.9712460416731E-01
    97  9.6000000000000E-01 -7.9314823157237E-01  9.5334512597528E-01
    98  9.7000000000000E-01 -7.8795745138408E-01  9.0744027737640E-01
    99  9.8000000000000E-01 -7.7992685136788E-01  8.5940986359314E-01
   100  9.9000000000000E-01 -7.6907358871703E-01  8.0926853215212E-01
   101  1.0000000000000E+00 -7.5542907156679E-01  7.5704798945521E-01
   102  1.0100000000000E+00 -7.3903993321480E-01  7.0279904796526E-01
   103  1.0200000000000E+00 -7.1996887159948E-01  6.4659345789745E-01
   104  1.0300000000000E+00 -6.9829533085895E-01  5.8852547979443E-01
   105  1.0400000000000E+00 -6.7411600368864E-01  5.2871315765611E-01
   106  1.0500000000000E+00 -6.4754513553040E-01  4.6729925635404E-01
   107  1.0600000000000E+00 -6.1871461432196E-01  4.0445183181766E-01
   108  1.0700000000000E+00 -5.8777383258535E-01  3.4036440788605E-01
   109  1.0800000000000E+00 -5.5488931198066E-01  2.7525573967587E-01
   110  1.0900000000000E+00 -5.2024408404809E-01  2.0936914973450E-01
   111  1.1000000000000E+00 -4.8403682466372E-01  1.4297143005162E-01
   112  1.1100000000000E+00 -4.4648074365244E-01  7.6351310029215E-02
   113  1.1200000000000E+00 -4.0780223501618E-01  9.8174977268979E-03
   114  1.1300000000000E+00 -3.6823929722728E-01 -5.6303691109742E-02
   115  1.1400000000000E+00 -3.2803973699678E-01 -1.2167109457977E-01
   116  1.1500000000000E+00 -2.8745917373044E-01 -1.8593182817553E-01
   117  1.1600000000000E+00 -2.4675886552430E-01 -2.4872473520357E-01
   118  1.1700000000000E+00 -2.0620338090369E-01 -3.0968412282907E-01
   119  1.1800000000000E+00 -1.6605814357557E-01 -3.6844373689018E-01
   120  1.1900000000000E+00 -1.2658688012874E-01 -4.2464092373280E-01
   121  1.2000000000000E+00 -8.8049002883881E-02 -4.7792092311961E-01
   122  1.2100000000000E+00 -5.0696961877499E-02 -5.2794123293079E-01
   123  1.2200000000000E+00 -1.4773601254694E-02 -5.7437598390939E-01
   124  1.2300000000000E+00  1.9490443901716E-02 -6.1692026119538E-01
   125  1.2400000000000E+00  5.1879274074619E-02 -6.5529430886276E-01
   126  1.2500000000000E+00  8.2194139282264E-02 -6.8924755415577E-01
   127  1.2600000000000E+00  1.1025570557783E-01 -7.1856238961253E-01
   128  1.2700000000000E+00  1.3590614062947E-01 -7.4305765375161E-01
   129  1.2800000000000E+00  1.5901098697522E-01 -7.6259175448091E-01
   130  1.2900000000000E+00  1.7946079409899E-01 -7.7706538378268E-01
   131  1.3000000000000E+00  1.9717248351348E-01 -7.8642377749987E-01
   132  1.3100000000000E+00  2.1209042453382E-01 -7.9065848014256E-01
   133  1.3200000000000E+00  2.2418720230938E-01 -7.8980858142336E-01
   134  1.3300000000000E+00  2.3346406388736E-01 -7.8396139860529E-01
   135  1.3400000000000E+00  2.3995103260891E-01 -7.7325258669890E-01
   136  1.3500000000000E+00  2.4370668583051E-01 -7.5786566680545E-01
   137  1.3600000000000E+00  2.4481759581860E-01 -7.3803097146146E-01
   138  1.3700000000000E+00  2.4339743856622E-01 -7.1402401449207E-01
   139  1.3800000000000E+00  2.3958578019782E-01 -6.8616330157097E-01
   140  1.3900000000000E+00  2.3354655542092E-01 -6.5480760616479E-01
   141  1.4000000000000E+00  2.2546625714259E-01 -6.2035274379120E-01
   142  1.4100000000000E+00  2.1555186075529E-01 -5.8322788529699E-01
   143  1.4200000000000E+00  2.0402851071961E-01 -5.4389145717906E-01
   144  1.4300000000000E+00  1.9113700077705E-01 -5.0282668355321E-01
   145  1.4400000000000E+00  1.7713108317292E-01 -4.6053683170102E-01
   146  1.4500000000000E+00  1.6227463137619E-01 -4.1754020134694E-01
   147  1.4600000000000E+00  1.4683877224366E-01 -3.7436507649304E-01
   148  1.4700000000000E+00  1.3109776151353E-01 -3.3154223163775E-01
   149  1.4800000000000E+00  1.1532179180978E-01 -2.8959149241615E-01
   150  1.4900000000000E+00  9.9771621358162E-02 -2.4901195549919E-01
   151  1.5000000000000E+00  8.4695471499943E-02 -2.1027666004733E-01
   152  1.5100000000000E+00  7.0325982583091E-02 -1.7382734350914E-01
   153  1.5200000000000E+00  5.6877437424255E-02 -1.4006967588179E-01
   154  1.5300000000000E+00  4.4536737971851E-02 -1.0935709668717E-01
   155  1.5400000000000E+00  3.3462217889711E-02 -8.1988593843057E-02
   156  1.5500000000000E+00  2.3806580949489E-02 -5.8250859336250E-02
   157  1.5600000000000E+00  1.5693752359933E-02 -3.8376860270557E-02
   158  1.5700000000000E+00  9.2172772969800E-03 -2.2542967551803E-02
   159  1.5800000000000E+00  4.4408958733483E-03 -1.0871163138741E-02
   160  1.5900000000000E+00  1.3793483389519E-03 -3.3821712679973E-03
   161  1.6000000000000E+00  1.0102398739411E-04 -2.4836996126561E-04
   162  1.6100000000000E+00 -2.0132032348988E-05  4.9543971668762E-05
   163  1.6200000000000E+00  6.3961099547295E-06 -1.5717112332517E-05
   164  1.63  0.  0.
   165  1.64  0.  0.
   166  1.65  0.  0.
   167  1.66  0.  0.
   168  1.67  0.  0.
   169  1.68  0.  0.
   170  1.69  0.  0.
   171  1.70  0.  0.
   172  1.71  0.  0.
   173  1.72  0.  0.
   174  1.73  0.  0.
   175  1.74  0.  0.
   176  1.75  0.  0.
   177  1.76  0.  0.
   178  1.77  0.  0.
   179  1.78  0.  0.
   180  1.79  0.  0.
   181  1.80  0.  0.
   182  1.81  0.  0.
   183  1.82  0.  0.
   184  1.83  0.  0.
   185  1.84  0.  0.
   186  1.85  0.  0.
   187  1.86  0.  0.
   188  1.87  0.  0.
   189  1.88  0.  0.
   190  1.89  0.  0.
   191  1.90  0.  0.
   192  1.91  0.  0.
   193  1.92  0.  0.
   194  1.93  0.  0.
   195  1.94  0.  0.
   196  1.95  0.  0.
   197  1.96  0.  0.
   198  1.97  0.  0.
   199  1.98  0.  0.
   200  1.99  0.  0.
   201  2.00  0.  0.
   202  2.01  0.  0.
   203  2.02  0.  0.
   204  2.03  0.  0.
   205  2.04  0.  0.
   206  2.05  0.  0.
   207  2.06  0.  0.
   208  2.07  0.  0.
   209  2.08  0.  0.
   210  2.09  0.  0.
   211  2.10  0.  0.
   212  2.11  0.  0.
   213  2.12  0.  0.
   214  2.13  0.  0.
   215  2.14  0.  0.
   216  2.15  0.  0.
   217  2.16  0.  0.
   218  2.17  0.  0.
   219  2.18  0.  0.
   220  2.19  0.  0.
   221  2.20  0.  0.
   222  2.21  0.  0.
   223  2.22  0.  0.
   224  2.23  0.  0.
   225  2.24  0.  0.
   226  2.25  0.  0.
   227  2.26  0.  0.
   228  2.27  0.  0.
   229  2.28  0.  0.
   230  2.29  0.  0.
   231  2.30  0.  0.
   232  2.31  0.  0.
   233  2.32  0.  0.
   234  2.33  0.  0.
   235  2.34  0.  0.
   236  2.35  0.  0.
   237  2.36  0.  0.
   238  2.37  0.  0.
   239  2.38  0.  0.
   240  2.39  0.  0.
   241  2.40  0.  0.
   242  2.41  0.  0.
   243  2.42  0.  0.
   244  2.43  0.  0.
   245  2.44  0.  0.
   246  2.45  0.  0.
   247  2.46  0.  0.
   248  2.47  0.  0.
   249  2.48  0.  0.
   250  2.49  0.  0.
   251  2.50  0.  0.
   252  2.51  0.  0.
   253  2.52  0.  0.
   254  2.53  0.  0.
   255  2.54  0.  0.
   256  2.55  0.  0.
   257  2.56  0.  0.
   258  2.57  0.  0.
   259  2.58  0.  0.
   260  2.59  0.  0.
   261  2.60  0.  0.
   262  2.61  0.  0.
   263  2.62  0.  0.
   264  2.63  0.  0.
   265  2.64  0.  0.
   266  2.65  0.  0.
   267  2.66  0.  0.
   268  2.67  0.  0.
   269  2.68  0.  0.
   270  2.69  0.  0.
   271  2.70  0.  0.
   272  2.71  0.  0.
   273  2.72  0.  0.
   274  2.73  0.  0.
   275  2.74  0.  0.
   276  2.75  0.  0.
   277  2.76  0.  0.
   278  2.77  0.  0.
   279  2.78  0.  0.
   280  2.79  0.  0.
   281  2.80  0.  0.
   282  2.81  0.  0.
   283  2.82  0.  0.
   284  2.83  0.  0.
   285  2.84  0.  0.
   286  2.85  0.  0.
   287  2.86  0.  0.
   288  2.87  0.  0.
   289  2.88  0.  0.
   290  2.89  0.  0.
   291  2.90  0.  0.
   292  2.91  0.  0.
   293  2.92  0.  0.
   294  2.93  0.  0.
   295  2.94  0.  0.
   296  2.95  0.  0.
   297  2.96  0.  0.
   298  2.97  0.  0.
   299  2.98  0.  0.
   300  2.99  0.  0.
   301  3.00  0.  0.
   302  3.01  0.  0.
   303  3.02  0.  0.
   304  3.03  0.  0.
   305  3.04  0.  0.
   306  3.05  0.  0.
   307  3.06  0.  0.
   308  3.07  0.  0.
   309  3.08  0.  0.
   310  3.09  0.  0.
   311  3.10  0.  0.
   312  3.11  0.  0.
   313  3.12  0.  0.
   314  3.13  0.  0.
   315  3.14  0.  0.
   316  3.15  0.  0.
   317  3.16  0.  0.
   318  3.17  0.  0.
   319  3.18  0.  0.
   320  3.19  0.  0.
   321  3.20  0.  0.
   322  3.21  0.  0.
   323  3.22  0.  0.
   324  3.23  0.  0.
   325  3.24  0.  0.
   326  3.25  0.  0.
   327  3.26  0.  0.
   328  3.27  0.  0.
   329  3.28  0.  0.
   330  3.29  0.  0.
   331  3.30  0.  0.
   332  3.31  0.  0.
   333  3.32  0.  0.
   334  3.33  0.  0.
   335  3.34  0.  0.
   336  3.35  0.  0.
   337  3.36  0.  0.
   338  3.37  0.  0.
   339  3.38  0.  0.
   340  3.39  0.  0.
   341  3.40  0.  0.
   342  3.41  0.  0.
   343  3.42  0.  0.
   344  3.43  0.  0.
   345  3.44  0.  0.
   346  3.45  0.  0.
   347  3.46  0.  0.
   348  3.47  0.  0.
   349  3.48  0.  0.
   350  3.49  0.  0.
   351  3.50  0.  0.
   352  3.51  0.  0.
   353  3.52  0.  0.
   354  3.53  0.  0.
   355  3.54  0.  0.
   356  3.55  0.  0.
   357  3.56  0.  0.
   358  3.57  0.  0.
   359  3.58  0.  0.
   360  3.59  0.  0.
   361  3.60  0.  0.
   362  3.61  0.  0.
   363  3.62  0.  0.
   364  3.63  0.  0.
   365  3.64  0.  0.
   366  3.65  0.  0.
   367  3.66  0.  0.
   368  3.67  0.  0.
   369  3.68  0.  0.
   370  3.69  0.  0.
   371  3.70  0.  0.
   372  3.71  0.  0.
   373  3.72  0.  0.
   374  3.73  0.  0.
   375  3.74  0.  0.
   376  3.75  0.  0.
   377  3.76  0.  0.
   378  3.77  0.  0.
   379  3.78  0.  0.
   380  3.79  0.  0.
   381  3.80  0.  0.
   382  3.81  0.  0.
   383  3.82  0.  0.
   384  3.83  0.  0.
   385  3.84  0.  0.
   386  3.85  0.  0.
   387  3.86  0.  0.
   388  3.87  0.  0.
   389  3.88  0.  0.
   390  3.89  0.  0.
   391  3.90  0.  0.
   392  3.91  0.  0.
   393  3.92  0.  0.
   394  3.93  0.  0.
   395  3.94  0.  0.
   396  3.95  0.  0.
   397  3.96  0.  0.
   398  3.97  0.  0.
   399  3.98  0.  0.
   400  3.99  0.  0.
   401  4.00  0.  0.
   402  4.01  0.  0.
   403  4.02  0.  0.
   404  4.03  0.  0.
   405  4.04  0.  0.
   406  4.05  0.  0.
   407  4.06  0.  0.
   408  4.07  0.  0.
   409  4.08  0.  0.
   410  4.09  0.  0.
   411  4.10  0.  0.
   412  4.11  0.  0.
   413  4.12  0.  0.
   414  4.13  0.  0.
   415  4.14  0.  0.
   416  4.15  0.  0.
   417  4.16  0.  0.
   418  4.17  0.  0.
   419  4.18  0.  0.
   420  4.19  0.  0.
   421  4.20  0.  0.
   422  4.21  0.  0.
   423  4.22  0.  0.
   424  4.23  0.  0.
   425  4.24  0.  0.
   426  4.25  0.  0.
   427  4.26  0.  0.
   428  4.27  0.  0.
   429  4.28  0.  0.
   430  4.29  0.  0.
   431  4.30  0.  0.
   432  4.31  0.  0.
   433  4.32  0.  0.
   434  4.33  0.  0.
   435  4.34  0.  0.
   436  4.35  0.  0.
   437  4.36  0.  0.
   438  4.37  0.  0.
   439  4.38  0.  0.
   440  4.39  0.  0.
   441  4.40  0.  0.
   442  4.41  0.  0.
   443  4.42  0.  0.
   444  4.43  0.  0.
   445  4.44  0.  0.
   446  4.45  0.  0.
   447  4.46  0.  0.
   448  4.47  0.  0.
   449  4.48  0.  0.
   450  4.49  0.  0.
   451  4.50  0.  0.
   452  4.51  0.  0.
   453  4.52  0.  0.
   454  4.53  0.  0.
   455  4.54  0.  0.
   456  4.55  0.  0.
   457  4.56  0.  0.
   458  4.57  0.  0.
   459  4.58  0.  0.
   460  4.59  0.  0.
   461  4.60  0.  0.
   462  4.61  0.  0.
   463  4.62  0.  0.
   464  4.63  0.  0.
   465  4.64  0.  0.
   466  4.65  0.  0.
   467  4.66  0.  0.
   468  4.67  0.  0.
   469  4.68  0.  0.
   470  4.69  0.  0.
   471  4.70  0.  0.
   472  4.71  0.  0.
   473  4.72  0.  0.
   474  4.73  0.  0.
   475  4.74  0.  0.
   476  4.75  0.  0.
   477  4.76  0.  0.
   478  4.77  0.  0.
   479  4.78  0.  0.
   480  4.79  0.  0.
   481  4.80  0.  0.
   482  4.81  0.  0.
   483  4.82  0.  0.
   484  4.83  0.  0.
   485  4.84  0.  0.
   486  4.85  0.  0.
   487  4.86  0.  0.
   488  4.87  0.  0.
   489  4.88  0.  0.
   490  4.89  0.  0.
   491  4.90  0.  0.
   492  4.91  0.  0.
   493  4.92  0.  0.
   494  4.93  0.  0.
   495  4.94  0.  0.
   496  4.95  0.  0.
   497  4.96  0.  0.
   498  4.97  0.  0.
   499  4.98  0.  0.
   500  4.99  0.  0.
   501  5.00  0.  0.
   502  5.01  0.  0.
   503  5.02  0.  0.
   504  5.03  0.  0.
   505  5.04  0.  0.
   506  5.05  0.  0.
   507  5.06  0.  0.
   508  5.07  0.  0.
   509  5.08  0.  0.
   510  5.09  0.  0.
   511  5.10  0.  0.
   512  5.11  0.  0.
   513  5.12  0.  0.
   514  5.13  0.  0.
   515  5.14  0.  0.
   516  5.15  0.  0.
   517  5.16  0.  0.
   518  5.17  0.  0.
   519  5.18  0.  0.
   520  5.19  0.  0.
   521  5.20  0.  0.
   522  5.21  0.  0.
   523  5.22  0.  0.
   524  5.23  0.  0.
   525  5.24  0.  0.
   526  5.25  0.  0.
   527  5.26  0.  0.
   528  5.27  0.  0.
   529  5.28  0.  0.
   530  5.29  0.  0.
   531  5.30  0.  0.
   532  5.31  0.  0.
   533  5.32  0.  0.
   534  5.33  0.  0.
   535  5.34  0.  0.
   536  5.35  0.  0.
   537  5.36  0.  0.
   538  5.37  0.  0.
   539  5.38  0.  0.
   540  5.39  0.  0.
   541  5.40  0.  0.
   542  5.41  0.  0.
   543  5.42  0.  0.
   544  5.43  0.  0.
   545  5.44  0.  0.
   546  5.45  0.  0.
   547  5.46  0.  0.
   548  5.47  0.  0.
   549  5.48  0.  0.
   550  5.49  0.  0.
   551  5.50  0.  0.
   552  5.51  0.  0.
   553  5.52  0.  0.
   554  5.53  0.  0.
   555  5.54  0.  0.
   556  5.55  0.  0.
   557  5.56  0.  0.
   558  5.57  0.  0.
   559  5.58  0.  0.
   560  5.59  0.  0.
   561  5.60  0.  0.
   562  5.61  0.  0.
   563  5.62  0.  0.
   564  5.63  0.  0.
   565  5.64  0.  0.
   566  5.65  0.  0.
   567  5.66  0.  0.
   568  5.67  0.  0.
   569  5.68  0.  0.
   570  5.69  0.  0.
   571  5.70  0.  0.
   572  5.71  0.  0.
   573  5.72  0.  0.
   574  5.73  0.  0.
   575  5.74  0.  0.
   576  5.75  0.  0.
   577  5.76  0.  0.
   578  5.77  0.  0.
   579  5.78  0.  0.
   580  5.79  0.  0.
   581  5.80  0.  0.
   582  5.81  0.  0.
   583  5.82  0.  0.
   584  5.83  0.  0.
   585  5.84  0.  0.
   586  5.85  0.  0.
   587  5.86  0.  0.
   588  5.87  0.  0.
   589  5.88  0.  0.
   590  5.89  0.  0.
   591  5.90  0.  0.
   592  5.91  0.  0.
   593  5.92  0.  0.
   594  5.93  0.  0.
   595  5.94  0.  0.
   596  5.95  0.  0.
   597  5.96  0.  0.
   598  5.97  0.  0.
   599  5.98  0.  0.
   600  5.99  0.  0.
   1                         5.4835975258614E+00  6.4834659765406E-01 -3.1806487308231E-02
     1  0.0000000000000E+00 -3.7889181653261E-09  9.1666037104615E-09 -1.4530413147001E-08
     2  1.0000000000000E-02  1.4324559325205E-03  1.1963210409688E-04 -3.8278980398079E-04
     3  2.0000000000000E-02  5.7283383549070E-03  4.6989429775478E-04 -1.5138997552292E-03
     4  3.0000000000000E-02  1.2883103381093E-02  1.0251316112066E-03 -3.3419608760120E-03
     5  4.0000000000000E-02  2.2888887592392E-02  1.7434049338396E-03 -5.7827142729928E-03
     6  5.0000000000000E-02  3.5734080487641E-02  2.5677008145885E-03 -8.7210152792288E-03
     7  6.0000000000000E-02  5.1402741471671E-02  3.4275876632389E-03 -1.2013579943080E-02
     8  7.0000000000000E-02  6.9873876552549E-02  4.2412817514531E-03 -1.5492415983245E-02
     9  8.0000000000000E-02  9.1120593706987E-02  4.9180772457306E-03 -1.8968865798727E-02
    10  9.0000000000000E-02  1.1510915926757E-01  5.3610862722430E-03 -2.2238176045463E-02
    11  1.0000000000000E-01  1.4179798061397E-01  5.4702278835330E-03 -2.5084496931886E-02
    12  1.1000000000000E-01  1.7113654284995E-01  5.1453989185536E-03 -2.7286204972047E-02
    13  1.2000000000000E-01  2.0306432896713E-01  4.2897552433708E-03 -2.8621435662536E-02
    14  1.3000000000000E-01  2.3750975419391E-01  2.8130288261678E-03 -2.8873707570155E-02
    15  1.4000000000000E-01  2.7438914577572E-01  6.3480460481630E-04 -2.7837516732902E-02
    16  1.5000000000000E-01  3.1360579931488E-01 -2.3123188150938E-03 -2.5323780154408E-02
    17  1.6000000000000E-01  3.5504914201236E-01 -6.0797589335649E-03 -2.1165009515054E-02
    18  1.7000000000000E-01  3.9859403171064E-01 -1.0700240686874E-02 -1.5220101000305E-02
    19  1.8000000000000E-01  4.4410021856049E-01 -1.6185415707516E-02 -7.3786342705039E-03
    20  1.9000000000000E-01  4.9141199346182E-01 -2.2523869759105E-02  2.4354170663482E-03
    21  2.0000000000000E-01  5.4035804420762E-01 -2.9679571169374E-02  1.4260649738556E-02
    22  2.1000000000000E-01  5.9075153655179E-01 -3.7590804506285E-02  2.8095942912360E-02
    23  2.2000000000000E-01  6.4239043329491E-01 -4.6169624174803E-02  4.3898976403572E-02
    24  2.3000000000000E-01  6.9505806001619E-01 -5.5301852240068E-02  6.1585597240423E-02
    25  2.4000000000000E-01  7.4852392136124E-01 -6.4847633810314E-02  8.1030059797324E-02
    26  2.5000000000000E-01  8.0254476691435E-01 -7.4642551955327E-02  1.0206614706154E-01
    27  2.6000000000000E-01  8.5686590073787E-01 -8.4499292619774E-02  1.2448916264682E-01
    28  2.7000000000000E-01  9.1122272374640E-01 -9.4209838544459E-02  1.4805876528699E-01
    29  2.8000000000000E-01  9.6534249329782E-01 -1.0354816006337E-01  1.7250260008420E-01
    30  2.9000000000000E-01  1.0189462798237E+00 -1.1227336002611E-01  1.9752066410071E-01
    31  3.0000000000000E-01  1.0717510960795E+00 -1.2013322022133E-01  2.2279032830815E-01
    32  3.1000000000000E-01  1.1234721707575E+00 -1.2686808775145E-01  2.4797192376125E-01
    33  3.2000000000000E-01  1.1738253348548E+00 -1.3221503201959E-01  2.7271478743673E-01
    34  3.3000000000000E-01  1.2225294863915E+00 -1.3591219650280E-01  2.9666365273221E-01
    35  3.4000000000000E-01  1.2693090968957E+00 -1.3770326444290E-01  3.1946526137881E-01
    36  3.5000000000000E-01  1.3138967215599E+00 -1.3734195410311E-01  3.4077506766528E-01
    37  3.6000000000000E-01  1.3560354741637E+00 -1.3459645739976E-01  3.6026390253888E-01
    38  3.7000000000000E-01  1.3954814277769E+00 -1.2925373557691E-01  3.7762446442514E-01
    39  3.8000000000000E-01  1.4320059029093E+00 -1.2112358716885E-01  3.9257750553347E-01
    40  3.9000000000000E-01  1.4653976061629E+00 -1.1004240677705E-01  4.0487758697467E-01
    41  4.0000000000000E-01  1.4954645845402E+00 -9.5876558127672E-02  4.1431828314127E-01
    42  4.1000000000000E-01  1.5220359633407E+00 -7.8525291392816E-02  4.2073672537826E-01
    43  4.2000000000000E-01  1.5449634389968E+00 -5.7923142741467E-02  4.2401738683206E-01
    44  4.3000000000000E-01  1.5641225021806E+00 -3.4041763392044E-02  4.2409502429657E-01
    45  4.4000000000000E-01  1.5794133710129E+00 -6.8911358984213E-03  4.2095670862448E-01
    46  4.5000000000000E-01  1.5907616191141E+00  2.3479853179231E-02  4.1464289254237E-01
    47  4.6000000000000E-01  1.5981184884855E+00  5.6983502903481E-02  4.0524748317771E-01
    48  4.7000000000000E-01  1.6014608826882E+00  9.3494055896768E-02  3.9291690591931E-01
    49  4.8000000000000E-01  1.6007910413992E+00  1.3284911765101E-01  3.7784816601873E-01
    50  4.9000000000000E-01  1.5961359030570E+00  1.7485171731497E-01  3.6028593421355E-01
    51  5.0000000000000E-01  1.5875461678608E+00  2.1927297734717E-01  3.4051870222077E-01
    52  5.1000000000000E-01  1.5750950787466E+00  2.6585534719891E-01  3.1887407282510E-01
    53  5.2000000000000E-01  1.5588769430218E+00  3.1431634471238E-01  2.9571326708660E-01
    54  5.3000000000000E-01  1.5390054220069E+00  3.6435273841556E-01  2.7142494756041E-01
    55  5.4000000000000E-01  1.5156116202014E+00  4.1564509459138E-01  2.4641847101017E-01
    56  5.5000000000000E-01  1.4888420090889E+00  4.6786260508759E-01  2.2111669661073E-01
    57  5.6000000000000E-01  1.4588562236393E+00  5.2066810549317E-01  1.9594848579096E-01
    58  5.7000000000000E-01  1.4258247717964E+00  5.7372318867789E-01  1.7134103745386E-01
    59  5.8000000000000E-01  1.3899266987046E+00  6.2669331588902E-01  1.4771220713294E-01
    60  5.9000000000000E-01  1.3513472480967E+00  6.7925282669915E-01  1.2546296058854E-01
    61  6.0000000000000E-01  1.3102755631124E+00  7.3108975014519E-01  1.0497011133612E-01
    62  6.1000000000000E-01  1.2669024678419E+00  7.8191032239328E-01  8.6579487617435E-02
    63  6.2000000000000E-01  1.2214183691025E+00  8.3144312117408E-01  7.0599667419885E-02
    64  6.3000000000000E-01  1.1740113153871E+00  8.7944273398557E-01  5.7296410420063E-02
    65  6.4000000000000E-01  1.1248652466108E+00  9.2569288554578E-01  4.6887903331688E-02
    66  6.5000000000000E-01  1.0741584642911E+00  9.7000896005158E-01  3.9540920287223E-02
    67  6.6000000000000E-01  1.0220623471954E+00  1.0122398652837E+00  3.5367982842925E-02
    68  6.7000000000000E-01  9.6874033236120E-01  1.0522691982842E+00  3.4425585270891E-02
    69  6.8000000000000E-01  9.1434717584196E-01  1.0900156859850E+00  3.6713530344626E-02
    70  6.9000000000000E-01  8.5902850165203E-01  1.1254328885324E+00  4.2175399216895E-02
    71  7.0000000000000E-01  8.0292064130061E-01  1.1585081678520E+00  5.0700156639954E-02
    72  7.1000000000000E-01  7.4615076012612E-01  1.1892609389497E+00  6.2124870123400E-02
    73  7.2000000000000E-01  6.8883726049926E-01  1.2177402362545E+00  7.6238499100144E-02
    74  7.3000000000000E-01  6.3109044597201E-01  1.2440216416783E+00  9.2786688224929E-02
    75  7.4000000000000E-01  5.7301342473604E-01  1.2682036347089E+00  1.1147747800146E-01
    76  7.5000000000000E-01  5.1470322543205E-01  1.2904034374908E+00  1.3198782644338E-01
    77  7.6000000000000E-01  4.5625209353430E-01  1.3107524392060E+00  1.5397081783158E-01
    78  7.7000000000000E-01  3.9774893232331E-01  1.3293912939164E+00  1.7706341919789E-01
    79  7.8000000000000E-01  3.3928084894672E-01  1.3464647941417E+00  2.0089463228077E-01
    80  7.9000000000000E-01  2.8093476333263E-01  1.3621166286403E+00  2.2509387865084E-01
    81  8.0000000000000E-01  2.2279903582622E-01  1.3764841369873E+00  2.4929944872172E-01
    82  8.1000000000000E-01  1.6496506841899E-01  1.3896931754786E+00  2.7316684163193E-01
    83  8.2000000000000E-01  1.0752883436138E-01  1.4018532085798E+00  2.9637682261850E-01
    84  8.3000000000000E-01  5.0592291810153E-02  1.4130527375288E+00  3.1864302755812E-01
    85  8.4000000000000E-01 -5.7353610434722E-03  1.4233551728351E+00  3.3971895081554E-01
    86  8.5000000000000E-01 -6.1336629211701E-02  1.4327952503276E+00  3.5940416233265E-01
    87  8.6000000000000E-01 -1.1608489878156E-01  1.4413760812112E+00  3.7754961286889E-01
    88  8.7000000000000E-01 -1.6984388129459E-01  1.4490669154373E+00  3.9406190225881E-01
    89  8.8000000000000E-01 -2.2246735137765E-01  1.4558016847557E+00  4.0890640421515E-01
    90  8.9000000000000E-01 -2.7379919858774E-01  1.4614783773324E+00  4.2210916224994E-01
    91  9.0000000000000E-01 -3.2367380811008E-01  1.4659592800306E+00  4.3375749433808E-01
    92  9.1000000000000E-01 -3.7191677819806E-01  1.4690721076631E+00  4.4399926858584E-01
    93  9.2000000000000E-01 -4.1834597519314E-01  1.4706120210231E+00  4.5304083793550E-01
    94  9.3000000000000E-01 -4.6277291974675E-01  1.4703445176414E+00  4.6114364835481E-01
    95  9.4000000000000E-01 -5.0500449062471E-01  1.4680091613121E+00  4.6861956151758E-01
    96  9.5000000000000E-01 -5.4484492534962E-01  1.4633240988487E+00  4.7582495917703E-01
    97  9.6000000000000E-01 -5.8209809007212E-01  1.4559912956071E+00  4.8315372173695E-01