Hg    ONCVPSP-4.0.1  r_core=   1.60279   1.60279   1.45649   1.60279
     80.0000     20.0000      231019    zatom,zion,pspd
     8       2   3     4   600     0    pspcod,pspxc,lmax,lloc,mmax,r2well
  5.99000000  5.00000000  0.00000000    rchrg fchrg qchrg
     2     2     2     1     0    nproj
     1     1           extension_switch
   0                         1.4722667892093E+01  1.9659224022266E+00
     1  0.0000000000000E+00  1.2685543726576E-09 -2.1925367008069E-09
     2  1.0000000000000E-02  6.9706454726810E-02  3.7562040449523E-03
     3  2.0000000000000E-02  1.3931448093443E-01  7.4740818988507E-03
     4  3.0000000000000E-02  2.0872486982344E-01  1.1117037269349E-02
     5  4.0000000000000E-02  2.7783687110802E-01  1.4651900251688E-02
     6  5.0000000000000E-02  3.4654746962724E-01  1.8050557569404E-02
     7  6.0000000000000E-02  4.1475071786148E-01  2.1291484862072E-02
     8  7.0000000000000E-02  4.8233714147167E-01  2.4361150992239E-02
     9  8.0000000000000E-02  5.4919323371011E-01  2.7255266536226E-02
    10  9.0000000000000E-02  6.1520105300586E-01  2.9979851295616E-02
    11  1.0000000000000E-01  6.8023793622908E-01  3.2552098773512E-02
    12  1.1000000000000E-01  7.4417633811818E-01  3.5001019050936E-02
    13  1.2000000000000E-01  8.0688380514325E-01  3.7367845316106E-02
    14  1.3000000000000E-01  8.6822308971703E-01  3.9706193379256E-02
    15  1.4000000000000E-01  9.2805240818782E-01  4.2081967780958E-02
    16  1.5000000000000E-01  9.8622584350019E-01  4.4573012500725E-02
    17  1.6000000000000E-01  1.0425938908297E+00  4.7268508722216E-02
    18  1.7000000000000E-01  1.0970041419316E+00  5.0268126537140E-02
    19  1.8000000000000E-01  1.1493021014311E+00  5.3680941797483E-02
    20  1.9000000000000E-01  1.1993321258716E+00  5.7624133482753E-02
    21  2.0000000000000E-01  1.2469384740569E+00  6.2221480864844E-02
    22  2.1000000000000E-01  1.2919664551291E+00  6.7601683361727E-02
    23  2.2000000000000E-01  1.3342636589332E+00  7.3896529210869E-02
    24  2.3000000000000E-01  1.3736812515772E+00  8.1238941908384E-02
    25  2.4000000000000E-01  1.4100753177266E+00  8.9760935701366E-02
    26  2.5000000000000E-01  1.4433082300994E+00  9.9591513247742E-02
    27  2.6000000000000E-01  1.4732500258677E+00  1.1085453983723E-01
    28  2.7000000000000E-01  1.4997797692482E+00  1.2366662927442E-01
    29  2.8000000000000E-01  1.5227868794717E+00  1.3813507664702E-01
    30  2.9000000000000E-01  1.5421724035777E+00  1.5435587273237E-01
    31  3.0000000000000E-01  1.5578502140710E+00  1.7241183373986E-01
    32  3.1000000000000E-01  1.5697481124025E+00  1.9237087846026E-01
    33  3.2000000000000E-01  1.5778088204788E+00  2.1428448271797E-01
    34  3.3000000000000E-01  1.5819908439441E+00  2.3818633833482E-01
    35  3.4000000000000E-01  1.5822691927961E+00  2.6409124065381E-01
    36  3.5000000000000E-01  1.5786359469595E+00  2.9199422509088E-01
    37  3.6000000000000E-01  1.5711006567148E+00  3.2186996923806E-01
    38  3.7000000000000E-01  1.5596905703352E+00  3.5367247279703E-01
    39  3.8000000000000E-01  1.5444506838743E+00  3.8733502314844E-01
    40  3.9000000000000E-01  1.5254436107303E+00  4.2277044973150E-01
    41  4.0000000000000E-01  1.5027492713531E+00  4.5987166569793E-01
    42  4.1000000000000E-01  1.4764644061991E+00  4.9851249059376E-01
    43  4.2000000000000E-01  1.4467019177445E+00  5.3854874318916E-01
    44  4.3000000000000E-01  1.4135900499858E+00  5.7981958910060E-01
    45  4.4000000000000E-01  1.3772714163461E+00  6.2214912360657E-01
    46  4.5000000000000E-01  1.3379018892267E+00  6.6534816612096E-01
    47  4.6000000000000E-01  1.2956493665525E+00  7.0921623922584E-01
    48  4.7000000000000E-01  1.2506924325250E+00  7.5354370203955E-01
    49  4.8000000000000E-01  1.2032189313813E+00  7.9811400506352E-01
    50  4.9000000000000E-01  1.1534244742379E+00  8.4270603155845E-01
    51  5.0000000000000E-01  1.1015109000473E+00  8.8709648898825E-01
    52  5.1000000000000E-01  1.0476847123026E+00  9.3106231316609E-01
    53  5.2000000000000E-01  9.9215551336642E-01  9.7438304746229E-01
    54  5.3000000000000E-01  9.3513445818775E-01  1.0168431597963E+00
    55  5.4000000000000E-01  8.7683274868447E-01  1.0582342611343E+00
    56  5.5000000000000E-01  8.1746018923353E-01  1.0983571908360E+00
    57  5.6000000000000E-01  7.5722382252600E-01  1.1370239364159E+00
    58  5.7000000000000E-01  6.9632666353623E-01  1.1740593580763E+00
    59  5.8000000000000E-01  6.3496654754354E-01  1.2093026916779E+00
    60  5.9000000000000E-01  5.7333510606230E-01  1.2426088076010E+00
    61  6.0000000000000E-01  5.1161688221653E-01  1.2738492071369E+00
    62  6.1000000000000E-01  4.4998859457599E-01  1.3029127425863E+00
    63  6.2000000000000E-01  3.8861855579600E-01  1.3297060520325E+00
    64  6.3000000000000E-01  3.2766624961757E-01  1.3541537047412E+00
    65  6.4000000000000E-01  2.6728206693569E-01  1.3761980582158E+00
    66  6.5000000000000E-01  2.0760719878163E-01  1.3957988330297E+00
    67  6.6000000000000E-01  1.4877368123977E-01  1.4129324165739E+00
    68  6.7000000000000E-01  9.0904584579425E-02  1.4275909117074E+00
    69  6.8000000000000E-01  3.4114336278555E-02  1.4397809509027E+00
    70  6.9000000000000E-01 -2.1490834807023E-02  1.4495223007487E+00
    71  7.0000000000000E-01 -7.5812348071222E-02  1.4568462855296E+00
    72  7.1000000000000E-01 -1.2875863145464E-01  1.4617940619835E+00
    73  7.2000000000000E-01 -1.8024441090966E-01  1.4644147801705E+00
    74  7.3000000000000E-01 -2.3018994882493E-01  1.4647636676180E+00
    75  7.4000000000000E-01 -2.7852025213139E-01  1.4629000754955E+00
    76  7.5000000000000E-01 -3.2516427136293E-01  1.4588855264743E+00
    77  7.6000000000000E-01 -3.7005411210080E-01  1.4527818041323E+00
    78  7.7000000000000E-01 -4.1312427998641E-01  1.4446491232438E+00
    79  7.8000000000000E-01 -4.5431097984146E-01  1.4345444190672E+00
    80  7.9000000000000E-01 -4.9355148839392E-01  1.4225197918039E+00
    81  8.0000000000000E-01 -5.3078361869011E-01  1.4086211397969E+00
    82  8.1000000000000E-01 -5.6594529249374E-01  1.3928870117785E+00
    83  8.2000000000000E-01 -5.9897423486352E-01  1.3753477046402E+00
    84  8.3000000000000E-01 -6.2980780269363E-01  1.3560246288185E+00
    85  8.4000000000000E-01 -6.5838295633476E-01  1.3349299585592E+00
    86  8.5000000000000E-01 -6.8463638053410E-01  1.3120665790984E+00
    87  8.6000000000000E-01 -7.0850475788649E-01  1.2874283372883E+00
    88  8.7000000000000E-01 -7.2992519483045E-01  1.2610005964727E+00
    89  8.8000000000000E-01 -7.4883579700560E-01  1.2327610905906E+00
    90  8.9000000000000E-01 -7.6517638756953E-01  1.2026810666569E+00
    91  9.0000000000000E-01 -7.7888935890943E-01  1.1707266990286E+00
    92  9.1000000000000E-01 -7.8992064513488E-01  1.1368607533287E+00
    93  9.2000000000000E-01 -7.9822079985867E-01  1.1010444726587E+00
    94  9.3000000000000E-01 -8.0374616111729E-01  1.0632396538809E+00
    95  9.4000000000000E-01 -8.0646008290229E-01  1.0234108773927E+00
    96  9.5000000000000E-01 -8.0633421071520E-01  9.8152785001535E-01
    97  9.6000000000000E-01 -8.0334977686521E-01  9.3756781747415E-01
    98  9.7000000000000E-01 -7.9749888993466E-01  8.9151800049777E-01
    99  9.8000000000000E-01 -7.8878579197600E-01  8.4337800688917E-01
   100  9.9000000000000E-01 -7.7722805659484E-01  7.9316217104104E-01
   101  1.0000000000000E+00 -7.6285770113588E-01  7.4090177232598E-01
   102  1.0100000000000E+00 -7.4572218672696E-01  6.8664708459474E-01
   103  1.0200000000000E+00 -7.2588528095370E-01  6.3046921066789E-01
   104  1.0300000000000E+00 -7.0342775942180E-01  5.7246165819056E-01
   105  1.0400000000000E+00 -6.7844792440142E-01  5.1274161650976E-01
   106  1.0500000000000E+00 -6.5106192111501E-01  4.5145089829066E-01
   107  1.0600000000000E+00 -6.2140383498691E-01  3.8875651434261E-01
   108  1.0700000000000E+00 -5.8962555629217E-01  3.2485085552941E-01
   109  1.0800000000000E+00 -5.5589640206676E-01  2.5995146159270E-01
   110  1.0900000000000E+00 -5.2040248882049E-01  1.9430036313335E-01
   111  1.1000000000000E+00 -4.8334585348409E-01  1.2816298979684E-01
   112  1.1100000000000E+00 -4.4494332403049E-01  6.1826644733293E-02
   113  1.1200000000000E+00 -4.0542514531834E-01 -4.4014473830456E-03
   114  1.1300000000000E+00 -3.6503336979001E-01 -7.0196504301028E-02
   115  1.1400000000000E+00 -3.2402002670854E-01 -1.3521894048558E-01
   116  1.1500000000000E+00 -2.8264508750981E-01 -1.9911748325346E-01
   117  1.1600000000000E+00 -2.4117424857013E-01 -2.6153261564687E-01
   118  1.1700000000000E+00 -1.9987655612030E-01 -3.2210030483806E-01
   119  1.1800000000000E+00 -1.5902190117536E-01 -3.8045596925469E-01
   120  1.1900000000000E+00 -1.1887841507622E-01 -4.3623863272174E-01
   121  1.2000000000000E+00 -7.9709798561391E-02 -4.8909520971881E-01
   122  1.2100000000000E+00 -4.1772619111151E-02 -5.3868486251698E-01
   123  1.2200000000000E+00 -5.3136126289602E-03 -5.8468336849452E-01
   124  1.2300000000000E+00  2.9432973703478E-02 -6.2678743442192E-01
   125  1.2400000000000E+00  6.2247960351528E-02 -6.6471889397692E-01
   126  1.2500000000000E+00  9.2929699458586E-02 -6.9822872523049E-01
   127  1.2600000000000E+00  1.2129638825803E-01 -7.2710082633624E-01
   128  1.2700000000000E+00  1.4718819766105E-01 -7.5115549014116E-01
   129  1.2800000000000E+00  1.7046918390469E-01 -7.7025252191702E-01
   130  1.2900000000000E+00  1.9102895375322E-01 -7.8429394880453E-01
   131  1.3000000000000E+00  2.0878405685469E-01 -7.9322627482984E-01
   132  1.3100000000000E+00  2.2367908243090E-01 -7.9704224144383E-01
   133  1.3200000000000E+00  2.3568744145109E-01 -7.9578206032115E-01
   134  1.3300000000000E+00  2.4481181974110E-01 -7.8953409252556E-01
   135  1.3400000000000E+00  2.5108429210939E-01 -7.7843495609824E-01
   136  1.3500000000000E+00  2.5456609237017E-01 -7.6266905237957E-01
   137  1.3600000000000E+00  2.5534703910931E-01 -7.4246750992971E-01
   138  1.3700000000000E+00  2.5354462205033E-01 -7.1810655355859E-01
   139  1.3800000000000E+00  2.4930275890737E-01 -6.8990531466186E-01
   140  1.3900000000000E+00  2.4279023751294E-01 -6.5822310753335E-01
   141  1.4000000000000E+00  2.3419886277261E-01 -6.2345620456961E-01
   142  1.4100000000000E+00  2.2374133248556E-01 -5.8603415105436E-01
   143  1.4200000000000E+00  2.1164887028498E-01 -5.4641566752020E-01
   144  1.4300000000000E+00  1.9816864774202E-01 -5.0508419426250E-01
   145  1.4400000000000E+00  1.8356103181597E-01 -4.6254313989821E-01
   146  1.4500000000000E+00  1.6809668266293E-01 -4.1931087408704E-01
   147  1.4600000000000E+00  1.5205362054632E-01 -3.7591568316384E-01
   148  1.4700000000000E+00  1.3571300511584E-01 -3.3288828098080E-01
   149  1.4800000000000E+00  1.1935177209610E-01 -2.9074837675184E-01
   150  1.4900000000000E+00  1.0323713810789E-01 -2.4999490363379E-01
   151  1.5000000000000E+00  8.7623431287795E-02 -2.1110069863723E-01
   152  1.5100000000000E+00  7.2748981539447E-02 -1.7450726685692E-01
   153  1.5200000000000E+00  5.8833284326273E-02 -1.4062002373243E-01
   154  1.5300000000000E+00  4.6067792522488E-02 -1.0979216223799E-01
   155  1.5400000000000E+00  3.4614700766818E-02 -8.2322437007384E-02
   156  1.5500000000000E+00  2.4630344066907E-02 -5.8497239578524E-02
   157  1.5600000000000E+00  1.6241584964154E-02 -3.8549247560889E-02
   158  1.5700000000000E+00  9.5441785866723E-03 -2.2654560763947E-02
   159  1.5800000000000E+00  4.6033704329622E-03 -1.0934904438084E-02
   160  1.5900000000000E+00  1.4342103075623E-03 -3.4109172233495E-03
   161  1.6000000000000E+00  1.0673501529206E-04 -2.5399121928031E-04
   162  1.6100000000000E+00 -2.0873505872121E-05  4.9826668176640E-05
   163  1.6200000000000E+00  6.6256407071828E-06 -1.5795855007690E-05
   164  1.63 -0.  0.
   165  1.64 -0.  0.
   166  1.65  0.  0.
   167  1.66  0.  0.
   168  1.67  0.  0.
   169  1.68  0.  0.
   170  1.69  0.  0.
   171  1.70  0.  0.
   172  1.71  0.  0.
   173  1.72  0.  0.
   174  1.73  0.  0.
   175  1.74  0.  0.
   176  1.75  0.  0.
   177  1.76  0.  0.
   178  1.77  0.  0.
   179  1.78  0.  0.
   180  1.79  0.  0.
   181  1.80  0.  0.
   182  1.81  0.  0.
   183  1.82  0.  0.
   184  1.83  0.  0.
   185  1.84  0.  0.
   186  1.85  0.  0.
   187  1.86  0.  0.
   188  1.87  0.  0.
   189  1.88  0.  0.
   190  1.89  0.  0.
   191  1.90  0.  0.
   192  1.91  0.  0.
   193  1.92  0.  0.
   194  1.93  0.  0.
   195  1.94  0.  0.
   196  1.95  0.  0.
   197  1.96  0.  0.
   198  1.97  0.  0.
   199  1.98  0.  0.
   200  1.99  0.  0.
   201  2.00  0.  0.
   202  2.01  0.  0.
   203  2.02  0.  0.
   204  2.03  0.  0.
   205  2.04  0.  0.
   206  2.05  0.  0.
   207  2.06  0.  0.
   208  2.07  0.  0.
   209  2.08  0.  0.
   210  2.09  0.  0.
   211  2.10  0.  0.
   212  2.11  0.  0.
   213  2.12  0.  0.
   214  2.13  0.  0.
   215  2.14  0.  0.
   216  2.15  0.  0.
   217  2.16  0.  0.
   218  2.17  0.  0.
   219  2.18  0.  0.
   220  2.19  0.  0.
   221  2.20  0.  0.
   222  2.21  0.  0.
   223  2.22  0.  0.
   224  2.23  0.  0.
   225  2.24  0.  0.
   226  2.25  0.  0.
   227  2.26  0.  0.
   228  2.27  0.  0.
   229  2.28  0.  0.
   230  2.29  0.  0.
   231  2.30  0.  0.
   232  2.31  0.  0.
   233  2.32  0.  0.
   234  2.33  0.  0.
   235  2.34  0.  0.
   236  2.35  0.  0.
   237  2.36  0.  0.
   238  2.37  0.  0.
   239  2.38  0.  0.
   240  2.39  0.  0.
   241  2.40  0.  0.
   242  2.41  0.  0.
   243  2.42  0.  0.
   244  2.43  0.  0.
   245  2.44  0.  0.
   246  2.45  0.  0.
   247  2.46  0.  0.
   248  2.47  0.  0.
   249  2.48  0.  0.
   250  2.49  0.  0.
   251  2.50  0.  0.
   252  2.51  0.  0.
   253  2.52  0.  0.
   254  2.53  0.  0.
   255  2.54  0.  0.
   256  2.55  0.  0.
   257  2.56  0.  0.
   258  2.57  0.  0.
   259  2.58  0.  0.
   260  2.59  0.  0.
   261  2.60  0.  0.
   262  2.61  0.  0.
   263  2.62  0.  0.
   264  2.63  0.  0.
   265  2.64  0.  0.
   266  2.65  0.  0.
   267  2.66  0.  0.
   268  2.67  0.  0.
   269  2.68  0.  0.
   270  2.69  0.  0.
   271  2.70  0.  0.
   272  2.71  0.  0.
   273  2.72  0.  0.
   274  2.73  0.  0.
   275  2.74  0.  0.
   276  2.75  0.  0.
   277  2.76  0.  0.
   278  2.77  0.  0.
   279  2.78  0.  0.
   280  2.79  0.  0.
   281  2.80  0.  0.
   282  2.81  0.  0.
   283  2.82  0.  0.
   284  2.83  0.  0.
   285  2.84  0.  0.
   286  2.85  0.  0.
   287  2.86  0.  0.
   288  2.87  0.  0.
   289  2.88  0.  0.
   290  2.89  0.  0.
   291  2.90  0.  0.
   292  2.91  0.  0.
   293  2.92  0.  0.
   294  2.93  0.  0.
   295  2.94  0.  0.
   296  2.95  0.  0.
   297  2.96  0.  0.
   298  2.97  0.  0.
   299  2.98  0.  0.
   300  2.99  0.  0.
   301  3.00  0.  0.
   302  3.01  0.  0.
   303  3.02  0.  0.
   304  3.03  0.  0.
   305  3.04  0.  0.
   306  3.05  0.  0.
   307  3.06  0.  0.
   308  3.07  0.  0.
   309  3.08  0.  0.
   310  3.09  0.  0.
   311  3.10  0.  0.
   312  3.11  0.  0.
   313  3.12  0.  0.
   314  3.13  0.  0.
   315  3.14  0.  0.
   316  3.15  0.  0.
   317  3.16  0.  0.
   318  3.17  0.  0.
   319  3.18  0.  0.
   320  3.19  0.  0.
   321  3.20  0.  0.
   322  3.21  0.  0.
   323  3.22  0.  0.
   324  3.23  0.  0.
   325  3.24  0.  0.
   326  3.25  0.  0.
   327  3.26  0.  0.
   328  3.27  0.  0.
   329  3.28  0.  0.
   330  3.29  0.  0.
   331  3.30  0.  0.
   332  3.31  0.  0.
   333  3.32  0.  0.
   334  3.33  0.  0.
   335  3.34  0.  0.
   336  3.35  0.  0.
   337  3.36  0.  0.
   338  3.37  0.  0.
   339  3.38  0.  0.
   340  3.39  0.  0.
   341  3.40  0.  0.
   342  3.41  0.  0.
   343  3.42  0.  0.
   344  3.43  0.  0.
   345  3.44  0.  0.
   346  3.45  0.  0.
   347  3.46  0.  0.
   348  3.47  0.  0.
   349  3.48  0.  0.
   350  3.49  0.  0.
   351  3.50  0.  0.
   352  3.51  0.  0.
   353  3.52  0.  0.
   354  3.53  0.  0.
   355  3.54  0.  0.
   356  3.55  0.  0.
   357  3.56  0.  0.
   358  3.57  0.  0.
   359  3.58  0.  0.
   360  3.59  0.  0.
   361  3.60  0.  0.
   362  3.61  0.  0.
   363  3.62  0.  0.
   364  3.63  0.  0.
   365  3.64  0.  0.
   366  3.65  0.  0.
   367  3.66  0.  0.
   368  3.67  0.  0.
   369  3.68  0.  0.
   370  3.69  0.  0.
   371  3.70  0.  0.
   372  3.71  0.  0.
   373  3.72  0.  0.
   374  3.73  0.  0.
   375  3.74  0.  0.
   376  3.75  0.  0.
   377  3.76  0.  0.
   378  3.77  0.  0.
   379  3.78  0.  0.
   380  3.79  0.  0.
   381  3.80  0.  0.
   382  3.81  0.  0.
   383  3.82  0.  0.
   384  3.83  0.  0.
   385  3.84  0.  0.
   386  3.85  0.  0.
   387  3.86  0.  0.
   388  3.87  0.  0.
   389  3.88  0.  0.
   390  3.89  0.  0.
   391  3.90  0.  0.
   392  3.91  0.  0.
   393  3.92  0.  0.
   394  3.93  0.  0.
   395  3.94  0.  0.
   396  3.95  0.  0.
   397  3.96  0.  0.
   398  3.97  0.  0.
   399  3.98  0.  0.
   400  3.99  0.  0.
   401  4.00  0.  0.
   402  4.01  0.  0.
   403  4.02  0.  0.
   404  4.03  0.  0.
   405  4.04  0.  0.
   406  4.05  0.  0.
   407  4.06  0.  0.
   408  4.07  0.  0.
   409  4.08  0.  0.
   410  4.09  0.  0.
   411  4.10  0.  0.
   412  4.11  0.  0.
   413  4.12  0.  0.
   414  4.13  0.  0.
   415  4.14  0.  0.
   416  4.15  0.  0.
   417  4.16  0.  0.
   418  4.17  0.  0.
   419  4.18  0.  0.
   420  4.19  0.  0.
   421  4.20  0.  0.
   422  4.21  0.  0.
   423  4.22  0.  0.
   424  4.23  0.  0.
   425  4.24  0.  0.
   426  4.25  0.  0.
   427  4.26  0.  0.
   428  4.27  0.  0.
   429  4.28  0.  0.
   430  4.29  0.  0.
   431  4.30  0.  0.
   432  4.31  0.  0.
   433  4.32  0.  0.
   434  4.33  0.  0.
   435  4.34  0.  0.
   436  4.35  0.  0.
   437  4.36  0.  0.
   438  4.37  0.  0.
   439  4.38  0.  0.
   440  4.39  0.  0.
   441  4.40  0.  0.
   442  4.41  0.  0.
   443  4.42  0.  0.
   444  4.43  0.  0.
   445  4.44  0.  0.
   446  4.45  0.  0.
   447  4.46  0.  0.
   448  4.47  0.  0.
   449  4.48  0.  0.
   450  4.49  0.  0.
   451  4.50  0.  0.
   452  4.51  0.  0.
   453  4.52  0.  0.
   454  4.53  0.  0.
   455  4.54  0.  0.
   456  4.55  0.  0.
   457  4.56  0.  0.
   458  4.57  0.  0.
   459  4.58  0.  0.
   460  4.59  0.  0.
   461  4.60  0.  0.
   462  4.61  0.  0.
   463  4.62  0.  0.
   464  4.63  0.  0.
   465  4.64  0.  0.
   466  4.65  0.  0.
   467  4.66  0.  0.
   468  4.67  0.  0.
   469  4.68  0.  0.
   470  4.69  0.  0.
   471  4.70  0.  0.
   472  4.71  0.  0.
   473  4.72  0.  0.
   474  4.73  0.  0.
   475  4.74  0.  0.
   476  4.75  0.  0.
   477  4.76  0.  0.
   478  4.77  0.  0.
   479  4.78  0.  0.
   480  4.79  0.  0.
   481  4.80  0.  0.
   482  4.81  0.  0.
   483  4.82  0.  0.
   484  4.83  0.  0.
   485  4.84  0.  0.
   486  4.85  0.  0.
   487  4.86  0.  0.
   488  4.87  0.  0.
   489  4.88  0.  0.
   490  4.89  0.  0.
   491  4.90  0.  0.
   492  4.91  0.  0.
   493  4.92  0.  0.
   494  4.93  0.  0.
   495  4.94  0.  0.
   496  4.95  0.  0.
   497  4.96  0.  0.
   498  4.97  0.  0.
   499  4.98  0.  0.
   500  4.99  0.  0.
   501  5.00  0.  0.
   502  5.01  0.  0.
   503  5.02  0.  0.
   504  5.03  0.  0.
   505  5.04  0.  0.
   506  5.05  0.  0.
   507  5.06  0.  0.
   508  5.07  0.  0.
   509  5.08  0.  0.
   510  5.09  0.  0.
   511  5.10  0.  0.
   512  5.11  0.  0.
   513  5.12  0.  0.
   514  5.13  0.  0.
   515  5.14  0.  0.
   516  5.15  0.  0.
   517  5.16  0.  0.
   518  5.17  0.  0.
   519  5.18  0.  0.
   520  5.19  0.  0.
   521  5.20  0.  0.
   522  5.21  0.  0.
   523  5.22  0.  0.
   524  5.23  0.  0.
   525  5.24  0.  0.
   526  5.25  0.  0.
   527  5.26  0.  0.
   528  5.27  0.  0.
   529  5.28  0.  0.
   530  5.29  0.  0.
   531  5.30  0.  0.
   532  5.31  0.  0.
   533  5.32  0.  0.
   534  5.33  0.  0.
   535  5.34  0.  0.
   536  5.35  0.  0.
   537  5.36  0.  0.
   538  5.37  0.  0.
   539  5.38  0.  0.
   540  5.39  0.  0.
   541  5.40  0.  0.
   542  5.41  0.  0.
   543  5.42  0.  0.
   544  5.43  0.  0.
   545  5.44  0.  0.
   546  5.45  0.  0.
   547  5.46  0.  0.
   548  5.47  0.  0.
   549  5.48  0.  0.
   550  5.49  0.  0.
   551  5.50  0.  0.
   552  5.51  0.  0.
   553  5.52  0.  0.
   554  5.53  0.  0.
   555  5.54  0.  0.
   556  5.55  0.  0.
   557  5.56  0.  0.
   558  5.57  0.  0.
   559  5.58  0.  0.
   560  5.59  0.  0.
   561  5.60  0.  0.
   562  5.61  0.  0.
   563  5.62  0.  0.
   564  5.63  0.  0.
   565  5.64  0.  0.
   566  5.65  0.  0.
   567  5.66  0.  0.
   568  5.67  0.  0.
   569  5.68  0.  0.
   570  5.69  0.  0.
   571  5.70  0.  0.
   572  5.71  0.  0.
   573  5.72  0.  0.
   574  5.73  0.  0.
   575  5.74  0.  0.
   576  5.75  0.  0.
   577  5.76  0.  0.
   578  5.77  0.  0.
   579  5.78  0.  0.
   580  5.79  0.  0.
   581  5.80  0.  0.
   582  5.81  0.  0.
   583  5.82  0.  0.
   584  5.83  0.  0.
   585  5.84  0.  0.
   586  5.85  0.  0.
   587  5.86  0.  0.
   588  5.87  0.  0.
   589  5.88  0.  0.
   590  5.89  0.  0.
   591  5.90  0.  0.
   592  5.91  0.  0.
   593  5.92  0.  0.
   594  5.93  0.  0.
   595  5.94  0.  0.
   596  5.95  0.  0.
   597  5.96  0.  0.
   598  5.97  0.  0.
   599  5.98  0.  0.
   600  5.99  0.  0.
   1                         1.6231378476471E+01  1.4132520859143E+00
     1  0.0000000000000E+00 -7.7101701273508E-09  9.1521626249813E-09
     2  1.0000000000000E-02  1.2794947930359E-03  6.4028569139688E-04
     3  2.0000000000000E-02  5.1207767730792E-03  2.5503593126796E-03
     4  3.0000000000000E-02  1.1532042896717E-02  5.6981246171479E-03
     5  4.0000000000000E-02  2.0526306525590E-02  1.0030929466572E-02
     6  5.0000000000000E-02  3.2120441041721E-02  1.5476809331976E-02
     7  6.0000000000000E-02  4.6333872501617E-02  2.1946190770750E-02
     8  7.0000000000000E-02  6.3186952143608E-02  2.9334018366816E-02
     9  8.0000000000000E-02  8.2699047273053E-02  3.7522259468393E-02
    10  9.0000000000000E-02  1.0488639596846E-01  4.6382732832406E-02
    11  1.0000000000000E-01  1.2975977703547E-01  5.5780200152652E-02
    12  1.1000000000000E-01  1.5732205155912E-01  6.5575653557899E-02
    13  1.2000000000000E-01  1.8756563616285E-01  7.5629727639071E-02
    14  1.3000000000000E-01  2.2046997059493E-01  8.5806161495669E-02
    15  1.4000000000000E-01  2.5599904346998E-01  9.5975234749795E-02
    16  1.5000000000000E-01  2.9409903986624E-01  1.0601710149629E-01
    17  1.6000000000000E-01  3.3469617301041E-01  1.1582494774710E-01
    18  1.7000000000000E-01  3.7769475949470E-01  1.2530790106127E-01
    19  1.8000000000000E-01  4.2297559341265E-01  1.3439362567324E-01
    20  1.9000000000000E-01  4.7039466954348E-01  1.4303054245511E-01
    21  2.0000000000000E-01  5.1978229935853E-01  1.5118962036095E-01
    22  2.1000000000000E-01  5.7094265628593E-01  1.5886569446095E-01
    23  2.2000000000000E-01  6.2365377849199E-01  1.6607827511858E-01
    24  2.3000000000000E-01  6.7766804857686E-01  1.7287182310990E-01
    25  2.4000000000000E-01  7.3271316021017E-01  1.7931547633026E-01
    26  2.5000000000000E-01  7.8849357203274E-01  1.8550222496599E-01
    27  2.6000000000000E-01  8.4469243931397E-01  1.9154754340384E-01
    28  2.7000000000000E-01  9.0097400407673E-01  1.9758749848147E-01
    29  2.8000000000000E-01  9.5698641487772E-01  2.0377636472064E-01
    30  2.9000000000000E-01  1.0123649383531E+00  2.1028378770596E-01
    31  3.0000000000000E-01  1.0667355161923E+00  2.1729154656211E-01
    32  3.1000000000000E-01  1.1197186135591E+00  2.2498997533826E-01
    33  3.2000000000000E-01  1.1709332983021E+00  2.3357411084461E-01
    34  3.3000000000000E-01  1.2200014847216E+00  2.4323964093752E-01
    35  3.4000000000000E-01  1.2665522713155E+00  2.5417873227690E-01
    36  3.5000000000000E-01  1.3102262989060E+00  2.6657582006623E-01
    37  3.6000000000000E-01  1.3506800539276E+00  2.8060344415035E-01
    38  3.7000000000000E-01  1.3875900414820E+00  2.9641821603301E-01
    39  3.8000000000000E-01  1.4206567540497E+00  3.1415699986767E-01
    40  3.9000000000000E-01  1.4496083644957E+00  3.3393338728056E-01
    41  4.0000000000000E-01  1.4742040761579E+00  3.5583454105461E-01
    42  4.1000000000000E-01  1.4942370683182E+00  3.7991847631268E-01
    43  4.2000000000000E-01  1.5095369821146E+00  4.0621184000063E-01
    44  4.3000000000000E-01  1.5199718998527E+00  4.3470824032524E-01
    45  4.4000000000000E-01  1.5254497795662E+00  4.6536716751613E-01
    46  4.5000000000000E-01  1.5259193163979E+00  4.9811353604696E-01
    47  4.6000000000000E-01  1.5213702127453E+00  5.3283786648106E-01
    48  4.7000000000000E-01  1.5118328499403E+00  5.6939711263092E-01
    49  4.8000000000000E-01  1.4973773653023E+00  6.0761612697973E-01
    50  4.9000000000000E-01  1.4781121495122E+00  6.4728974455833E-01
    51  5.0000000000000E-01  1.4541817901747E+00  6.8818545295305E-01
    52  5.1000000000000E-01  1.4257644979584E+00  7.3004660409248E-01
    53  5.2000000000000E-01  1.3930690616219E+00  7.7259611216637E-01
    54  5.3000000000000E-01  1.3563313873352E+00  8.1554057170211E-01
    55  5.4000000000000E-01  1.3158106858206E+00  8.5857472067852E-01
    56  5.5000000000000E-01  1.2717853777843E+00  9.0138616579105E-01
    57  5.6000000000000E-01  1.2245487937417E+00  9.4366028076477E-01
    58  5.7000000000000E-01  1.1744047485427E+00  9.8508518408766E-01
    59  5.8000000000000E-01  1.1216630735641E+00  1.0253566998159E+00
    60  5.9000000000000E-01  1.0666351906018E+00  1.0641832042621E+00
    61  6.0000000000000E-01  1.0096298109152E+00  1.1012902624594E+00
    62  6.1000000000000E-01  9.5094884065579E-01  1.1364249612999E+00
    63  6.2000000000000E-01  8.9088357006300E-01  1.1693598511442E+00
    64  6.3000000000000E-01  8.2971121840845E-01  1.1998964144177E+00
    65  6.4000000000000E-01  7.6769189978584E-01  1.2278679881349E+00
    66  6.5000000000000E-01  7.0506606661224E-01  1.2531420772924E+00
    67  6.6000000000000E-01  6.4205247826552E-01  1.2756220074581E+00
    68  6.7000000000000E-01  5.7884673180798E-01  1.2952478774582E+00
    69  6.8000000000000E-01  5.1562038043422E-01  1.3119967865922E+00
    70  6.9000000000000E-01  4.5252065334209E-01  1.3258823250338E+00
    71  7.0000000000000E-01  3.8967077839283E-01  1.3369533307320E+00
    72  7.1000000000000E-01  3.2717089643538E-01  1.3452919309329E+00
    73  7.2000000000000E-01  2.6509954376960E-01  1.3510109010959E+00
    74  7.3000000000000E-01  2.0351566715764E-01  1.3542503882091E+00
    75  7.4000000000000E-01  1.4246112430889E-01  1.3551740590033E+00
    76  7.5000000000000E-01  8.1963612094285E-02  1.3539647460685E+00
    77  7.6000000000000E-01  2.2039955114532E-02  1.3508196761211E+00
    78  7.7000000000000E-01 -3.7300321140833E-02  1.3459453744060E+00
    79  7.8000000000000E-01 -9.6051215268072E-02  1.3395523472469E+00
    80  7.9000000000000E-01 -1.5420636115864E-01  1.3318496508844E+00
    81  8.0000000000000E-01 -2.1175511720705E-01  1.3230394588168E+00
    82  8.1000000000000E-01 -2.6867872713300E-01  1.3133117417773E+00
    83  8.2000000000000E-01 -3.2494664601029E-01  1.3028391741619E+00
    84  8.3000000000000E-01 -3.8051312317258E-01  1.2917723781498E+00
    85  8.4000000000000E-01 -4.3531412984907E-01  1.2802356119281E+00
    86  8.5000000000000E-01 -4.8926471372332E-01  1.2683230014240E+00
    87  8.6000000000000E-01 -5.4225685518631E-01  1.2560954058474E+00
    88  8.7000000000000E-01 -5.9415789098982E-01  1.2435779963047E+00
    89  8.8000000000000E-01 -6.4480956045319E-01  1.2307586139467E+00
    90  8.9000000000000E-01 -6.9402771751709E-01  1.2175869597748E+00
    91  9.0000000000000E-01 -7.4160273898657E-01  1.2039746526078E+00
    92  9.1000000000000E-01 -7.8730064549921E-01  1.1897961750912E+00
    93  9.2000000000000E-01 -8.3086493734704E-01  1.1748907103090E+00
    94  9.3000000000000E-01 -8.7201913255020E-01  1.1590648538728E+00
    95  9.4000000000000E-01 -9.1046997980386E-01  1.1420961686339E+00
    96  9.5000000000000E-01 -9.4591130438870E-01  1.1237375317498E+00
    97  9.6000000000000E-01 -9.7802843113834E-01  1.1037222070648E+00
    98  9.7000000000000E-01 -1.0065031153687E+00  1.0817695599745E+00
    99  9.8000000000000E-01 -1.0310189005744E+00  1.0575913174582E+00
   100  9.9000000000000E-01 -1.0512668109292E+00  1.0308982630735E+00
   101  1.0000000000000E+00 -1.0669512774340E+00  1.0014072456964E+00
   102  1.0100000000000E+00 -1.0777961891225E+00  9.6884837189125E-01
   103  1.0200000000000E+00 -1.0835509552585E+00  9.3297224521378E-01
   104  1.0300000000000E+00 -1.0839964610588E+00  8.9355711166026E-01
   105  1.0400000000000E+00 -1.0789507982604E+00  8.5041576897444E-01
   106  1.0500000000000E+00 -1.0682746528823E+00  8.0340209870679E-01
   107  1.0600000000000E+00 -1.0518762358230E+00  7.5241708378226E-01
   108  1.0700000000000E+00 -1.0297156474630E+00  6.9741418086618E-01
   109  1.0800000000000E+00 -1.0018085751483E+00  6.3840392592871E-01
   110  1.0900000000000E+00 -9.6822923217166E-01  5.7545766295143E-01
   111  1.1000000000000E+00 -9.2911245856711E-01  5.0871029957570E-01
   112  1.1100000000000E+00 -8.8465491737577E-01  4.3836200931467E-01
   113  1.1200000000000E+00 -8.3511533497839E-01  3.6467881765842E-01
   114  1.1300000000000E+00 -7.8081375015184E-01  2.8799202845335E-01
   115  1.1400000000000E+00 -7.2212975364841E-01  2.0869646726798E-01
   116  1.1500000000000E+00 -6.5949971776236E-01  1.2724753941482E-01
   117  1.1600000000000E+00 -5.9341303348340E-01  4.4157121815076E-02
   118  1.1700000000000E+00 -5.2440739081879E-01 -4.0011670768440E-02
   119  1.1800000000000E+00 -4.5306315568311E-01 -1.2465078345826E-01
   120  1.1900000000000E+00 -3.7999691372315E-01 -2.0911450113308E-01
   121  1.2000000000000E+00 -3.0585426759081E-01 -2.9272760945449E-01
   122  1.2100000000000E+00 -2.3130198888030E-01 -3.7479431859543E-01
   123  1.2200000000000E+00 -1.5701963913565E-01 -4.5460781553941E-01
   124  1.2300000000000E+00 -8.3690785650413E-02 -5.3146029736013E-01
   125  1.2400000000000E+00 -1.1993946963877E-02 -6.0465332695524E-01
   126  1.2500000000000E+00  5.7406590073226E-02 -6.7350834439146E-01
   127  1.2600000000000E+00  1.2386993533515E-01 -7.3737716167525E-01