Hg    ONCVPSP-4.0.1  r_core=   1.60279   1.60279   1.45649   1.60279
     80.0000     20.0000      250217    zatom,zion,pspd
     8       2   3     4   600     0    pspcod,pspxc,lmax,lloc,mmax,r2well
  5.99000000  5.00000000  0.00000000    rchrg fchrg qchrg
     2     3     3     1    nproj
     3     1           extension_switch
     4     4     2    nprojso
   0                         1.4340659430259E+01  1.9349999311153E+00
     1  0.0000000000000E+00  1.2396703663597E-09 -2.1928082509504E-09
     2  1.0000000000000E-02  6.9669110367962E-02  2.9543956743782E-03
     3  2.0000000000000E-02  1.3923968943904E-01  5.8720152657056E-03
     4  3.0000000000000E-02  2.0861244633118E-01  8.7178105924858E-03
     5  4.0000000000000E-02  2.7768658963464E-01  1.1460155860840E-02
     6  5.0000000000000E-02  3.4635912343184E-01  1.4072475891153E-02
     7  6.0000000000000E-02  4.1452419795835E-01  1.6534776375025E-02
     8  7.0000000000000E-02  4.8207253163572E-01  1.8835046129397E-02
     9  8.0000000000000E-02  5.4889091996745E-01  2.0970503507520E-02
    10  9.0000000000000E-02  6.1486184527796E-01  2.2948661798829E-02
    11  1.0000000000000E-01  6.7986319951759E-01  2.4788191557464E-02
    12  1.1000000000000E-01  7.4376813038138E-01  2.6519561290969E-02
    13  1.2000000000000E-01  8.0644501882987E-01  2.8185441758328E-02
    14  1.3000000000000E-01  8.6775759379107E-01  2.9840863207349E-02
    15  1.4000000000000E-01  9.2756518740264E-01  3.1553119156946E-02
    16  1.5000000000000E-01  9.8572313166209E-01  3.3401414729645E-02
    17  1.6000000000000E-01  1.0420832948321E+00  3.5476261989778E-02
    18  1.7000000000000E-01  1.0964947534391E+00  3.7878629169378E-02
    19  1.8000000000000E-01  1.1488045932495E+00  4.0718854992244E-02
    20  1.9000000000000E-01  1.1988588302471E+00  4.4115343464607E-02
    21  2.0000000000000E-01  1.2465034404126E+00  4.8193058417457E-02
    22  2.1000000000000E-01  1.2915854850508E+00  5.3081840695548E-02
    23  2.2000000000000E-01  1.3339543165700E+00  5.8914574128413E-02
    24  2.3000000000000E-01  1.3734628480070E+00  6.5825229235129E-02
    25  2.4000000000000E-01  1.4099688682547E+00  7.3946815956922E-02
    26  2.5000000000000E-01  1.4433363838969E+00  8.3409278539762E-02
    27  2.6000000000000E-01  1.4734369678139E+00  9.4337366969341E-02
    28  2.7000000000000E-01  1.5001510943053E+00  1.0684852006949E-01
    29  2.8000000000000E-01  1.5233694403835E+00  1.2105079549784E-01
    30  2.9000000000000E-01  1.5429941331444E+00  1.3704088140401E-01
    31  3.0000000000000E-01  1.5589399236923E+00  1.5490222346109E-01
    32  3.1000000000000E-01  1.5711352690033E+00  1.7470329935505E-01
    33  3.2000000000000E-01  1.5795233043199E+00  1.9649607064334E-01
    34  3.3000000000000E-01  1.5840626901767E+00  2.2031463920666E-01
    35  3.4000000000000E-01  1.5847283199266E+00  2.4617413235915E-01
    36  3.5000000000000E-01  1.5815118756546E+00  2.7406983710166E-01
    37  3.6000000000000E-01  1.5744222225871E+00  3.0397660005948E-01
    38  3.7000000000000E-01  1.5634856344992E+00  3.3584850540136E-01
    39  3.8000000000000E-01  1.5487458451552E+00  3.6961883856367E-01
    40  3.9000000000000E-01  1.5302639234393E+00  4.0520033897237E-01
    41  4.0000000000000E-01  1.5081179725062E+00  4.4248574024567E-01
    42  4.1000000000000E-01  1.4824026559627E+00  4.8134859164886E-01
    43  4.2000000000000E-01  1.4532285567312E+00  5.2164434993957E-01
    44  4.3000000000000E-01  1.4207213768057E+00  5.6321172626497E-01
    45  4.4000000000000E-01  1.3850209885445E+00  6.0587426852916E-01
    46  4.5000000000000E-01  1.3462803504113E+00  6.4944215571038E-01
    47  4.6000000000000E-01  1.3046643021400E+00  6.9371417704455E-01
    48  4.7000000000000E-01  1.2603482561196E+00  7.3847986586485E-01
    49  4.8000000000000E-01  1.2135168033477E+00  7.8352175525237E-01
    50  4.9000000000000E-01  1.1643622535537E+00  8.2861772055952E-01
    51  5.0000000000000E-01  1.1130831300215E+00  8.7354337235272E-01
    52  5.1000000000000E-01  1.0598826402371E+00  9.1807446241607E-01
    53  5.2000000000000E-01  1.0049671437269E+00  9.6198926518005E-01
    54  5.3000000000000E-01  9.4854463834161E-01  1.0050708973005E+00
    55  5.4000000000000E-01  8.9082328577216E-01  1.0471095391091E+00
    56  5.5000000000000E-01  8.3200999626901E-01  1.0879045232774E+00
    57  5.6000000000000E-01  7.7230909138233E-01  1.1272662582548E+00
    58  5.7000000000000E-01  7.1192106207066E-01  1.1650179568303E+00
    59  5.8000000000000E-01  6.5104143775987E-01  1.2009971434757E+00
    60  5.9000000000000E-01  5.8985977990318E-01  1.2350569179080E+00
    61  6.0000000000000E-01  5.2855881132972E-01  1.2670669565002E+00
    62  6.1000000000000E-01  4.6731369021182E-01  1.2969142376962E+00
    63  6.2000000000000E-01  4.0629143487116E-01  1.3245034823800E+00
    64  6.3000000000000E-01  3.4565050292535E-01  1.3497573051291E+00
    65  6.4000000000000E-01  2.8554052549683E-01  1.3726160773563E+00
    66  6.5000000000000E-01  2.2610219441267E-01  1.3930375084357E+00
    67  6.6000000000000E-01  1.6746729756596E-01  1.4109959559232E+00
    68  6.7000000000000E-01  1.0975889493557E-01  1.4264814808293E+00
    69  6.8000000000000E-01  5.3091625218951E-02  1.4394986685058E+00
    70  6.9000000000000E-01 -2.4278693322564E-03  1.4500652399757E+00
    71  7.0000000000000E-01 -5.6700414428341E-02  1.4582104823928E+00
    72  7.1000000000000E-01 -1.0963368804789E-01  1.4639735306993E+00
    73  7.2000000000000E-01 -1.6114153556137E-01  1.4674015353779E+00
    74  7.3000000000000E-01 -2.1114323496022E-01  1.4685477534315E+00
    75  7.4000000000000E-01 -2.5956273238997E-01  1.4674696013068E+00
    76  7.5000000000000E-01 -3.0632786872315E-01  1.4642267093851E+00
    77  7.6000000000000E-01 -3.5136961806188E-01  1.4588790178657E+00
    78  7.7000000000000E-01 -3.9462135882116E-01  1.4514849533488E+00
    79  7.8000000000000E-01 -4.3601819741450E-01  1.4420997242008E+00
    80  7.9000000000000E-01 -4.7549636354926E-01  1.4307737708438E+00
    81  8.0000000000000E-01 -5.1299269475429E-01  1.4175514045094E+00
    82  8.1000000000000E-01 -5.4844422602723E-01  1.4024696647406E+00
    83  8.2000000000000E-01 -5.8178789843030E-01  1.3855574220888E+00
    84  8.3000000000000E-01 -6.1296039811396E-01  1.3668347480778E+00
    85  8.4000000000000E-01 -6.4189813464661E-01  1.3463125696764E+00
    86  8.5000000000000E-01 -6.6853736471753E-01  1.3239926203017E+00
    87  8.6000000000000E-01 -6.9281446430861E-01  1.2998676938625E+00
    88  8.7000000000000E-01 -7.1466634934758E-01  1.2739222026382E+00
    89  8.8000000000000E-01 -7.3403104171654E-01  1.2461330339592E+00
    90  8.9000000000000E-01 -7.5084837434814E-01  1.2164706948299E+00
    91  9.0000000000000E-01 -7.6506082605657E-01  1.1849007278990E+00
    92  9.1000000000000E-01 -7.7661447377469E-01  1.1513853766448E+00
    93  9.2000000000000E-01 -7.8546004705981E-01  1.1158854724062E+00
    94  9.3000000000000E-01 -7.9155406713948E-01  1.0783625110444E+00
    95  9.4000000000000E-01 -7.9486005044727E-01  1.0387808826580E+00
    96  9.5000000000000E-01 -7.9534975459022E-01  9.9711021398416E-01
    97  9.6000000000000E-01 -7.9300444303850E-01  9.5332777996783E-01
    98  9.7000000000000E-01 -7.8781614356687E-01  9.0742093853823E-01
    99  9.8000000000000E-01 -7.7978887463823E-01  8.5938954095614E-01
   100  9.9000000000000E-01 -7.6893981352297E-01  8.0924826921795E-01
   101  1.0000000000000E+00 -7.5530038001066E-01  7.5702885196117E-01
   102  1.0100000000000E+00 -7.3891721009892E-01  7.0278211112017E-01
   103  1.0200000000000E+00 -7.1985299503998E-01  6.4657979323421E-01
   104  1.0300000000000E+00 -6.9818716257712E-01  5.8851614179462E-01
   105  1.0400000000000E+00 -6.7401637909786E-01  5.2870917030918E-01
   106  1.0500000000000E+00 -6.4745485374345E-01  4.6730159981864E-01
   107  1.0600000000000E+00 -6.1863442820923E-01  4.0446142935572E-01
   108  1.0700000000000E+00 -5.8770443901784E-01  3.4038211324093E-01
   109  1.0800000000000E+00 -5.5483134239359E-01  2.7528232506421E-01
   110  1.0900000000000E+00 -5.2019809546076E-01  2.0940529461788E-01
   111  1.1000000000000E+00 -4.8400329128905E-01  1.4301771084756E-01
   112  1.1100000000000E+00 -4.4646004922571E-01  7.6408190913008E-02
   113  1.1200000000000E+00 -4.0779466596611E-01  9.8853226647552E-03
   114  1.1300000000000E+00 -3.6824503680482E-01 -5.6224704968204E-02
   115  1.1400000000000E+00 -3.2805886046692E-01 -1.2158086203672E-01
   116  1.1500000000000E+00 -2.8749164472093E-01 -1.8583039955111E-01
   117  1.1600000000000E+00 -2.4680453361171E-01 -2.4861229825476E-01
   118  1.1700000000000E+00 -2.0626198050260E-01 -3.0956100296261E-01
   119  1.1800000000000E+00 -1.6612929418093E-01 -3.6831039563128E-01
   120  1.1900000000000E+00 -1.2667008794412E-01 -4.2449795543366E-01
   121  1.2000000000000E+00 -8.8143663850670E-02 -4.7776904991357E-01
   122  1.2100000000000E+00 -5.0802366101719E-02 -5.2778129796080E-01
   123  1.2200000000000E+00 -1.4888938809115E-02 -5.7420894288221E-01
   124  1.2300000000000E+00  1.9366075840922E-02 -6.1674717233501E-01
   125  1.2400000000000E+00  5.1746862816434E-02 -6.5511632135892E-01
   126  1.2500000000000E+00  8.2054747012198E-02 -6.8906589522364E-01
   127  1.2600000000000E+00  1.1011045864714E-01 -7.1837835030004E-01
   128  1.2700000000000E+00  1.3575621785364E-01 -7.4287257364872E-01
   129  1.2800000000000E+00  1.5885760706817E-01 -7.6240700550185E-01
   130  1.2900000000000E+00  1.7930520238313E-01 -7.7688235320678E-01
   131  1.3000000000000E+00  1.9701593805733E-01 -7.8624385046878E-01
   132  1.3100000000000E+00  2.1193418187940E-01 -7.9048302182193E-01
   133  1.3200000000000E+00  2.2403250295883E-01 -7.8963891904419E-01
   134  1.3300000000000E+00  2.3331211772446E-01 -7.8379880360509E-01
   135  1.3400000000000E+00  2.3980300443423E-01 -7.7309825718490E-01
   136  1.3500000000000E+00  2.4356368119002E-01 -7.5772071056093E-01
   137  1.3600000000000E+00  2.4468064730412E-01 -7.3789638971315E-01
   138  1.3700000000000E+00  2.4326749276219E-01 -7.1390068664974E-01
   139  1.3800000000000E+00  2.3946368544252E-01 -6.8605197114122E-01
   140  1.3900000000000E+00  2.3343305054204E-01 -6.5470886802977E-01
   141  1.4000000000000E+00  2.2536196131568E-01 -6.2026703302783E-01
   142  1.4100000000000E+00  2.1545726462124E-01 -5.8315546769675E-01
   143  1.4200000000000E+00  2.0394396888214E-01 -5.4383242160886E-01
   144  1.4300000000000E+00  1.9106272578507E-01 -5.0278093627814E-01
   145  1.4400000000000E+00  1.7706714107385E-01 -4.6050409276704E-01
   146  1.4500000000000E+00  1.6222093891122E-01 -4.1752000310045E-01
   147  1.4600000000000E+00  1.4679509571447E-01 -3.7435676427911E-01
   148  1.4700000000000E+00  1.3106371767258E-01 -3.3154496687114E-01
   149  1.4800000000000E+00  1.1529685157830E-01 -2.8960425840222E-01
   150  1.4900000000000E+00  9.9755115812363E-02 -2.4903356562450E-01
   151  1.5000000000000E+00  8.4686599467369E-02 -2.1030576793475E-01
   152  1.5100000000000E+00  7.0323819799969E-02 -1.7386245505918E-01
   153  1.5200000000000E+00  5.6880947121661E-02 -1.4010916304990E-01
   154  1.5300000000000E+00  4.4544785583392E-02 -1.0939921523641E-01
   155  1.5400000000000E+00  3.3473586600152E-02 -8.2031502289745E-02
   156  1.5500000000000E+00  2.3819977366837E-02 -5.8292629861910E-02
   157  1.5600000000000E+00  1.5707822121457E-02 -3.8415498285631E-02
   158  1.5700000000000E+00  9.2306215393854E-03 -2.2576432268426E-02
   159  1.5800000000000E+00  4.4520759142739E-03 -1.0897363726215E-02
   160  1.5900000000000E+00  1.3870442184055E-03 -3.3992759372587E-03
   161  1.6000000000000E+00  1.0323043536523E-04 -2.5314847190202E-04
   162  1.6100000000000E+00 -2.0184718856572E-05  4.9655250805588E-05
   163  1.6200000000000E+00  6.4072103797927E-06 -1.5741509267998E-05
   164  1.63  0.  0.
   165  1.64  0.  0.
   166  1.65  0.  0.
   167  1.66  0.  0.
   168  1.67  0.  0.
   169  1.68  0.  0.
   170  1.69  0.  0.
   171  1.70  0.  0.
   172  1.71  0.  0.
   173  1.72  0.  0.
   174  1.73  0.  0.
   175  1.74  0.  0.
   176  1.75  0.  0.
   177  1.76  0.  0.
   178  1.77  0.  0.
   179  1.78  0.  0.
   180  1.79  0.  0.
   181  1.80  0.  0.
   182  1.81  0.  0.
   183  1.82  0.  0.
   184  1.83  0.  0.
   185  1.84  0.  0.
   186  1.85  0.  0.
   187  1.86  0.  0.
   188  1.87  0.  0.
   189  1.88  0.  0.
   190  1.89  0.  0.
   191  1.90  0.  0.
   192  1.91  0.  0.
   193  1.92  0.  0.
   194  1.93  0.  0.
   195  1.94  0.  0.
   196  1.95  0.  0.
   197  1.96  0.  0.
   198  1.97  0.  0.
   199  1.98  0.  0.
   200  1.99  0.  0.
   201  2.00  0.  0.
   202  2.01  0.  0.
   203  2.02  0.  0.
   204  2.03  0.  0.
   205  2.04  0.  0.
   206  2.05  0.  0.
   207  2.06  0.  0.
   208  2.07  0.  0.
   209  2.08  0.  0.
   210  2.09  0.  0.
   211  2.10  0.  0.
   212  2.11  0.  0.
   213  2.12  0.  0.
   214  2.13  0.  0.
   215  2.14  0.  0.
   216  2.15  0.  0.
   217  2.16  0.  0.
   218  2.17  0.  0.
   219  2.18  0.  0.
   220  2.19  0.  0.
   221  2.20  0.  0.
   222  2.21  0.  0.
   223  2.22  0.  0.
   224  2.23  0.  0.
   225  2.24  0.  0.
   226  2.25  0.  0.
   227  2.26  0.  0.
   228  2.27  0.  0.
   229  2.28  0.  0.
   230  2.29  0.  0.
   231  2.30  0.  0.
   232  2.31  0.  0.
   233  2.32  0.  0.
   234  2.33  0.  0.
   235  2.34  0.  0.
   236  2.35  0.  0.
   237  2.36  0.  0.
   238  2.37  0.  0.
   239  2.38  0.  0.
   240  2.39  0.  0.
   241  2.40  0.  0.
   242  2.41  0.  0.
   243  2.42  0.  0.
   244  2.43  0.  0.
   245  2.44  0.  0.
   246  2.45  0.  0.
   247  2.46  0.  0.
   248  2.47  0.  0.
   249  2.48  0.  0.
   250  2.49  0.  0.
   251  2.50  0.  0.
   252  2.51  0.  0.
   253  2.52  0.  0.
   254  2.53  0.  0.
   255  2.54  0.  0.
   256  2.55  0.  0.
   257  2.56  0.  0.
   258  2.57  0.  0.
   259  2.58  0.  0.
   260  2.59  0.  0.
   261  2.60  0.  0.
   262  2.61  0.  0.
   263  2.62  0.  0.
   264  2.63  0.  0.
   265  2.64  0.  0.
   266  2.65  0.  0.
   267  2.66  0.  0.
   268  2.67  0.  0.
   269  2.68  0.  0.
   270  2.69  0.  0.
   271  2.70  0.  0.
   272  2.71  0.  0.
   273  2.72  0.  0.
   274  2.73  0.  0.
   275  2.74  0.  0.
   276  2.75  0.  0.
   277  2.76  0.  0.
   278  2.77  0.  0.
   279  2.78  0.  0.
   280  2.79  0.  0.
   281  2.80  0.  0.
   282  2.81  0.  0.
   283  2.82  0.  0.
   284  2.83  0.  0.
   285  2.84  0.  0.
   286  2.85  0.  0.
   287  2.86  0.  0.
   288  2.87  0.  0.
   289  2.88  0.  0.
   290  2.89  0.  0.
   291  2.90  0.  0.
   292  2.91  0.  0.
   293  2.92  0.  0.
   294  2.93  0.  0.
   295  2.94  0.  0.
   296  2.95  0.  0.
   297  2.96  0.  0.
   298  2.97  0.  0.
   299  2.98  0.  0.
   300  2.99  0.  0.
   301  3.00  0.  0.
   302  3.01  0.  0.
   303  3.02  0.  0.
   304  3.03  0.  0.
   305  3.04  0.  0.
   306  3.05  0.  0.
   307  3.06  0.  0.
   308  3.07  0.  0.
   309  3.08  0.  0.
   310  3.09  0.  0.
   311  3.10  0.  0.
   312  3.11  0.  0.
   313  3.12  0.  0.
   314  3.13  0.  0.
   315  3.14  0.  0.
   316  3.15  0.  0.
   317  3.16  0.  0.
   318  3.17  0.  0.
   319  3.18  0.  0.
   320  3.19  0.  0.
   321  3.20  0.  0.
   322  3.21  0.  0.
   323  3.22  0.  0.
   324  3.23  0.  0.
   325  3.24  0.  0.
   326  3.25  0.  0.
   327  3.26  0.  0.
   328  3.27  0.  0.
   329  3.28  0.  0.
   330  3.29  0.  0.
   331  3.30  0.  0.
   332  3.31  0.  0.
   333  3.32  0.  0.
   334  3.33  0.  0.
   335  3.34  0.  0.
   336  3.35  0.  0.
   337  3.36  0.  0.
   338  3.37  0.  0.
   339  3.38  0.  0.
   340  3.39  0.  0.
   341  3.40  0.  0.
   342  3.41  0.  0.
   343  3.42  0.  0.
   344  3.43  0.  0.
   345  3.44  0.  0.
   346  3.45  0.  0.
   347  3.46  0.  0.
   348  3.47  0.  0.
   349  3.48  0.  0.
   350  3.49  0.  0.
   351  3.50  0.  0.
   352  3.51  0.  0.
   353  3.52  0.  0.
   354  3.53  0.  0.
   355  3.54  0.  0.
   356  3.55  0.  0.
   357  3.56  0.  0.
   358  3.57  0.  0.
   359  3.58  0.  0.
   360  3.59  0.  0.
   361  3.60  0.  0.
   362  3.61  0.  0.
   363  3.62  0.  0.
   364  3.63  0.  0.
   365  3.64  0.  0.
   366  3.65  0.  0.
   367  3.66  0.  0.
   368  3.67  0.  0.
   369  3.68  0.  0.
   370  3.69  0.  0.
   371  3.70  0.  0.
   372  3.71  0.  0.
   373  3.72  0.  0.
   374  3.73  0.  0.
   375  3.74  0.  0.
   376  3.75  0.  0.
   377  3.76  0.  0.
   378  3.77  0.  0.
   379  3.78  0.  0.
   380  3.79  0.  0.
   381  3.80  0.  0.
   382  3.81  0.  0.
   383  3.82  0.  0.
   384  3.83  0.  0.
   385  3.84  0.  0.
   386  3.85  0.  0.
   387  3.86  0.  0.
   388  3.87  0.  0.
   389  3.88  0.  0.
   390  3.89  0.  0.
   391  3.90  0.  0.
   392  3.91  0.  0.
   393  3.92  0.  0.
   394  3.93  0.  0.
   395  3.94  0.  0.
   396  3.95  0.  0.
   397  3.96  0.  0.
   398  3.97  0.  0.
   399  3.98  0.  0.
   400  3.99  0.  0.
   401  4.00  0.  0.
   402  4.01  0.  0.
   403  4.02  0.  0.
   404  4.03  0.  0.
   405  4.04  0.  0.
   406  4.05  0.  0.
   407  4.06  0.  0.
   408  4.07  0.  0.
   409  4.08  0.  0.
   410  4.09  0.  0.
   411  4.10  0.  0.
   412  4.11  0.  0.
   413  4.12  0.  0.
   414  4.13  0.  0.
   415  4.14  0.  0.
   416  4.15  0.  0.
   417  4.16  0.  0.
   418  4.17  0.  0.
   419  4.18  0.  0.
   420  4.19  0.  0.
   421  4.20  0.  0.
   422  4.21  0.  0.
   423  4.22  0.  0.
   424  4.23  0.  0.
   425  4.24  0.  0.
   426  4.25  0.  0.
   427  4.26  0.  0.
   428  4.27  0.  0.
   429  4.28  0.  0.
   430  4.29  0.  0.
   431  4.30  0.  0.
   432  4.31  0.  0.
   433  4.32  0.  0.
   434  4.33  0.  0.
   435  4.34  0.  0.
   436  4.35  0.  0.
   437  4.36  0.  0.
   438  4.37  0.  0.
   439  4.38  0.  0.
   440  4.39  0.  0.
   441  4.40  0.  0.
   442  4.41  0.  0.
   443  4.42  0.  0.
   444  4.43  0.  0.
   445  4.44  0.  0.
   446  4.45  0.  0.
   447  4.46  0.  0.
   448  4.47  0.  0.
   449  4.48  0.  0.
   450  4.49  0.  0.
   451  4.50  0.  0.
   452  4.51  0.  0.
   453  4.52  0.  0.
   454  4.53  0.  0.
   455  4.54  0.  0.
   456  4.55  0.  0.
   457  4.56  0.  0.
   458  4.57  0.  0.
   459  4.58  0.  0.
   460  4.59  0.  0.
   461  4.60  0.  0.
   462  4.61  0.  0.
   463  4.62  0.  0.
   464  4.63  0.  0.
   465  4.64  0.  0.
   466  4.65  0.  0.
   467  4.66  0.  0.
   468  4.67  0.  0.
   469  4.68  0.  0.
   470  4.69  0.  0.
   471  4.70  0.  0.
   472  4.71  0.  0.
   473  4.72  0.  0.
   474  4.73  0.  0.
   475  4.74  0.  0.
   476  4.75  0.  0.
   477  4.76  0.  0.
   478  4.77  0.  0.
   479  4.78  0.  0.
   480  4.79  0.  0.
   481  4.80  0.  0.
   482  4.81  0.  0.
   483  4.82  0.  0.
   484  4.83  0.  0.
   485  4.84  0.  0.
   486  4.85  0.  0.
   487  4.86  0.  0.
   488  4.87  0.  0.
   489  4.88  0.  0.
   490  4.89  0.  0.
   491  4.90  0.  0.
   492  4.91  0.  0.
   493  4.92  0.  0.
   494  4.93  0.  0.
   495  4.94  0.  0.
   496  4.95  0.  0.
   497  4.96  0.  0.
   498  4.97  0.  0.
   499  4.98  0.  0.
   500  4.99  0.  0.
   501  5.00  0.  0.
   502  5.01  0.  0.
   503  5.02  0.  0.
   504  5.03  0.  0.
   505  5.04  0.  0.
   506  5.05  0.  0.
   507  5.06  0.  0.
   508  5.07  0.  0.
   509  5.08  0.  0.
   510  5.09  0.  0.
   511  5.10  0.  0.
   512  5.11  0.  0.
   513  5.12  0.  0.
   514  5.13  0.  0.
   515  5.14  0.  0.
   516  5.15  0.  0.
   517  5.16  0.  0.
   518  5.17  0.  0.
   519  5.18  0.  0.
   520  5.19  0.  0.
   521  5.20  0.  0.
   522  5.21  0.  0.
   523  5.22  0.  0.
   524  5.23  0.  0.
   525  5.24  0.  0.
   526  5.25  0.  0.
   527  5.26  0.  0.
   528  5.27  0.  0.
   529  5.28  0.  0.
   530  5.29  0.  0.
   531  5.30  0.  0.
   532  5.31  0.  0.
   533  5.32  0.  0.
   534  5.33  0.  0.
   535  5.34  0.  0.
   536  5.35  0.  0.
   537  5.36  0.  0.
   538  5.37  0.  0.
   539  5.38  0.  0.
   540  5.39  0.  0.
   541  5.40  0.  0.
   542  5.41  0.  0.
   543  5.42  0.  0.
   544  5.43  0.  0.
   545  5.44  0.  0.
   546  5.45  0.  0.
   547  5.46  0.  0.
   548  5.47  0.  0.
   549  5.48  0.  0.
   550  5.49  0.  0.
   551  5.50  0.  0.
   552  5.51  0.  0.
   553  5.52  0.  0.
   554  5.53  0.  0.
   555  5.54  0.  0.
   556  5.55  0.  0.
   557  5.56  0.  0.
   558  5.57  0.  0.
   559  5.58  0.  0.
   560  5.59  0.  0.
   561  5.60  0.  0.
   562  5.61  0.  0.
   563  5.62  0.  0.
   564  5.63  0.  0.
   565  5.64  0.  0.
   566  5.65  0.  0.
   567  5.66  0.  0.
   568  5.67  0.  0.
   569  5.68  0.  0.
   570  5.69  0.  0.
   571  5.70  0.  0.
   572  5.71  0.  0.
   573  5.72  0.  0.
   574  5.73  0.  0.
   575  5.74  0.  0.
   576  5.75  0.  0.
   577  5.76  0.  0.
   578  5.77  0.  0.
   579  5.78  0.  0.
   580  5.79  0.  0.
   581  5.80  0.  0.
   582  5.81  0.  0.
   583  5.82  0.  0.
   584  5.83  0.  0.
   585  5.84  0.  0.
   586  5.85  0.  0.
   587  5.86  0.  0.
   588  5.87  0.  0.
   589  5.88  0.  0.
   590  5.89  0.  0.
   591  5.90  0.  0.
   592  5.91  0.  0.
   593  5.92  0.  0.
   594  5.93  0.  0.
   595  5.94  0.  0.
   596  5.95  0.  0.
   597  5.96  0.  0.
   598  5.97  0.  0.
   599  5.98  0.  0.
   600  5.99  0.  0.
   1                         5.4829889519978E+00  6.4820166555716E-01 -3.1800957666232E-02
     1  0.0000000000000E+00 -3.7897436994117E-09  9.1714665775150E-09 -1.4541033585558E-08
     2  1.0000000000000E-02  1.4323818845455E-03  1.1985096369209E-04 -3.8340583803990E-04
     3  2.0000000000000E-02  5.7280436534859E-03  4.7076276942605E-04 -1.5163490103689E-03
     4  3.0000000000000E-02  1.2882445865509E-02  1.0270596945993E-03 -3.3474162084493E-03
     5  4.0000000000000E-02  2.2887732421412E-02  1.7467685285359E-03 -5.7922756912935E-03
     6  5.0000000000000E-02  3.5732302883138E-02  2.5728290952453E-03 -8.7356829609752E-03
     7  6.0000000000000E-02  5.1400229281967E-02  3.4347514464888E-03 -1.2034229356137E-02
     8  7.0000000000000E-02  6.9870532589398E-02  4.2506831050916E-03 -1.5519775640900E-02
     9  8.0000000000000E-02  9.1116337814030E-02  4.9298405669723E-03 -1.9003498125543E-02
    10  9.0000000000000E-02  1.1510393008285E-01  5.3752510335667E-03 -2.2280461769545E-02
    11  1.0000000000000E-01  1.4179173699445E-01  5.4867432124877E-03 -2.5134623348472E-02
    12  1.1000000000000E-01  1.7112926493185E-01  5.1641201427821E-03 -2.7344158346814E-02
    13  1.2000000000000E-01  2.0305601884234E-01  4.3104424938773E-03 -2.8686997960642E-02
    14  1.3000000000000E-01  2.3750043618955E-01  2.8353477520495E-03 -2.8946457609445E-02
    15  1.4000000000000E-01  2.7437886633089E-01  6.5832921167825E-04 -2.7916835772258E-02
    16  1.5000000000000E-01  3.1359462645578E-01 -2.2881012326826E-03 -2.5408861837767E-02
    17  1.6000000000000E-01  3.5503716443429E-01 -6.0554408361424E-03 -2.1254874003691E-02
    18  1.7000000000000E-01  3.9858135748219E-01 -1.0676485421589E-02 -1.5313613040983E-02
    19  1.8000000000000E-01  4.4408697347246E-01 -1.6162946876135E-02 -7.4745248653772E-03
    20  1.9000000000000E-01  4.9139831904945E-01 -2.2503459007441E-02  2.3385257958660E-03
    21  2.0000000000000E-01  5.4034409548111E-01 -2.9662024615482E-02  1.4164216969947E-02
    22  2.1000000000000E-01  5.9073747947544E-01 -3.7576948053409E-02  2.8001479355799E-02
    23  2.2000000000000E-01  6.4237644205989E-01 -4.6160287979279E-02  4.3808012933489E-02
    24  2.3000000000000E-01  6.9504431415629E-01 -5.5297854623933E-02  6.1499652543444E-02
    25  2.4000000000000E-01  7.4851060276383E-01 -6.4849764922071E-02  8.0950607681722E-02
    26  2.5000000000000E-01  8.0253205678150E-01 -7.4651557491258E-02  1.0199458408484E-01
    27  2.6000000000000E-01  8.5685397655370E-01 -8.4515857920751E-02  1.2442677671909E-01
    28  2.7000000000000E-01  9.1121175630729E-01 -9.4234573380161E-02  1.4800670589463E-01
    29  2.8000000000000E-01  9.6533264386170E-01 -1.0358158440694E-01  1.7246185075348E-01
    30  2.9000000000000E-01  1.0189376974329E+00 -1.1231589110770E-01  1.9749201768293E-01
    31  3.0000000000000E-01  1.0717439151091E+00 -1.2018516112888E-01  2.2277436561904E-01
    32  3.1000000000000E-01  1.1234665087383E+00 -1.2692961782169E-01  2.4796899604734E-01
    33  3.2000000000000E-01  1.1738212906150E+00 -1.3228619923255E-01  2.7272500307166E-01
    34  3.3000000000000E-01  1.2225271385559E+00 -1.3599291205855E-01  2.9668686846797E-01
    35  3.4000000000000E-01  1.2693085027766E+00 -1.3779329966155E-01  3.1950107839190E-01
    36  3.5000000000000E-01  1.3138979164658E+00 -1.3744093974839E-01  3.4082283254712E-01
    37  3.6000000000000E-01  1.3560384711458E+00 -1.3470388548306E-01  3.6032271328570E-01
    38  3.7000000000000E-01  1.3954862178253E+00 -1.2936896365433E-01  3.7769318138604E-01
    39  3.8000000000000E-01  1.4320124556035E+00 -1.2124584509838E-01  3.9265476717963E-01
    40  3.9000000000000E-01  1.4654058707724E+00 -1.1017080585768E-01  4.0496183025691E-01
    41  4.0000000000000E-01  1.4954744915631E+00 -9.6010102498096E-02  4.1440776811279E-01
    42  4.1000000000000E-01  1.5220474264612E+00 -7.8662891524673E-02  4.2082956367309E-01
    43  4.2000000000000E-01  1.5449763574321E+00 -5.8063630822019E-02  4.2411157351020E-01
    44  4.3000000000000E-01  1.5641367633838E+00 -3.4183910354370E-02  4.2418847249730E-01
    45  4.4000000000000E-01  1.5794288536875E+00 -7.0336698243096E-03  4.2104728640705E-01
    46  4.5000000000000E-01  1.5907781964924E+00  2.3338227586881E-02  4.1472846124538E-01
    47  4.6000000000000E-01  1.5981360318157E+00  5.6844084105154E-02  4.0532593658977E-01
    48  4.7000000000000E-01  1.6014792648709E+00  9.3358124901729E-02  3.9298620952984E-01
    49  4.8000000000000E-01  1.6008101407097E+00  1.3271791735944E-01  3.7790639560700E-01
    50  4.9000000000000E-01  1.5961556068861E+00  1.7472643217813E-01  3.6033131303664E-01
    51  5.0000000000000E-01  1.5875663764068E+00  2.1915471370604E-01  3.4054963607885E-01
    52  5.1000000000000E-01  1.5751157085875E+00  2.6574511465474E-01  3.1888918231279E-01
    53  5.2000000000000E-01  1.5588979305000E+00  3.1421503886875E-01  2.9571141638379E-01
    54  5.3000000000000E-01  1.5390267263573E+00  3.6426112531224E-01  2.7140526917237E-01
    55  5.4000000000000E-01  1.5156332263588E+00  4.1556379712438E-01  2.4638038593598E-01
    56  5.5000000000000E-01  1.4888639301127E+00  4.6779209167927E-01  2.2105992949694E-01
    57  5.6000000000000E-01  1.4588785026989E+00  5.2060868124009E-01  1.9587307471765E-01
    58  5.7000000000000E-01  1.4258474836667E+00  5.7367498916402E-01  1.7124733809347E-01
    59  5.8000000000000E-01  1.3899499507268E+00  6.2665630380788E-01  1.4760089112617E-01
    60  5.9000000000000E-01  1.3513711805694E+00  6.7922679138175E-01  1.2533500808619E-01
    61  6.0000000000000E-01  1.3103003490834E+00  7.3107431004140E-01  1.0482679776351E-01
    62  6.1000000000000E-01  1.2669283122825E+00  7.8190493050422E-01  8.6422364826052E-02
    63  6.2000000000000E-01  1.2214455074552E+00  8.3144707338212E-01  7.0430539497187E-02
    64  6.3000000000000E-01  1.1740400114856E+00  8.7945518017850E-01  5.7117304529752E-02
    65  6.4000000000000E-01  1.1248957899842E+00  9.2571284338229E-01  4.6701036053234E-02
    66  6.5000000000000E-01  1.0741911668724E+00  9.7003533116890E-01  3.9348660012423E-02
    67  6.6000000000000E-01  1.0220975394648E+00  1.0122714537041E+00  3.5172808865398E-02
    68  6.7000000000000E-01  9.6877835896491E-01  1.0523047307371E+00  3.4230044273252E-02
    69  6.8000000000000E-01  9.1438839073552E-01  1.0900538338258E+00  3.6520191044408E-02
    70  6.9000000000000E-01  8.5907326282770E-01  1.1254722909099E+00  4.1986805973286E-02
    71  7.0000000000000E-01  8.0296930516466E-01  1.1585474557487E+00  5.0518782853090E-02
    72  7.1000000000000E-01  7.4620367560020E-01  1.1892987597054E+00  6.1953072269762E-02
    73  7.2000000000000E-01  6.8889476292568E-01  1.2177752781669E+00  7.6078472246197E-02
    74  7.3000000000000E-01  6.3115285090835E-01  1.2440526582720E+00  9.2640423843017E-02
    75  7.4000000000000E-01  5.7308102172800E-01  1.2682294682656E+00  1.1134672487887E-01
    76  7.5000000000000E-01  5.1477627185666E-01  1.2904230414407E+00  1.3187405542819E-01
    77  7.6000000000000E-01  4.5633080860665E-01  1.3107648989974E+00  1.5387519109687E-01
    78  7.7000000000000E-01  3.9783349136009E-01  1.3293958460009E+00  1.7698676463038E-01
    79  7.8000000000000E-01  3.3937137797861E-01  1.3464608427419E+00  2.0083742351568E-01
    80  7.9000000000000E-01  2.8103133415461E-01  1.3621037599997E+00  2.2505622117549E-01
    81  8.0000000000000E-01  2.2290166157117E-01  1.3764621308411E+00  2.4928107236687E-01
    82  8.1000000000000E-01  1.6507369973399E-01  1.3896620135293E+00  2.7316709965788E-01
    83  8.2000000000000E-01  1.0764335626006E-01  1.4018130798057E+00  2.9639469748589E-01
    84  8.3000000000000E-01  5.0712521266015E-02  1.4130040402079E+00  3.1867714335496E-01
    85  8.4000000000000E-01 -5.6096767063145E-03  1.4232985132160E+00  3.3976759219276E-01
    86  8.5000000000000E-01 -6.1205813084017E-02  1.4327314379344E+00  3.5946529968232E-01
    87  8.6000000000000E-01 -1.1594934425511E-01  1.4413061208245E+00  3.7762093336594E-01
    88  8.7000000000000E-01 -1.6970405104454E-01  1.4489919958449E+00  3.9414084628058E-01
    89  8.8000000000000E-01 -2.2232377542895E-01  1.4557231644215E+00  4.0899020655169E-01
    90  8.9000000000000E-01 -2.7365247146545E-01  1.4613977671792E+00  4.2219489743066E-01
    91  9.0000000000000E-01 -3.2352458508605E-01  1.4658782235827E+00  4.3384212532080E-01
    92  9.1000000000000E-01 -3.7176577065890E-01  1.4689923588335E+00  4.4407969799041E-01
    93  9.2000000000000E-01 -4.1819394516679E-01  1.4705354198724E+00  4.5311396095385E-01
    94  9.3000000000000E-01 -4.6262067363690E-01  1.4702729644655E+00  4.6120640643334E-01
    95  9.4000000000000E-01 -5.0485287221390E-01  1.4679445894443E+00  4.6866899588979E-01
    96  9.5000000000000E-01 -5.4469480814251E-01  1.4632684465831E+00  4.7585826332069E-01
    97  9.6000000000000E-01 -5.8195036906066E-01  1.4559464776630E+00  4.8316829184493E-01