V     ONCVPSP-4.0.1  r_core=   1.30295   1.30295   1.65519
     23.0000     13.0000      250925    zatom,zion,pspd
     8   -1012   2     4   600     0    pspcod,pspxc,lmax,lloc,mmax,r2well
  5.99000000  5.00000000  0.00000000    rchrg fchrg qchrg
     2     3     2     0    nproj
     3     1           extension_switch
     4     3     0    nprojso
   0                         1.1622286384190E+01  1.2959013839570E+00
     1  0.0000000000000E+00  4.4150700873047E-09 -1.3612279137210E-08
     2  1.0000000000000E-02  8.5289138424121E-02 -2.8989510648136E-02
     3  2.0000000000000E-02  1.7040290463113E-01 -5.7908307945054E-02
     4  3.0000000000000E-02  2.5516503691753E-01 -8.6682015923850E-02
     5  4.0000000000000E-02  3.3939753678714E-01 -1.1522906269342E-01
     6  5.0000000000000E-02  4.2291990482543E-01 -1.4345740210330E-01
     7  6.0000000000000E-02  5.0554849842657E-01 -1.7126160886264E-01
     8  7.0000000000000E-02  5.8709604662897E-01 -1.9852045505535E-01
     9  8.0000000000000E-02  6.6737135289984E-01 -2.2509506238084E-01
    10  9.0000000000000E-02  7.4617921141119E-01 -2.5082770812632E-01
    11  1.0000000000000E-01  8.2332055630641E-01 -2.7554134427664E-01
    12  1.1000000000000E-01  8.9859285682821E-01 -2.9903986878750E-01
    13  1.2000000000000E-01  9.7179076413751E-01 -3.2110916643376E-01
    14  1.3000000000000E-01  1.0427070083863E+00 -3.4151891437559E-01
    15  1.4000000000000E-01  1.1111335373056E+00 -3.6002512526134E-01
    16  1.5000000000000E-01  1.1768628804286E+00 -3.7637337891173E-01
    17  1.6000000000000E-01  1.2396897162751E+00 -3.9030267299664E-01
    18  1.7000000000000E-01  1.2994126135640E+00 -4.0154980418941E-01
    19  1.8000000000000E-01  1.3558359119597E+00 -4.0985417458698E-01
    20  1.9000000000000E-01  1.4087717031506E+00 -4.1496290418524E-01
    21  2.0000000000000E-01  1.4580418693317E+00 -4.1663611929715E-01
    22  2.1000000000000E-01  1.5034801335286E+00 -4.1465227931532E-01
    23  2.2000000000000E-01  1.5449340747275E+00 -4.0881340038596E-01
    24  2.3000000000000E-01  1.5822670605188E+00 -3.9895003451140E-01
    25  2.4000000000000E-01  1.6153600509401E+00 -3.8492586637651E-01
    26  2.5000000000000E-01  1.6441132293900E+00 -3.6664179773578E-01
    27  2.6000000000000E-01  1.6684474198502E+00 -3.4403940034302E-01
    28  2.7000000000000E-01  1.6883052541031E+00 -3.1710363289632E-01
    29  2.8000000000000E-01  1.7036520580735E+00 -2.8586473495912E-01
    30  2.9000000000000E-01  1.7144764327181E+00 -2.5039923087394E-01
    31  3.0000000000000E-01  1.7207905118761E+00 -2.1082999880561E-01
    32  3.1000000000000E-01  1.7226298870154E+00 -1.6732538367609E-01
    33  3.2000000000000E-01  1.7200531966535E+00 -1.2009735727366E-01
    34  3.3000000000000E-01  1.7131413862208E+00 -6.9398753601085E-02
    35  3.4000000000000E-01  1.7019966520441E+00 -1.5519631916652E-02
    36  3.5000000000000E-01  1.6867410907618E+00  4.1217156727336E-02
    37  3.6000000000000E-01  1.6675150826431E+00  1.0046110196236E-01
    38  3.7000000000000E-01  1.6444754437724E+00  1.6183974869116E-01
    39  3.8000000000000E-01  1.6177933877119E+00  2.2496486025965E-01
    40  3.9000000000000E-01  1.5876523419095E+00  2.8943888334734E-01
    41  4.0000000000000E-01  1.5542456676517E+00  3.5486155804125E-01
    42  4.1000000000000E-01  1.5177743346627E+00  4.2083651086721E-01
    43  4.2000000000000E-01  1.4784446024572E+00  4.8697766704391E-01
    44  4.3000000000000E-01  1.4364657602224E+00  5.5291532099891E-01
    45  4.4000000000000E-01  1.3920479753306E+00  6.1830171123099E-01
    46  4.5000000000000E-01  1.3454002975970E+00  6.8281595679906E-01
    47  4.6000000000000E-01  1.2967288621677E+00  7.4616822783224E-01
    48  4.7000000000000E-01  1.2462353285357E+00  8.0810304115383E-01
    49  4.8000000000000E-01  1.1941155867825E+00  8.6840159395845E-01
    50  4.9000000000000E-01  1.1405587548677E+00  9.2688307295750E-01
    51  5.0000000000000E-01  1.0857464828365E+00  9.8340490291311E-01
    52  5.1000000000000E-01  1.0298525713729E+00  1.0378619263577E+00
    53  5.2000000000000E-01  9.7304290341334E-01  1.0901845348409E+00
    54  5.3000000000000E-01  9.1547567878236E-01  1.1403358005226E+00
    55  5.4000000000000E-01  8.5730193323867E-01  1.1883076846036E+00
    56  5.5000000000000E-01  7.9866631516031E-01  1.2341164252108E+00
    57  5.6000000000000E-01  7.3970808556930E-01  1.2777972312380E+00
    58  5.7000000000000E-01  6.8056230050613E-01  1.3193984296164E+00
    59  5.8000000000000E-01  6.2136112909965E-01  1.3589752309627E+00
    60  5.9000000000000E-01  5.6223525620332E-01  1.3965832920054E+00
    61  6.0000000000000E-01  5.0331531532031E-01  1.4322722622079E+00
    62  6.1000000000000E-01  4.4473329581922E-01  1.4660795062659E+00
    63  6.2000000000000E-01  3.8662386822046E-01  1.4980241934660E+00
    64  6.3000000000000E-01  3.2912557263805E-01  1.5281019391728E+00
    65  6.4000000000000E-01  2.7238181828809E-01  1.5562801730122E+00
    66  6.5000000000000E-01  2.1654164627268E-01  1.5824943928235E+00
    67  6.6000000000000E-01  1.6176021353428E-01  1.6066454434607E+00
    68  6.7000000000000E-01  1.0819896282473E-01  1.6285979354593E+00
    69  6.8000000000000E-01  5.6025451590410E-02  1.6481798909850E+00
    70  6.9000000000000E-01  5.4128216508438E-03  1.6651836739730E+00
    71  7.0000000000000E-01 -4.3461098771273E-02  1.6793682286762E+00
    72  7.1000000000000E-01 -9.0415058961887E-02  1.6904626167425E+00
    73  7.2000000000000E-01 -1.3526600349766E-01  1.6981708082860E+00
    74  7.3000000000000E-01 -1.7783102150826E-01  1.7021776480496E+00
    75  7.4000000000000E-01 -2.1792959502071E-01  1.7021558845690E+00
    76  7.5000000000000E-01 -2.5538610455497E-01  1.6977741190844E+00
    77  7.6000000000000E-01 -2.9003254153120E-01  1.6887055026395E+00
    78  7.7000000000000E-01 -3.2171136950397E-01  1.6746369851178E+00
    79  7.8000000000000E-01 -3.5027846996730E-01  1.6552788995908E+00
    80  7.9000000000000E-01 -3.7560610366507E-01  1.6303746498854E+00
    81  8.0000000000000E-01 -3.9758581514255E-01  1.5997102591983E+00
    82  8.1000000000000E-01 -4.1613120680409E-01  1.5631235332639E+00
    83  8.2000000000000E-01 -4.3118050907002E-01  1.5205125932326E+00
    84  8.3000000000000E-01 -4.4269887538448E-01  1.4718435411264E+00
    85  8.4000000000000E-01 -4.5068033479791E-01  1.4171570344383E+00
    86  8.5000000000000E-01 -4.5514934057566E-01  1.3565735659144E+00
    87  8.6000000000000E-01 -4.5616186066007E-01  1.2902972694464E+00
    88  8.7000000000000E-01 -4.5380596469329E-01  1.2186181028014E+00
    89  8.8000000000000E-01 -4.4820187250293E-01  1.1419122920057E+00
    90  8.9000000000000E-01 -4.3950144024254E-01  1.0606409598258E+00
    91  9.0000000000000E-01 -4.2788707251014E-01  9.7534690112539E-01
    92  9.1000000000000E-01 -4.1357006146388E-01  8.8664950998455E-01
    93  9.2000000000000E-01 -3.9678836691979E-01  7.9523790638324E-01
    94  9.3000000000000E-01 -3.7780386434448E-01  7.0186235295069E-01
    95  9.4000000000000E-01 -3.5689910023515E-01  6.0732409374086E-01
    96  9.5000000000000E-01 -3.3437360630614E-01  5.1246378621304E-01
    97  9.6000000000000E-01 -3.1053983487483E-01  4.1814873358491E-01
    98  9.7000000000000E-01 -2.8571878758677E-01  3.2525915658884E-01
    99  9.8000000000000E-01 -2.6023541788639E-01  2.3467377056852E-01
   100  9.9000000000000E-01 -2.3441389420553E-01  1.4725495508702E-01
   101  1.0000000000000E+00 -2.0857281552760E-01  6.3833818193111E-02
   102  1.0100000000000E+00 -1.8302047364457E-01 -1.4804534257892E-02
   103  1.0200000000000E+00 -1.5805025697075E-01 -8.7935212584172E-02
   104  1.0300000000000E+00 -1.3393628916264E-01 -1.5490693481689E-01
   105  1.0400000000000E+00 -1.1092939202149E-01 -2.1515430308785E-01
   106  1.0500000000000E+00 -8.9253456295390E-02 -2.6820869206534E-01
   107  1.0600000000000E+00 -6.9102296137944E-02 -3.1370750313515E-01
   108  1.0700000000000E+00 -5.0637053291814E-02 -3.5140157052660E-01
   109  1.0800000000000E+00 -3.3984205760130E-02 -3.8116054338605E-01
   110  1.0900000000000E+00 -1.9234222995914E-02 -4.0297611026766E-01
   111  1.1000000000000E+00 -6.4408958517741E-03 -4.1696297840692E-01
   112  1.1100000000000E+00  4.3786451292727E-03 -4.2335756886198E-01
   113  1.1200000000000E+00  1.3243224575558E-02 -4.2251443862527E-01
   114  1.1300000000000E+00  2.0206247062357E-02 -4.1490049139452E-01
   115  1.1400000000000E+00  2.5353683573059E-02 -4.0108708835897E-01
   116  1.1500000000000E+00  2.8801465907738E-02 -3.8174021823328E-01
   117  1.1600000000000E+00  3.0692348861646E-02 -3.5760893050922E-01
   118  1.1700000000000E+00  3.1192312384928E-02 -3.2951227669322E-01
   119  1.1800000000000E+00  3.0486586771917E-02 -2.9832503990549E-01
   120  1.1900000000000E+00  2.8775393155554E-02 -2.6496256351782E-01
   121  1.2000000000000E+00  2.6269494880691E-02 -2.3036499709022E-01
   122  1.2100000000000E+00  2.3185680047125E-02 -1.9548137491615E-01
   123  1.2200000000000E+00  1.9741024517034E-02 -1.6124876692938E-01
   124  1.2300000000000E+00  1.6144379432120E-02 -1.2856039459073E-01
   125  1.2400000000000E+00  1.2589306874549E-02 -9.8241456492524E-02
   126  1.2500000000000E+00  9.2382102377186E-03 -7.1007295971092E-02
   127  1.2600000000000E+00  6.2440995831961E-03 -4.7508169930187E-02
   128  1.2700000000000E+00  3.7409769830183E-03 -2.8305460716381E-02
   129  1.2800000000000E+00  1.8312273844153E-03 -1.3839900700810E-02
   130  1.2900000000000E+00  5.8095807944406E-04 -4.4046635454753E-03
   131  1.3000000000000E+00  4.0174705046301E-05 -3.0702716613486E-04
   132  1.3100000000000E+00 -2.1139839853665E-06  1.6216264943444E-05
   133  1.3200000000000E+00 -3.1964546790337E-07  2.4318789061780E-06
   134  1.33  0.  0.
   135  1.34  0.  0.
   136  1.35  0.  0.
   137  1.36  0.  0.
   138  1.37  0.  0.
   139  1.38  0.  0.
   140  1.39  0.  0.
   141  1.40  0.  0.
   142  1.41  0.  0.
   143  1.42  0.  0.
   144  1.43  0.  0.
   145  1.44  0.  0.
   146  1.45  0.  0.
   147  1.46  0.  0.
   148  1.47  0.  0.
   149  1.48  0.  0.
   150  1.49  0.  0.
   151  1.50  0.  0.
   152  1.51  0.  0.
   153  1.52  0.  0.
   154  1.53  0.  0.
   155  1.54  0.  0.
   156  1.55  0.  0.
   157  1.56  0.  0.
   158  1.57  0.  0.
   159  1.58  0.  0.
   160  1.59  0.  0.
   161  1.60  0.  0.
   162  1.61  0.  0.
   163  1.62  0.  0.
   164  1.63  0.  0.
   165  1.64  0.  0.
   166  1.65  0.  0.
   167  1.66  0.  0.
   168  1.67  0.  0.
   169  1.68  0.  0.
   170  1.69  0.  0.
   171  1.70  0.  0.
   172  1.71  0.  0.
   173  1.72  0.  0.
   174  1.73  0.  0.
   175  1.74  0.  0.
   176  1.75  0.  0.
   177  1.76  0.  0.
   178  1.77  0.  0.
   179  1.78  0.  0.
   180  1.79  0.  0.
   181  1.80  0.  0.
   182  1.81  0.  0.
   183  1.82  0.  0.
   184  1.83  0.  0.
   185  1.84  0.  0.
   186  1.85  0.  0.
   187  1.86  0.  0.
   188  1.87  0.  0.
   189  1.88  0.  0.
   190  1.89  0.  0.
   191  1.90  0.  0.
   192  1.91  0.  0.
   193  1.92  0.  0.
   194  1.93  0.  0.
   195  1.94  0.  0.
   196  1.95  0.  0.
   197  1.96  0.  0.
   198  1.97  0.  0.
   199  1.98  0.  0.
   200  1.99  0.  0.
   201  2.00  0.  0.
   202  2.01  0.  0.
   203  2.02  0.  0.
   204  2.03  0.  0.
   205  2.04  0.  0.
   206  2.05  0.  0.
   207  2.06  0.  0.
   208  2.07  0.  0.
   209  2.08  0.  0.
   210  2.09  0.  0.
   211  2.10  0.  0.
   212  2.11  0.  0.
   213  2.12  0.  0.
   214  2.13  0.  0.
   215  2.14  0.  0.
   216  2.15  0.  0.
   217  2.16  0.  0.
   218  2.17  0.  0.
   219  2.18  0.  0.
   220  2.19  0.  0.
   221  2.20  0.  0.
   222  2.21  0.  0.
   223  2.22  0.  0.
   224  2.23  0.  0.
   225  2.24  0.  0.
   226  2.25  0.  0.
   227  2.26  0.  0.
   228  2.27  0.  0.
   229  2.28  0.  0.
   230  2.29  0.  0.
   231  2.30  0.  0.
   232  2.31  0.  0.
   233  2.32  0.  0.
   234  2.33  0.  0.
   235  2.34  0.  0.
   236  2.35  0.  0.
   237  2.36  0.  0.
   238  2.37  0.  0.
   239  2.38  0.  0.
   240  2.39  0.  0.
   241  2.40  0.  0.
   242  2.41  0.  0.
   243  2.42  0.  0.
   244  2.43  0.  0.
   245  2.44  0.  0.
   246  2.45  0.  0.
   247  2.46  0.  0.
   248  2.47  0.  0.
   249  2.48  0.  0.
   250  2.49  0.  0.
   251  2.50  0.  0.
   252  2.51  0.  0.
   253  2.52  0.  0.
   254  2.53  0.  0.
   255  2.54  0.  0.
   256  2.55  0.  0.
   257  2.56  0.  0.
   258  2.57  0.  0.
   259  2.58  0.  0.
   260  2.59  0.  0.
   261  2.60  0.  0.
   262  2.61  0.  0.
   263  2.62  0.  0.
   264  2.63  0.  0.
   265  2.64  0.  0.
   266  2.65  0.  0.
   267  2.66  0.  0.
   268  2.67  0.  0.
   269  2.68  0.  0.
   270  2.69  0.  0.
   271  2.70  0.  0.
   272  2.71  0.  0.
   273  2.72  0.  0.
   274  2.73  0.  0.
   275  2.74  0.  0.
   276  2.75  0.  0.
   277  2.76  0.  0.
   278  2.77  0.  0.
   279  2.78  0.  0.
   280  2.79  0.  0.
   281  2.80  0.  0.
   282  2.81  0.  0.
   283  2.82  0.  0.
   284  2.83  0.  0.
   285  2.84  0.  0.
   286  2.85  0.  0.
   287  2.86  0.  0.
   288  2.87  0.  0.
   289  2.88  0.  0.
   290  2.89  0.  0.
   291  2.90  0.  0.
   292  2.91  0.  0.
   293  2.92  0.  0.
   294  2.93  0.  0.
   295  2.94  0.  0.
   296  2.95  0.  0.
   297  2.96  0.  0.
   298  2.97  0.  0.
   299  2.98  0.  0.
   300  2.99  0.  0.
   301  3.00  0.  0.
   302  3.01  0.  0.
   303  3.02  0.  0.
   304  3.03  0.  0.
   305  3.04  0.  0.
   306  3.05  0.  0.
   307  3.06  0.  0.
   308  3.07  0.  0.
   309  3.08  0.  0.
   310  3.09  0.  0.
   311  3.10  0.  0.
   312  3.11  0.  0.
   313  3.12  0.  0.
   314  3.13  0.  0.
   315  3.14  0.  0.
   316  3.15  0.  0.
   317  3.16  0.  0.
   318  3.17  0.  0.
   319  3.18  0.  0.
   320  3.19  0.  0.
   321  3.20  0.  0.
   322  3.21  0.  0.
   323  3.22  0.  0.
   324  3.23  0.  0.
   325  3.24  0.  0.
   326  3.25  0.  0.
   327  3.26  0.  0.
   328  3.27  0.  0.
   329  3.28  0.  0.
   330  3.29  0.  0.
   331  3.30  0.  0.
   332  3.31  0.  0.
   333  3.32  0.  0.
   334  3.33  0.  0.
   335  3.34  0.  0.
   336  3.35  0.  0.
   337  3.36  0.  0.
   338  3.37  0.  0.
   339  3.38  0.  0.
   340  3.39  0.  0.
   341  3.40  0.  0.
   342  3.41  0.  0.
   343  3.42  0.  0.
   344  3.43  0.  0.
   345  3.44  0.  0.
   346  3.45  0.  0.
   347  3.46  0.  0.
   348  3.47  0.  0.
   349  3.48  0.  0.
   350  3.49  0.  0.
   351  3.50  0.  0.
   352  3.51  0.  0.
   353  3.52  0.  0.
   354  3.53  0.  0.
   355  3.54  0.  0.
   356  3.55  0.  0.
   357  3.56  0.  0.
   358  3.57  0.  0.
   359  3.58  0.  0.
   360  3.59  0.  0.
   361  3.60  0.  0.
   362  3.61  0.  0.
   363  3.62  0.  0.
   364  3.63  0.  0.
   365  3.64  0.  0.
   366  3.65  0.  0.
   367  3.66  0.  0.
   368  3.67  0.  0.
   369  3.68  0.  0.
   370  3.69  0.  0.
   371  3.70  0.  0.
   372  3.71  0.  0.
   373  3.72  0.  0.
   374  3.73  0.  0.
   375  3.74  0.  0.
   376  3.75  0.  0.
   377  3.76  0.  0.
   378  3.77  0.  0.
   379  3.78  0.  0.
   380  3.79  0.  0.
   381  3.80  0.  0.
   382  3.81  0.  0.
   383  3.82  0.  0.
   384  3.83  0.  0.
   385  3.84  0.  0.
   386  3.85  0.  0.
   387  3.86  0.  0.
   388  3.87  0.  0.
   389  3.88  0.  0.
   390  3.89  0.  0.
   391  3.90  0.  0.
   392  3.91  0.  0.
   393  3.92  0.  0.
   394  3.93  0.  0.
   395  3.94  0.  0.
   396  3.95  0.  0.
   397  3.96  0.  0.
   398  3.97  0.  0.
   399  3.98  0.  0.
   400  3.99  0.  0.
   401  4.00  0.  0.
   402  4.01  0.  0.
   403  4.02  0.  0.
   404  4.03  0.  0.
   405  4.04  0.  0.
   406  4.05  0.  0.
   407  4.06  0.  0.
   408  4.07  0.  0.
   409  4.08  0.  0.
   410  4.09  0.  0.
   411  4.10  0.  0.
   412  4.11  0.  0.
   413  4.12  0.  0.
   414  4.13  0.  0.
   415  4.14  0.  0.
   416  4.15  0.  0.
   417  4.16  0.  0.
   418  4.17  0.  0.
   419  4.18  0.  0.
   420  4.19  0.  0.
   421  4.20  0.  0.
   422  4.21  0.  0.
   423  4.22  0.  0.
   424  4.23  0.  0.
   425  4.24  0.  0.
   426  4.25  0.  0.
   427  4.26  0.  0.
   428  4.27  0.  0.
   429  4.28  0.  0.
   430  4.29  0.  0.
   431  4.30  0.  0.
   432  4.31  0.  0.
   433  4.32  0.  0.
   434  4.33  0.  0.
   435  4.34  0.  0.
   436  4.35  0.  0.
   437  4.36  0.  0.
   438  4.37  0.  0.
   439  4.38  0.  0.
   440  4.39  0.  0.
   441  4.40  0.  0.
   442  4.41  0.  0.
   443  4.42  0.  0.
   444  4.43  0.  0.
   445  4.44  0.  0.
   446  4.45  0.  0.
   447  4.46  0.  0.
   448  4.47  0.  0.
   449  4.48  0.  0.
   450  4.49  0.  0.
   451  4.50  0.  0.
   452  4.51  0.  0.
   453  4.52  0.  0.
   454  4.53  0.  0.
   455  4.54  0.  0.
   456  4.55  0.  0.
   457  4.56  0.  0.
   458  4.57  0.  0.
   459  4.58  0.  0.
   460  4.59  0.  0.
   461  4.60  0.  0.
   462  4.61  0.  0.
   463  4.62  0.  0.
   464  4.63  0.  0.
   465  4.64  0.  0.
   466  4.65  0.  0.
   467  4.66  0.  0.
   468  4.67  0.  0.
   469  4.68  0.  0.
   470  4.69  0.  0.
   471  4.70  0.  0.
   472  4.71  0.  0.
   473  4.72  0.  0.
   474  4.73  0.  0.
   475  4.74  0.  0.
   476  4.75  0.  0.
   477  4.76  0.  0.
   478  4.77  0.  0.
   479  4.78  0.  0.
   480  4.79  0.  0.
   481  4.80  0.  0.
   482  4.81  0.  0.
   483  4.82  0.  0.
   484  4.83  0.  0.
   485  4.84  0.  0.
   486  4.85  0.  0.
   487  4.86  0.  0.
   488  4.87  0.  0.
   489  4.88  0.  0.
   490  4.89  0.  0.
   491  4.90  0.  0.
   492  4.91  0.  0.
   493  4.92  0.  0.
   494  4.93  0.  0.
   495  4.94  0.  0.
   496  4.95  0.  0.
   497  4.96  0.  0.
   498  4.97  0.  0.
   499  4.98  0.  0.
   500  4.99  0.  0.
   501  5.00  0.  0.
   502  5.01  0.  0.
   503  5.02  0.  0.
   504  5.03  0.  0.
   505  5.04  0.  0.
   506  5.05  0.  0.
   507  5.06  0.  0.
   508  5.07  0.  0.
   509  5.08  0.  0.
   510  5.09  0.  0.
   511  5.10  0.  0.
   512  5.11  0.  0.
   513  5.12  0.  0.
   514  5.13  0.  0.
   515  5.14  0.  0.
   516  5.15  0.  0.
   517  5.16  0.  0.
   518  5.17  0.  0.
   519  5.18  0.  0.
   520  5.19  0.  0.
   521  5.20  0.  0.
   522  5.21  0.  0.
   523  5.22  0.  0.
   524  5.23  0.  0.
   525  5.24  0.  0.
   526  5.25  0.  0.
   527  5.26  0.  0.
   528  5.27  0.  0.
   529  5.28  0.  0.
   530  5.29  0.  0.
   531  5.30  0.  0.
   532  5.31  0.  0.
   533  5.32  0.  0.
   534  5.33  0.  0.
   535  5.34  0.  0.
   536  5.35  0.  0.
   537  5.36  0.  0.
   538  5.37  0.  0.
   539  5.38  0.  0.
   540  5.39  0.  0.
   541  5.40  0.  0.
   542  5.41  0.  0.
   543  5.42  0.  0.
   544  5.43  0.  0.
   545  5.44  0.  0.
   546  5.45  0.  0.
   547  5.46  0.  0.
   548  5.47  0.  0.
   549  5.48  0.  0.
   550  5.49  0.  0.
   551  5.50  0.  0.
   552  5.51  0.  0.
   553  5.52  0.  0.
   554  5.53  0.  0.
   555  5.54  0.  0.
   556  5.55  0.  0.
   557  5.56  0.  0.
   558  5.57  0.  0.
   559  5.58  0.  0.
   560  5.59  0.  0.
   561  5.60  0.  0.
   562  5.61  0.  0.
   563  5.62  0.  0.
   564  5.63  0.  0.
   565  5.64  0.  0.
   566  5.65  0.  0.
   567  5.66  0.  0.
   568  5.67  0.  0.
   569  5.68  0.  0.
   570  5.69  0.  0.
   571  5.70  0.  0.
   572  5.71  0.  0.
   573  5.72  0.  0.
   574  5.73  0.  0.
   575  5.74  0.  0.
   576  5.75  0.  0.
   577  5.76  0.  0.
   578  5.77  0.  0.
   579  5.78  0.  0.
   580  5.79  0.  0.
   581  5.80  0.  0.
   582  5.81  0.  0.
   583  5.82  0.  0.
   584  5.83  0.  0.
   585  5.84  0.  0.
   586  5.85  0.  0.
   587  5.86  0.  0.
   588  5.87  0.  0.
   589  5.88  0.  0.
   590  5.89  0.  0.
   591  5.90  0.  0.
   592  5.91  0.  0.
   593  5.92  0.  0.
   594  5.93  0.  0.
   595  5.94  0.  0.
   596  5.95  0.  0.
   597  5.96  0.  0.
   598  5.97  0.  0.
   599  5.98  0.  0.
   600  5.99  0.  0.
   1                         1.7700892494389E+00 -2.1789084708153E-01 -2.7717811570293E-03
     1  0.0000000000000E+00  2.7160955706762E-09  5.2878185413663E-08  2.3869271163768E-08
     2  1.0000000000000E-02  2.4688264447893E-03  2.6696827765770E-03  7.7115551441962E-04
     3  2.0000000000000E-02  9.8596776165545E-03  1.0617987229357E-02  3.0607740495658E-03
     4  3.0000000000000E-02  2.2125796753927E-02  2.3664080291285E-02  6.7979377872872E-03
     5  4.0000000000000E-02  3.9189680116149E-02  4.1511203452202E-02  1.1866523345209E-02
     6  5.0000000000000E-02  6.0943707841119E-02  6.3753506561641E-02  1.8108261308198E-02
     7  6.0000000000000E-02  8.7251016370877E-02  8.9885395484170E-02  2.5326920798271E-02
     8  7.0000000000000E-02  1.1794660188271E-01  1.1931317978498E-01  3.3293522880049E-02
     9  8.0000000000000E-02  1.5283864144798E-01  1.5136875374526E-01  4.1752462729578E-02
    10  9.0000000000000E-02  1.9171001614229E-01  1.8532499704443E-01  5.0428399218098E-02
    11  1.0000000000000E-01  2.3432001809071E-01  2.2041254145274E-01  5.9033752362549E-02
    12  1.1000000000000E-01  2.8040622148443E-01  2.5583751775244E-01  6.7276634383198E-02
    13  1.2000000000000E-01  3.2968649598088E-01  2.9079987358468E-01  7.4869029159824E-02
    14  1.3000000000000E-01  3.8186113962039E-01  3.2451183854859E-01  8.1535028009619E-02
    15  1.4000000000000E-01  4.3661510747724E-01  3.5621610800351E-01  8.7018927044435E-02
    16  1.5000000000000E-01  4.9362031172011E-01  3.8520332180078E-01  9.1092992967981E-02
    17  1.6000000000000E-01  5.5253796859078E-01  4.1082842851763E-01  9.3564710074426E-02
    18  1.7000000000000E-01  6.1302096801601E-01  4.3252554942302E-01  9.4283331230084E-02
    19  1.8000000000000E-01  6.7471624213575E-01  4.4982098888279E-01  9.3145569662005E-02
    20  1.9000000000000E-01  7.3726710994345E-01  4.6234407854870E-01  9.0100286027183E-02
    21  2.0000000000000E-01  8.0031557646781E-01  4.6983559060664E-01  8.5152046291141E-02
    22  2.1000000000000E-01  8.6350456645102E-01  4.7215350957915E-01  7.8363449808297E-02
    23  2.2000000000000E-01  9.2648007426134E-01  4.6927601151331E-01  6.9856153323126E-02
    24  2.3000000000000E-01  9.8889321377966E-01  4.6130156256830E-01  5.9810544730319E-02
    25  2.4000000000000E-01  1.0504021541771E+00  4.4844611466964E-01  4.8464049822683E-02
    26  2.5000000000000E-01  1.1106739298103E+00  4.3103744258712E-01  3.6108085282020E-02
    27  2.6000000000000E-01  1.1693861148527E+00  4.0950673305294E-01  2.3083701163929E-02
    28  2.7000000000000E-01  1.2262283557116E+00  3.8437760089486E-01  9.7759854836012E-03
    29  2.8000000000000E-01  1.2809037566955E+00  3.5625276817776E-01 -3.3926684142200E-03
    30  2.9000000000000E-01  1.3331301167592E+00  3.2579869864575E-01 -1.5970304871414E-02
    31  3.0000000000000E-01  1.3826410174089E+00  2.9372853004674E-01 -2.7484008762609E-02
    32  3.1000000000000E-01  1.4291867639635E+00  2.6078369003651E-01 -3.7449196947052E-02
    33  3.2000000000000E-01  1.4725351842979E+00  2.2771461626988E-01 -4.5379409840890E-02
    34  3.3000000000000E-01  1.5124722909109E+00  1.9526102714404E-01 -5.0796401279349E-02
    35  3.4000000000000E-01  1.5488028136292E+00  1.6413220578980E-01 -5.3240315624475E-02
    36  3.5000000000000E-01  1.5813506114658E+00  1.3498776585462E-01 -5.2279736321969E-02
    37  3.6000000000000E-01  1.6099589730738E+00  1.0841936313290E-01 -4.7521389874055E-02
    38  3.7000000000000E-01  1.6344908158651E+00  8.4933802157936E-02 -3.8619293586514E-02
    39  3.8000000000000E-01  1.6548287942026E+00  6.4937961678886E-02 -2.5283144388552E-02
    40  3.9000000000000E-01  1.6708753271130E+00  4.8725927927094E-02 -7.2857593541490E-03
    41  4.0000000000000E-01  1.6825525557335E+00  3.6468680385887E-02  1.5530603923034E-02
    42  4.1000000000000E-01  1.6898022402011E+00  2.8206622259477E-02  4.3249197612120E-02
    43  4.2000000000000E-01  1.6925856049443E+00  2.3845188035041E-02  7.5875130331660E-02
    44  4.3000000000000E-01  1.6908831403797E+00  2.3153694663310E-02  1.1333320827784E-01
    45  4.4000000000000E-01  1.6846943678692E+00  2.5767532297044E-02  1.5546733877082E-01
    46  4.5000000000000E-01  1.6740375735019E+00  3.1193716710777E-02  2.0204153233548E-01
    47  4.6000000000000E-01  1.6589495148699E+00  3.8819750034992E-02  2.5274250649624E-01
    48  4.7000000000000E-01  1.6394851035424E+00  4.7925660899269E-02  3.0718386106664E-01
    49  4.8000000000000E-01  1.6157170644594E+00  5.7699021137727E-02  3.6491176160183E-01
    50  4.9000000000000E-01  1.5877355720027E+00  6.7252665488793E-02  4.2541203553062E-01
    51  5.0000000000000E-01  1.5556478611052E+00  7.5644774808948E-02  4.8811855498079E-01
    52  5.1000000000000E-01  1.5195778104654E+00  8.1900923719961E-02  5.5242275211654E-01
    53  5.2000000000000E-01  1.4796654937877E+00  8.5037641691234E-02  6.1768408753393E-01
    54  5.3000000000000E-01  1.4360666939986E+00  8.4086993585119E-02  6.8324127047216E-01
    55  5.4000000000000E-01  1.3889523746310E+00  7.8121652703871E-02  7.4842401176473E-01
    56  5.5000000000000E-01  1.3385081020446E+00  6.6279917259029E-02  8.1256507701765E-01
    57  5.6000000000000E-01  1.2849334118832E+00  4.7790110561379E-02  8.7501239877464E-01
    58  5.7000000000000E-01  1.2284411131691E+00  2.1993806529589E-02  9.3514100260252E-01
    59  5.8000000000000E-01  1.1692565237128E+00 -1.1632664521153E-02  9.9236450331898E-01
    60  5.9000000000000E-01  1.1076166310687E+00 -5.3458949504235E-02  1.0461459338924E+00
    61  6.0000000000000E-01  1.0437691740889E+00 -1.0368412833448E-01  1.0960076809024E+00
    62  6.1000000000000E-01  9.7797164120612E-01 -1.6232332659977E-01  1.1415403165777E+00
    63  6.2000000000000E-01  9.1049018288943E-01 -2.2919786174219E-01  1.1824101380963E+00
    64  6.3000000000000E-01  8.4159843723968E-01 -3.0392923211948E-01  1.2183652496059E+00
    65  6.4000000000000E-01  7.7157626938967E-01 -3.8593718328173E-01  1.2492400508507E+00
    66  6.5000000000000E-01  7.0070842721455E-01 -4.7444200442166E-01  1.2749580278080E+00
    67  6.6000000000000E-01  6.2928311779451E-01 -5.6847112186931E-01  1.2955327747008E+00
    68  6.7000000000000E-01  5.5759051106297E-01 -6.6686996745210E-01  1.3110672124833E+00
    69  6.8000000000000E-01  4.8592117907048E-01 -7.6831700935239E-01  1.3217510056816E+00
    70  6.9000000000000E-01  4.1456448124931E-01 -8.7134274366493E-01  1.3278562165151E+00
    71  7.0000000000000E-01  3.4380690792740E-01 -9.7435235806268E-01  1.3297312718079E+00
    72  7.1000000000000E-01  2.7393039606437E-01 -1.0756516966953E+00  1.3277933535058E+00
    73  7.2000000000000E-01  2.0521063272195E-01 -1.1734760794591E+00  1.3225193569257E+00
    74  7.3000000000000E-01  1.3791536309159E-01 -1.2660214607782E+00  1.3144355915033E+00
    75  7.4000000000000E-01  7.2302720945950E-02 -1.3514773545547E+00  1.3041064260119E+00
    76  7.5000000000000E-01  8.6196001232232E-03 -1.4280609043559E+00  1.2921221035425E+00
    77  7.6000000000000E-01 -5.2899913933387E-02 -1.4940514423400E+00  1.2790859703303E+00
    78  7.7000000000000E-01 -1.1203603349640E-01 -1.5478248578043E+00  1.2656013764514E+00
    79  7.8000000000000E-01 -1.6858465995302E-01 -1.5878870872089E+00  1.2522585150912E+00
    80  7.9000000000000E-01 -2.2235865917415E-01 -1.6129060424759E+00  1.2396214703597E+00
    81  8.0000000000000E-01 -2.7318900379002E-01 -1.6217413133520E+00  1.2282157413652E+00
    82  8.1000000000000E-01 -3.2092576671337E-01 -1.6134710124716E+00  1.2185165024181E+00
    83  8.2000000000000E-01 -3.6543895199965E-01 -1.5874151779406E+00  1.2109378460639E+00
    84  8.3000000000000E-01 -4.0661915119882E-01 -1.5431552070199E+00  1.2058232372581E+00
    85  8.4000000000000E-01 -4.4437801570433E-01 -1.4805488647414E+00  1.2034373838373E+00
    86  8.5000000000000E-01 -4.7864853820004E-01 -1.3997404917503E+00  1.2039597009143E+00
    87  8.6000000000000E-01 -5.0938513910117E-01 -1.3011661247788E+00  1.2074795155182E+00
    88  8.7000000000000E-01 -5.3656355682834E-01 -1.1855533391961E+00  1.2139931233081E+00
    89  8.8000000000000E-01 -5.6018054379009E-01 -1.0539157241431E+00  1.2234027722611E+00
    90  8.9000000000000E-01 -5.8025337301958E-01 -9.0754200481801E-01  1.2355176095927E+00
    91  9.0000000000000E-01 -5.9681916345586E-01 -7.4797993142587E-01  1.2500565886239E+00
    92  9.1000000000000E-01 -6.0993403481708E-01 -5.7701515799149E-01  1.2666532927167E+00
    93  9.2000000000000E-01 -6.1967210582267E-01 -3.9664543450496E-01  1.2848625945261E+00
    94  9.3000000000000E-01 -6.2612435212406E-01 -2.0905053063971E-01  1.3041690315561E+00
    95  9.4000000000000E-01 -6.2939734264407E-01 -1.6558396519758E-02  1.3239967440817E+00
    96  9.5000000000000E-01 -6.2961187505283E-01  1.7839185610327E-01  1.3437207896902E+00
    97  9.6000000000000E-01 -6.2690153277528E-01  3.7328950211932E-01  1.3626796206901E+00
    98  9.7000000000000E-01 -6.2141118719588E-01  5.6559357638531E-01  1.3801884869923E+00
    99  9.8000000000000E-01 -6.1329546956515E-01  7.5277532725635E-01  1.3955535083518E+00
   100  9.9000000000000E-01 -6.0271723749943E-01  9.3236097974607E-01  1.4080861464661E+00
   101  1.0000000000000E+00 -5.8984606088297E-01  1.1019740274049E+00  1.4171177996133E+00
   102  1.0100000000000E+00 -5.7485675142603E-01  1.2593762774232E+00  1.4220142405561E+00
   103  1.0200000000000E+00 -5.5792795910855E-01  1.4025068946163E+00  1.4221896222822E+00
   104  1.0300000000000E+00 -5.3924085725876E-01  1.5295187265713E+00  1.4171197858348E+00
   105  1.0400000000000E+00 -5.1897793610213E-01  1.6388112437027E+00  1.4063546197642E+00
   106  1.0500000000000E+00 -4.9732192230616E-01  1.7290594932301E+00  1.3895292412887E+00
   107  1.0600000000000E+00 -4.7445483937109E-01  1.7992385441241E+00  1.3663737947170E+00
   108  1.0700000000000E+00 -4.5055722073340E-01  1.8486429891796E+00  1.3367216924925E+00
   109  1.0800000000000E+00 -4.2580748421194E-01  1.8769011687909E+00  1.3005161577091E+00
   110  1.0900000000000E+00 -4.0038147298421E-01  1.8839838871553E+00  1.2578149635726E+00
   111  1.1000000000000E+00 -3.7445216472390E-01  1.8702075026528E+00  1.2087933040014E+00
   112  1.1100000000000E+00 -3.4818954689445E-01  1.8362313887817E+00  1.1537447698950E+00
   113  1.1200000000000E+00 -3.2176065258385E-01  1.7830498769168E+00  1.0930804463461E+00