V     ONCVPSP-4.0.1  r_core=   1.30295   1.30295   1.65519
     23.0000     13.0000      231019    zatom,zion,pspd
     8       2   2     4   600     0    pspcod,pspxc,lmax,lloc,mmax,r2well
  5.99000000  5.00000000  0.00000000    rchrg fchrg qchrg
     2     2     2     0     0    nproj
     1     1           extension_switch
   0                         1.1621522392452E+01  1.2960563605834E+00
     1  0.0000000000000E+00  4.4213074312793E-09 -1.3630499257067E-08
     2  1.0000000000000E-02  8.5297305525663E-02 -2.8977183694377E-02
     3  2.0000000000000E-02  1.7041925484014E-01 -5.7883886399653E-02
     4  3.0000000000000E-02  2.5518960013269E-01 -8.6645957378366E-02
     5  4.0000000000000E-02  3.3943035263706E-01 -1.1518203589485E-01
     6  5.0000000000000E-02  4.2296101658126E-01 -1.4340026631655E-01
     7  6.0000000000000E-02  5.0559794517389E-01 -1.7119538722439E-01
     8  7.0000000000000E-02  5.8715385393641E-01 -1.9844630263698E-01
     9  8.0000000000000E-02  6.6743752226960E-01 -2.2501422982325E-01
    10  9.0000000000000E-02  7.4625370883657E-01 -2.5074150183240E-01
    11  1.0000000000000E-01  8.2340330029343E-01 -2.7545108424524E-01
    12  1.1000000000000E-01  8.9868370626037E-01 -2.9894684524346E-01
    13  1.2000000000000E-01  9.7188950637534E-01 -3.2101459644998E-01
    14  1.3000000000000E-01  1.0428133479952E+00 -3.4142389969379E-01
    15  1.4000000000000E-01  1.1112470857973E+00 -3.5993061249821E-01
    16  1.5000000000000E-01  1.1769831473822E+00 -3.7628012328694E-01
    17  1.6000000000000E-01  1.2398161021762E+00 -3.9021120663904E-01
    18  1.7000000000000E-01  1.2995444046612E+00 -4.0146040997065E-01
    19  1.8000000000000E-01  1.3559722773932E+00 -4.0976686629979E-01
    20  1.9000000000000E-01  1.4089116945520E+00 -4.1487741372938E-01
    21  2.0000000000000E-01  1.4581844230382E+00 -4.1655189136426E-01
    22  2.1000000000000E-01  1.5036240754879E+00 -4.1456847387820E-01
    23  2.2000000000000E-01  1.5450781281044E+00 -4.0872890310259E-01
    24  2.3000000000000E-01  1.5824098559481E+00 -3.9886347495458E-01
    25  2.4000000000000E-01  1.6155001392998E+00 -3.8483564380071E-01
    26  2.5000000000000E-01  1.6442490969075E+00 -3.6654611389903E-01
    27  2.6000000000000E-01  1.6685775052888E+00 -3.4393629871792E-01
    28  2.7000000000000E-01  1.6884279677243E+00 -3.1699104343556E-01
    29  2.8000000000000E-01  1.7037658020178E+00 -2.8574052343078E-01
    30  2.9000000000000E-01  1.7145796224074E+00 -2.5026125165476E-01
    31  3.0000000000000E-01  1.7208815980096E+00 -2.1067614991972E-01
    32  3.1000000000000E-01  1.7227073777073E+00 -1.6715366279424E-01
    33  3.2000000000000E-01  1.7201156792507E+00 -1.1990591734652E-01
    34  3.3000000000000E-01  1.7131875483390E+00 -6.9185956790545E-02
    35  3.4000000000000E-01  1.7020253013688E+00 -1.5284100511987E-02
    36  3.5000000000000E-01  1.6867511731871E+00  4.1476493666855E-02
    37  3.6000000000000E-01  1.6675056983490E+00  1.0074496741135E-01
    38  3.7000000000000E-01  1.6444458608866E+00  1.6214848296628E-01
    39  3.8000000000000E-01  1.6177430532507E+00  2.2529839374922E-01
    40  3.9000000000000E-01  1.5875808897535E+00  2.8979671741477E-01
    41  4.0000000000000E-01  1.5541529233735E+00  3.5524275467148E-01
    42  4.1000000000000E-01  1.5176603170968E+00  4.2123969142644E-01
    43  4.2000000000000E-01  1.4783095219723E+00  4.8740102031435E-01
    44  4.3000000000000E-01  1.4363100137320E+00  5.5335662043545E-01
    45  4.4000000000000E-01  1.3918721381494E+00  6.1875834117307E-01
    46  4.5000000000000E-01  1.3452051123242E+00  6.8328494716107E-01
    47  4.6000000000000E-01  1.2965152248433E+00  7.4664629659696E-01
    48  4.7000000000000E-01  1.2460042723787E+00  8.0858664380819E-01
    49  4.8000000000000E-01  1.1938682638739E+00  8.6888697884685E-01
    50  4.9000000000000E-01  1.1402964161871E+00  9.2736634138574E-01
    51  5.0000000000000E-01  1.0854704570973E+00  9.8388207272156E-01
    52  5.1000000000000E-01  1.0295642431264E+00  1.0383289975977E+00
    53  5.2000000000000E-01  9.7274369090685E-01  1.0906375561349E+00
    54  5.3000000000000E-01  9.1516701205878E-01  1.1407709346707E+00
    55  5.4000000000000E-01  8.5698523295558E-01  1.1887212720115E+00
    56  5.5000000000000E-01  7.9834297258657E-01  1.2345050437634E+00
    57  5.6000000000000E-01  7.3937944418510E-01  1.2781577513242E+00
    58  5.7000000000000E-01  6.8022963959017E-01  1.3197280631212E+00
    59  5.8000000000000E-01  6.2102564963593E-01  1.3592715731815E+00
    60  5.9000000000000E-01  5.6189806938053E-01  1.3968443556032E+00
    61  6.0000000000000E-01  5.0297743383029E-01  1.4324965025261E+00
    62  6.1000000000000E-01  4.4439562809041E-01  1.4662658374869E+00
    63  6.2000000000000E-01  3.8628721564711E-01  1.4981719953546E+00
    64  6.3000000000000E-01  3.2879062979084E-01  1.5282110543359E+00
    65  6.4000000000000E-01  2.7204917601594E-01  1.5563508948380E+00
    66  6.5000000000000E-01  2.1621179753272E-01  1.5825274444795E+00
    67  6.6000000000000E-01  1.6143356171823E-01  1.6066419485344E+00
    68  6.7000000000000E-01  1.0787583228693E-01  1.6285593810218E+00
    69  6.8000000000000E-01  5.5706100027436E-02  1.6481080840282E+00
    70  6.9000000000000E-01  5.0974539363721E-03  1.6650806923234E+00
    71  7.0000000000000E-01 -4.3772315729152E-02  1.6792363676084E+00
    72  7.1000000000000E-01 -9.0721980798671E-02  1.6903043326127E+00
    73  7.2000000000000E-01 -1.3556849287708E-01  1.6979886605613E+00
    74  7.3000000000000E-01 -1.7812893298579E-01  1.7019742411390E+00
    75  7.4000000000000E-01 -2.1822276074771E-01  1.7019338108532E+00
    76  7.5000000000000E-01 -2.5567432126156E-01  1.6975359044987E+00
    77  7.6000000000000E-01 -2.9031555919204E-01  1.6884535560892E+00
    78  7.7000000000000E-01 -3.2198888204542E-01  1.6743735528989E+00
    79  7.8000000000000E-01 -3.5055010832040E-01  1.6550060258541E+00
    80  7.9000000000000E-01 -3.7587143140504E-01  1.6300941440202E+00
    81  8.0000000000000E-01 -3.9784432688663E-01  1.5994236708316E+00
    82  8.1000000000000E-01 -4.1638232946454E-01  1.5628321353713E+00
    83  8.2000000000000E-01 -4.3142360598195E-01  1.5202173736482E+00
    84  8.3000000000000E-01 -4.4293325324905E-01  1.4715452025215E+00
    85  8.4000000000000E-01 -4.5090525330422E-01  1.4168560026209E+00
    86  8.5000000000000E-01 -4.5536402448941E-01  1.3562700060899E+00
    87  8.6000000000000E-01 -4.5636551409735E-01  1.2899911098743E+00
    88  8.7000000000000E-01 -4.5399778723420E-01  1.2183090650960E+00
    89  8.8000000000000E-01 -4.4838107674511E-01  1.1415999271599E+00
    90  8.9000000000000E-01 -4.3966727034900E-01  1.0603246888914E+00
    91  9.0000000000000E-01 -4.2803882327182E-01  9.7502605936654E-01
    92  9.1000000000000E-01 -4.1370709737515E-01  8.8632339323490E-01
    93  9.2000000000000E-01 -3.9691014075510E-01  7.9490581828231E-01
    94  9.3000000000000E-01 -3.7790993472823E-01  7.0152365171611E-01
    95  9.4000000000000E-01 -3.5698914771287E-01  6.0697823714723E-01
    96  9.5000000000000E-01 -3.3444744745440E-01  5.1211037349804E-01
    97  9.6000000000000E-01 -3.1059743402830E-01  4.1778754308478E-01
    98  9.7000000000000E-01 -2.8576026581353E-01  3.2489017801914E-01
    99  9.8000000000000E-01 -2.6026105890450E-01  2.3429723100678E-01
   100  9.9000000000000E-01 -2.3442414700517E-01  1.4687133788039E-01
   101  1.0000000000000E+00 -2.0856829354017E-01  6.3443874199706E-02
   102  1.0100000000000E+00 -1.8300195038302E-01 -1.5199783482801E-02
   103  1.0200000000000E+00 -1.5801865815047E-01 -8.8334479834303E-02
   104  1.0300000000000E+00 -1.3389268139862E-01 -1.5530868047261E-01
   105  1.0400000000000E+00 -1.1087496828197E-01 -2.1555675628815E-01
   106  1.0500000000000E+00 -8.9189518373654E-02 -2.6860987934553E-01
   107  1.0600000000000E+00 -6.9030234479653E-02 -3.1410528386274E-01
   108  1.0700000000000E+00 -5.0558324583436E-02 -3.5179367828454E-01
   109  1.0800000000000E+00 -3.3900308743235E-02 -3.8154463229105E-01
   110  1.0900000000000E+00 -1.9146673020337E-02 -4.0334980507524E-01
   111  1.1000000000000E+00 -6.3511987169480E-03 -4.1732392714768E-01
   112  1.1100000000000E+00  4.4690194722210E-03 -4.2370349667830E-01
   113  1.1200000000000E+00  1.3332867878835E-02 -4.2284320143637E-01
   114  1.1300000000000E+00  2.0293837615996E-02 -4.1521012801145E-01
   115  1.1400000000000E+00  2.5438009459775E-02 -4.0137586970008E-01
   116  1.1500000000000E+00  2.8881446151320E-02 -3.8200669235458E-01
   117  1.1600000000000E+00  3.0767051987239E-02 -3.5785196226083E-01
   118  1.1700000000000E+00  3.1260971966993E-02 -3.2973108094118E-01
   119  1.1800000000000E+00  3.0548613613552E-02 -2.9851920741383E-01
   120  1.1900000000000E+00  2.8830383820102E-02 -2.6513207876519E-01
   121  1.2000000000000E+00  2.6317236379494E-02 -2.3051024749260E-01
   122  1.2100000000000E+00  2.3226150584280E-02 -1.9560315115137E-01
   123  1.2200000000000E+00  1.9774389732552E-02 -1.6134825346086E-01
   124  1.2300000000000E+00  1.6170983008625E-02 -1.2863914878235E-01
   125  1.2400000000000E+00  1.2609656331524E-02 -9.8301377528568E-02
   126  1.2500000000000E+00  9.2529552092827E-03 -7.1050577398416E-02
   127  1.2600000000000E+00  6.2540170287132E-03 -4.7537267037283E-02
   128  1.2700000000000E+00  3.7469499220774E-03 -2.8323043498303E-02
   129  1.2800000000000E+00  1.8342176174471E-03 -1.3848793665651E-02
   130  1.2900000000000E+00  5.8197530966173E-04 -4.4077781908074E-03
   131  1.3000000000000E+00  4.0262161154494E-05 -3.0732282460072E-04
   132  1.3100000000000E+00 -2.1190011906818E-06  1.6232437531065E-05
   133  1.3200000000000E+00 -3.2026877418808E-07  2.4337444516071E-06
   134  1.33  0. -0.
   135  1.34  0.  0.
   136  1.35  0.  0.
   137  1.36  0.  0.
   138  1.37  0.  0.
   139  1.38  0.  0.
   140  1.39  0.  0.
   141  1.40  0.  0.
   142  1.41  0.  0.
   143  1.42  0.  0.
   144  1.43  0.  0.
   145  1.44  0.  0.
   146  1.45  0.  0.
   147  1.46  0.  0.
   148  1.47  0.  0.
   149  1.48  0.  0.
   150  1.49  0.  0.
   151  1.50  0.  0.
   152  1.51  0.  0.
   153  1.52  0.  0.
   154  1.53  0.  0.
   155  1.54  0.  0.
   156  1.55  0.  0.
   157  1.56  0.  0.
   158  1.57  0.  0.
   159  1.58  0.  0.
   160  1.59  0.  0.
   161  1.60  0.  0.
   162  1.61  0.  0.
   163  1.62  0.  0.
   164  1.63  0.  0.
   165  1.64  0.  0.
   166  1.65  0.  0.
   167  1.66  0.  0.
   168  1.67  0.  0.
   169  1.68  0.  0.
   170  1.69  0.  0.
   171  1.70  0.  0.
   172  1.71  0.  0.
   173  1.72  0.  0.
   174  1.73  0.  0.
   175  1.74  0.  0.
   176  1.75  0.  0.
   177  1.76  0.  0.
   178  1.77  0.  0.
   179  1.78  0.  0.
   180  1.79  0.  0.
   181  1.80  0.  0.
   182  1.81  0.  0.
   183  1.82  0.  0.
   184  1.83  0.  0.
   185  1.84  0.  0.
   186  1.85  0.  0.
   187  1.86  0.  0.
   188  1.87  0.  0.
   189  1.88  0.  0.
   190  1.89  0.  0.
   191  1.90  0.  0.
   192  1.91  0.  0.
   193  1.92  0.  0.
   194  1.93  0.  0.
   195  1.94  0.  0.
   196  1.95  0.  0.
   197  1.96  0.  0.
   198  1.97  0.  0.
   199  1.98  0.  0.
   200  1.99  0.  0.
   201  2.00  0.  0.
   202  2.01  0.  0.
   203  2.02  0.  0.
   204  2.03  0.  0.
   205  2.04  0.  0.
   206  2.05  0.  0.
   207  2.06  0.  0.
   208  2.07  0.  0.
   209  2.08  0.  0.
   210  2.09  0.  0.
   211  2.10  0.  0.
   212  2.11  0.  0.
   213  2.12  0.  0.
   214  2.13  0.  0.
   215  2.14  0.  0.
   216  2.15  0.  0.
   217  2.16  0.  0.
   218  2.17  0.  0.
   219  2.18  0.  0.
   220  2.19  0.  0.
   221  2.20  0.  0.
   222  2.21  0.  0.
   223  2.22  0.  0.
   224  2.23  0.  0.
   225  2.24  0.  0.
   226  2.25  0.  0.
   227  2.26  0.  0.
   228  2.27  0.  0.
   229  2.28  0.  0.
   230  2.29  0.  0.
   231  2.30  0.  0.
   232  2.31  0.  0.
   233  2.32  0.  0.
   234  2.33  0.  0.
   235  2.34  0.  0.
   236  2.35  0.  0.
   237  2.36  0.  0.
   238  2.37  0.  0.
   239  2.38  0.  0.
   240  2.39  0.  0.
   241  2.40  0.  0.
   242  2.41  0.  0.
   243  2.42  0.  0.
   244  2.43  0.  0.
   245  2.44  0.  0.
   246  2.45  0.  0.
   247  2.46  0.  0.
   248  2.47  0.  0.
   249  2.48  0.  0.
   250  2.49  0.  0.
   251  2.50  0.  0.
   252  2.51  0.  0.
   253  2.52  0.  0.
   254  2.53  0.  0.
   255  2.54  0.  0.
   256  2.55  0.  0.
   257  2.56  0.  0.
   258  2.57  0.  0.
   259  2.58  0.  0.
   260  2.59  0.  0.
   261  2.60  0.  0.
   262  2.61  0.  0.
   263  2.62  0.  0.
   264  2.63  0.  0.
   265  2.64  0.  0.
   266  2.65  0.  0.
   267  2.66  0.  0.
   268  2.67  0.  0.
   269  2.68  0.  0.
   270  2.69  0.  0.
   271  2.70  0.  0.
   272  2.71  0.  0.
   273  2.72  0.  0.
   274  2.73  0.  0.
   275  2.74  0.  0.
   276  2.75  0.  0.
   277  2.76  0.  0.
   278  2.77  0.  0.
   279  2.78  0.  0.
   280  2.79  0.  0.
   281  2.80  0.  0.
   282  2.81  0.  0.
   283  2.82  0.  0.
   284  2.83  0.  0.
   285  2.84  0.  0.
   286  2.85  0.  0.
   287  2.86  0.  0.
   288  2.87  0.  0.
   289  2.88  0.  0.
   290  2.89  0.  0.
   291  2.90  0.  0.
   292  2.91  0.  0.
   293  2.92  0.  0.
   294  2.93  0.  0.
   295  2.94  0.  0.
   296  2.95  0.  0.
   297  2.96  0.  0.
   298  2.97  0.  0.
   299  2.98  0.  0.
   300  2.99  0.  0.
   301  3.00  0.  0.
   302  3.01  0.  0.
   303  3.02  0.  0.
   304  3.03  0.  0.
   305  3.04  0.  0.
   306  3.05  0.  0.
   307  3.06  0.  0.
   308  3.07  0.  0.
   309  3.08  0.  0.
   310  3.09  0.  0.
   311  3.10  0.  0.
   312  3.11  0.  0.
   313  3.12  0.  0.
   314  3.13  0.  0.
   315  3.14  0.  0.
   316  3.15  0.  0.
   317  3.16  0.  0.
   318  3.17  0.  0.
   319  3.18  0.  0.
   320  3.19  0.  0.
   321  3.20  0.  0.
   322  3.21  0.  0.
   323  3.22  0.  0.
   324  3.23  0.  0.
   325  3.24  0.  0.
   326  3.25  0.  0.
   327  3.26  0.  0.
   328  3.27  0.  0.
   329  3.28  0.  0.
   330  3.29  0.  0.
   331  3.30  0.  0.
   332  3.31  0.  0.
   333  3.32  0.  0.
   334  3.33  0.  0.
   335  3.34  0.  0.
   336  3.35  0.  0.
   337  3.36  0.  0.
   338  3.37  0.  0.
   339  3.38  0.  0.
   340  3.39  0.  0.
   341  3.40  0.  0.
   342  3.41  0.  0.
   343  3.42  0.  0.
   344  3.43  0.  0.
   345  3.44  0.  0.
   346  3.45  0.  0.
   347  3.46  0.  0.
   348  3.47  0.  0.
   349  3.48  0.  0.
   350  3.49  0.  0.
   351  3.50  0.  0.
   352  3.51  0.  0.
   353  3.52  0.  0.
   354  3.53  0.  0.
   355  3.54  0.  0.
   356  3.55  0.  0.
   357  3.56  0.  0.
   358  3.57  0.  0.
   359  3.58  0.  0.
   360  3.59  0.  0.
   361  3.60  0.  0.
   362  3.61  0.  0.
   363  3.62  0.  0.
   364  3.63  0.  0.
   365  3.64  0.  0.
   366  3.65  0.  0.
   367  3.66  0.  0.
   368  3.67  0.  0.
   369  3.68  0.  0.
   370  3.69  0.  0.
   371  3.70  0.  0.
   372  3.71  0.  0.
   373  3.72  0.  0.
   374  3.73  0.  0.
   375  3.74  0.  0.
   376  3.75  0.  0.
   377  3.76  0.  0.
   378  3.77  0.  0.
   379  3.78  0.  0.
   380  3.79  0.  0.
   381  3.80  0.  0.
   382  3.81  0.  0.
   383  3.82  0.  0.
   384  3.83  0.  0.
   385  3.84  0.  0.
   386  3.85  0.  0.
   387  3.86  0.  0.
   388  3.87  0.  0.
   389  3.88  0.  0.
   390  3.89  0.  0.
   391  3.90  0.  0.
   392  3.91  0.  0.
   393  3.92  0.  0.
   394  3.93  0.  0.
   395  3.94  0.  0.
   396  3.95  0.  0.
   397  3.96  0.  0.
   398  3.97  0.  0.
   399  3.98  0.  0.
   400  3.99  0.  0.
   401  4.00  0.  0.
   402  4.01  0.  0.
   403  4.02  0.  0.
   404  4.03  0.  0.
   405  4.04  0.  0.
   406  4.05  0.  0.
   407  4.06  0.  0.
   408  4.07  0.  0.
   409  4.08  0.  0.
   410  4.09  0.  0.
   411  4.10  0.  0.
   412  4.11  0.  0.
   413  4.12  0.  0.
   414  4.13  0.  0.
   415  4.14  0.  0.
   416  4.15  0.  0.
   417  4.16  0.  0.
   418  4.17  0.  0.
   419  4.18  0.  0.
   420  4.19  0.  0.
   421  4.20  0.  0.
   422  4.21  0.  0.
   423  4.22  0.  0.
   424  4.23  0.  0.
   425  4.24  0.  0.
   426  4.25  0.  0.
   427  4.26  0.  0.
   428  4.27  0.  0.
   429  4.28  0.  0.
   430  4.29  0.  0.
   431  4.30  0.  0.
   432  4.31  0.  0.
   433  4.32  0.  0.
   434  4.33  0.  0.
   435  4.34  0.  0.
   436  4.35  0.  0.
   437  4.36  0.  0.
   438  4.37  0.  0.
   439  4.38  0.  0.
   440  4.39  0.  0.
   441  4.40  0.  0.
   442  4.41  0.  0.
   443  4.42  0.  0.
   444  4.43  0.  0.
   445  4.44  0.  0.
   446  4.45  0.  0.
   447  4.46  0.  0.
   448  4.47  0.  0.
   449  4.48  0.  0.
   450  4.49  0.  0.
   451  4.50  0.  0.
   452  4.51  0.  0.
   453  4.52  0.  0.
   454  4.53  0.  0.
   455  4.54  0.  0.
   456  4.55  0.  0.
   457  4.56  0.  0.
   458  4.57  0.  0.
   459  4.58  0.  0.
   460  4.59  0.  0.
   461  4.60  0.  0.
   462  4.61  0.  0.
   463  4.62  0.  0.
   464  4.63  0.  0.
   465  4.64  0.  0.
   466  4.65  0.  0.
   467  4.66  0.  0.
   468  4.67  0.  0.
   469  4.68  0.  0.
   470  4.69  0.  0.
   471  4.70  0.  0.
   472  4.71  0.  0.
   473  4.72  0.  0.
   474  4.73  0.  0.
   475  4.74  0.  0.
   476  4.75  0.  0.
   477  4.76  0.  0.
   478  4.77  0.  0.
   479  4.78  0.  0.
   480  4.79  0.  0.
   481  4.80  0.  0.
   482  4.81  0.  0.
   483  4.82  0.  0.
   484  4.83  0.  0.
   485  4.84  0.  0.
   486  4.85  0.  0.
   487  4.86  0.  0.
   488  4.87  0.  0.
   489  4.88  0.  0.
   490  4.89  0.  0.
   491  4.90  0.  0.
   492  4.91  0.  0.
   493  4.92  0.  0.
   494  4.93  0.  0.
   495  4.94  0.  0.
   496  4.95  0.  0.
   497  4.96  0.  0.
   498  4.97  0.  0.
   499  4.98  0.  0.
   500  4.99  0.  0.
   501  5.00  0.  0.
   502  5.01  0.  0.
   503  5.02  0.  0.
   504  5.03  0.  0.
   505  5.04  0.  0.
   506  5.05  0.  0.
   507  5.06  0.  0.
   508  5.07  0.  0.
   509  5.08  0.  0.
   510  5.09  0.  0.
   511  5.10  0.  0.
   512  5.11  0.  0.
   513  5.12  0.  0.
   514  5.13  0.  0.
   515  5.14  0.  0.
   516  5.15  0.  0.
   517  5.16  0.  0.
   518  5.17  0.  0.
   519  5.18  0.  0.
   520  5.19  0.  0.
   521  5.20  0.  0.
   522  5.21  0.  0.
   523  5.22  0.  0.
   524  5.23  0.  0.
   525  5.24  0.  0.
   526  5.25  0.  0.
   527  5.26  0.  0.
   528  5.27  0.  0.
   529  5.28  0.  0.
   530  5.29  0.  0.
   531  5.30  0.  0.
   532  5.31  0.  0.
   533  5.32  0.  0.
   534  5.33  0.  0.
   535  5.34  0.  0.
   536  5.35  0.  0.
   537  5.36  0.  0.
   538  5.37  0.  0.
   539  5.38  0.  0.
   540  5.39  0.  0.
   541  5.40  0.  0.
   542  5.41  0.  0.
   543  5.42  0.  0.
   544  5.43  0.  0.
   545  5.44  0.  0.
   546  5.45  0.  0.
   547  5.46  0.  0.
   548  5.47  0.  0.
   549  5.48  0.  0.
   550  5.49  0.  0.
   551  5.50  0.  0.
   552  5.51  0.  0.
   553  5.52  0.  0.
   554  5.53  0.  0.
   555  5.54  0.  0.
   556  5.55  0.  0.
   557  5.56  0.  0.
   558  5.57  0.  0.
   559  5.58  0.  0.
   560  5.59  0.  0.
   561  5.60  0.  0.
   562  5.61  0.  0.
   563  5.62  0.  0.
   564  5.63  0.  0.
   565  5.64  0.  0.
   566  5.65  0.  0.
   567  5.66  0.  0.
   568  5.67  0.  0.
   569  5.68  0.  0.
   570  5.69  0.  0.
   571  5.70  0.  0.
   572  5.71  0.  0.
   573  5.72  0.  0.
   574  5.73  0.  0.
   575  5.74  0.  0.
   576  5.75  0.  0.
   577  5.76  0.  0.
   578  5.77  0.  0.
   579  5.78  0.  0.
   580  5.79  0.  0.
   581  5.80  0.  0.
   582  5.81  0.  0.
   583  5.82  0.  0.
   584  5.83  0.  0.
   585  5.84  0.  0.
   586  5.85  0.  0.
   587  5.86  0.  0.
   588  5.87  0.  0.
   589  5.88  0.  0.
   590  5.89  0.  0.
   591  5.90  0.  0.
   592  5.91  0.  0.
   593  5.92  0.  0.
   594  5.93  0.  0.
   595  5.94  0.  0.
   596  5.95  0.  0.
   597  5.96  0.  0.
   598  5.97  0.  0.
   599  5.98  0.  0.
   600  5.99  0.  0.
   1                         1.8071290870703E+00 -1.8554396750004E-01
     1  0.0000000000000E+00  3.5334540016141E-09  5.4048986897204E-08
     2  1.0000000000000E-02  2.5131289319734E-03  2.6624851084276E-03
     3  2.0000000000000E-02  1.0035919355660E-02  1.0588277267681E-02
     4  3.0000000000000E-02  2.2518731589438E-02  2.3593815089469E-02
     5  4.0000000000000E-02  3.9879328893816E-02  4.1377890647091E-02
     6  5.0000000000000E-02  6.2003614415085E-02  6.3528627512207E-02
     7  6.0000000000000E-02  8.8746648735513E-02  8.9533025502908E-02
     8  7.0000000000000E-02  1.1993393416404E-01  1.1878885361607E-01
     9  8.0000000000000E-02  1.5536294836797E-01  1.5061861856797E-01
    10  9.0000000000000E-02  1.9480490672270E-01  1.8428528836978E-01
    11  1.0000000000000E-01  2.3800672989855E-01  2.1900940948206E-01
    12  1.1000000000000E-01  2.8469319076137E-01  2.5398722325333E-01
    13  1.2000000000000E-01  3.3456921267601E-01  2.8840936329880E-01
    14  1.3000000000000E-01  3.8732228980217E-01  3.2147970077354E-01
    15  1.4000000000000E-01  4.4262499898263E-01  3.5243389950276E-01
    16  1.5000000000000E-01  5.0013757235611E-01  3.8055724779264E-01
    17  1.6000000000000E-01  5.5951049988372E-01  4.0520134839681E-01
    18  1.7000000000000E-01  6.2038713155143E-01  4.2579927227383E-01
    19  1.8000000000000E-01  6.8240625008176E-01  4.4187881495171E-01
    20  1.9000000000000E-01  7.4520458652984E-01  4.5307353583321E-01
    21  2.0000000000000E-01  8.0841925311434E-01  4.5913130975534E-01
    22  2.1000000000000E-01  8.7169006999740E-01  4.5992017552250E-01
    23  2.2000000000000E-01  9.3466176542792E-01  4.5543132677465E-01
    24  2.3000000000000E-01  9.9698603164024E-01  4.4577915513228E-01
    25  2.4000000000000E-01  1.0583234220913E+00  4.3119832266878E-01
    26  2.5000000000000E-01  1.1183450789577E+00  4.1203790893840E-01
    27  2.6000000000000E-01  1.1767342832280E+00  3.8875274553272E-01
    28  2.7000000000000E-01  1.2331878231477E+00  3.6189211695083E-01
    29  2.8000000000000E-01  1.2874171801294E+00  3.3208606897376E-01
    30  2.9000000000000E-01  1.3391495344667E+00  3.0002962332546E-01
    31  3.0000000000000E-01  1.3881285962204E+00  2.6646524886389E-01
    32  3.1000000000000E-01  1.4341152694161E+00  2.3216398367952E-01
    33  3.2000000000000E-01  1.4768881601566E+00  1.9790563823848E-01
    34  3.3000000000000E-01  1.5162439413613E+00  1.6445853621991E-01
    35  3.4000000000000E-01  1.5519975885532E+00  1.3255926627747E-01
    36  3.5000000000000E-01  1.5839825024068E+00  1.0289292412858E-01
    37  3.6000000000000E-01  1.6120505346131E+00  7.6074319891489E-02
    38  3.7000000000000E-01  1.6360719340075E+00  5.2630610420715E-02
    39  3.8000000000000E-01  1.6559352298462E+00  3.2985790744855E-02
    40  3.9000000000000E-01  1.6715470686088E+00  1.7447443023438E-02
    41  4.0000000000000E-01  1.6828320197749E+00  6.1960963644121E-03
    42  4.1000000000000E-01  1.6897323647045E+00 -7.2250274297587E-04
    43  4.2000000000000E-01  1.6922078810691E+00 -3.4019706700200E-03
    44  4.3000000000000E-01  1.6902356333007E+00 -2.0765461112882E-03
    45  4.4000000000000E-01  1.6838097772850E+00  2.8810705921905E-03
    46  4.5000000000000E-01  1.6729413850907E+00  1.0965322218335E-02
    47  4.6000000000000E-01  1.6576582929628E+00  2.1546790324911E-02
    48  4.7000000000000E-01  1.6380049731793E+00  3.3884451401277E-02
    49  4.8000000000000E-01  1.6140424277461E+00  4.7140987502388E-02
    50  4.9000000000000E-01  1.5858480993562E+00  6.0400873020357E-02
    51  5.0000000000000E-01  1.5535157926284E+00  7.2690891806323E-02
    52  5.1000000000000E-01  1.5171555964387E+00  8.3002677830451E-02
    53  5.2000000000000E-01  1.4768937962176E+00  9.0316819379484E-02
    54  5.3000000000000E-01  1.4328727634706E+00  9.3628022712031E-02
    55  5.4000000000000E-01  1.3852508085209E+00  9.1970797197345E-02
    56  5.5000000000000E-01  1.3342019816333E+00  8.4445101155273E-02
    57  5.6000000000000E-01  1.2799158072602E+00  7.0241376538583E-02
    58  5.7000000000000E-01  1.2225969361946E+00  4.8664401689093E-02
    59  5.8000000000000E-01  1.1624647009217E+00  1.9155404801877E-02
    60  5.9000000000000E-01  1.0997525604272E+00 -1.8688093626649E-02
    61  6.0000000000000E-01  1.0347074221372E+00 -6.5095203586267E-02
    62  6.1000000000000E-01  9.6758883051046E-01 -1.2010779903164E-01
    63  6.2000000000000E-01  8.9866801403540E-01 -1.8357024835326E-01
    64  6.3000000000000E-01  8.2822678497331E-01 -2.5512305968706E-01
    65  6.4000000000000E-01  7.5655628906633E-01 -3.3420068247339E-01
    66  6.5000000000000E-01  6.8395560554828E-01 -4.2003362374148E-01
    67  6.6000000000000E-01  6.1073020108149E-01 -5.1165494982643E-01
    68  6.7000000000000E-01  5.3719024462641E-01 -6.0791115340748E-01
    69  6.8000000000000E-01  4.6364879365440E-01 -7.0747727373536E-01
    70  6.9000000000000E-01  3.9041986546151E-01 -8.0887606664585E-01
    71  7.0000000000000E-01  3.1781641055232E-01 -9.1050093233602E-01
    72  7.1000000000000E-01  2.4614820806207E-01 -1.0106422248313E+00
    73  7.2000000000000E-01  1.7571970589774E-01 -1.1075164894146E+00
    74  7.3000000000000E-01  1.0682783063526E-01 -1.1992981047498E+00
    75  7.4000000000000E-01  3.9759794148560E-02 -1.2841527465746E+00
    76  7.5000000000000E-01 -2.5209074589681E-02 -1.3602720410630E+00
    77  7.6000000000000E-01 -8.7817443150310E-02 -1.4259087394286E+00
    78  7.7000000000000E-01 -1.4782000495745E-01 -1.4794117219947E+00
    79  7.8000000000000E-01 -2.0498939467848E-01 -1.5192601304643E+00
    80  7.9000000000000E-01 -2.5911796088685E-01 -1.5440959318616E+00
    81  8.0000000000000E-01 -3.1001936855981E-01 -1.5527542366850E+00
    82  8.1000000000000E-01 -3.5753000592113E-01 -1.5442907270022E+00
    83  8.2000000000000E-01 -4.0151017263747E-01 -1.5180055970191E+00
    84  8.3000000000000E-01 -4.4184502939015E-01 -1.4734634682776E+00
    85  8.4000000000000E-01 -4.7844529232016E-01 -1.4105088130056E+00
    86  8.5000000000000E-01 -5.1124765972453E-01 -1.3292765009241E+00
    87  8.6000000000000E-01 -5.4021496259458E-01 -1.2301971754475E+00
    88  8.7000000000000E-01 -5.6533603505422E-01 -1.1139972629272E+00
    89  8.8000000000000E-01 -5.8662530539295E-01 -9.8169352145046E-01
    90  8.9000000000000E-01 -6.0412211310276E-01 -8.3458214165612E-01
    91  9.0000000000000E-01 -6.1788976202874E-01 -6.7422251890903E-01
    92  9.1000000000000E-01 -6.2801432433233E-01 -5.0241592180904E-01
    93  9.2000000000000E-01 -6.3460321435159E-01 -3.2117938419039E-01
    94  9.3000000000000E-01 -6.3778355553176E-01 -1.3271524437599E-01
    95  9.4000000000000E-01 -6.3770036730474E-01  6.0623155578833E-02
    96  9.5000000000000E-01 -6.3451460203807E-01  2.5636901846474E-01
    97  9.6000000000000E-01 -6.2840106487981E-01  4.5198222794437E-01
    98  9.7000000000000E-01 -6.1954625143282E-01  6.4489135622264E-01
    99  9.8000000000000E-01 -6.0814613965063E-01  8.3253678615381E-01
   100  9.9000000000000E-01 -5.9440397311799E-01  1.0124141641615E+00
   101  1.0000000000000E+00 -5.7852807293840E-01  1.1821173895983E+00
   102  1.0100000000000E+00 -5.6072971478676E-01  1.3393803514630E+00
   103  1.0200000000000E+00 -5.4122110630408E-01  1.4821166446932E+00
   104  1.0300000000000E+00 -5.2021349792984E-01  1.6084565353172E+00
   105  1.0400000000000E+00 -4.9791545751803E-01  1.7167804959290E+00
   106  1.0500000000000E+00 -4.7453133571974E-01  1.8057486991904E+00
   107  1.0600000000000E+00 -4.5025994518671E-01  1.8743259363110E+00
   108  1.0700000000000E+00 -4.2529347223868E-01  1.9218015180024E+00
   109  1.0800000000000E+00 -3.9981663482724E-01  1.9478038154275E+00
   110  1.0900000000000E+00 -3.7400609549236E-01  1.9523092065853E+00
   111  1.1000000000000E+00 -3.4803013268146E-01  1.9356453064688E+00
   112  1.1100000000000E+00 -3.2204856833979E-01  1.8984884759165E+00
   113  1.1200000000000E+00 -2.9621294424375E-01  1.8418557209456E+00
   114  1.1300000000000E+00 -2.7066693419731E-01  1.7670912100582E+00
   115  1.1400000000000E+00 -2.4554697409065E-01  1.6758477484112E+00
   116  1.1500000000000E+00 -2.2098308700142E-01  1.5700636531442E+00
   117  1.1600000000000E+00 -1.9709987612760E-01  1.4519355708713E+00
   118  1.1700000000000E+00 -1.7401765443901E-01  1.3238878648578E+00
   119  1.1800000000000E+00 -1.5185367663118E-01  1.1885392733167E+00
   120  1.1900000000000E+00 -1.3072343638969E-01  1.0486676029649E+00
   121  1.2000000000000E+00 -1.1074198623310E-01  9.0717317573584E-01
   122  1.2100000000000E+00 -9.2025255976763E-02  7.6704225142173E-01
   123  1.2200000000000E+00 -7.4690128840369E-02  6.3128132950074E-01
   124  1.2300000000000E+00 -5.8852192468805E-02  5.0278642864953E-01
   125  1.2400000000000E+00 -4.4627708642778E-02  3.8426266834267E-01
   126  1.2500000000000E+00 -3.2157271606233E-02  2.7812195779283E-01
   127  1.2600000000000E+00 -2.1556805748048E-02  1.8657754196606E-01
   128  1.2700000000000E+00 -1.2931640724881E-02  1.1160453022569E-01
   129  1.2800000000000E+00 -6.3970982708468E-03  5.4857310758474E-02
   130  1.2900000000000E+00 -2.0694374275613E-03  1.7574738178457E-02
   131  1.3000000000000E+00 -1.4754919316702E-04  1.2360843884661E-03
   132  1.3100000000000E+00  7.8746062829581E-06 -6.5537320877727E-05
   133  1.3200000000000E+00  1.1544966010954E-06 -9.7411782632723E-06
   134  1.33  0. -0.
   135  1.34  0.  0.
   136  1.35  0.  0.
   137  1.36  0.  0.
   138  1.37  0.  0.
   139  1.38  0.  0.
   140  1.39  0.  0.
   141  1.40  0.  0.
   142  1.41  0.  0.
   143  1.42  0.  0.
   144  1.43  0.  0.
   145  1.44  0.  0.
   146  1.45  0.  0.
   147  1.46  0.  0.
   148  1.47  0.  0.
   149  1.48  0.  0.
   150  1.49  0.  0.
   151  1.50  0.  0.
   152  1.51  0.  0.
   153  1.52  0.  0.
   154  1.53  0.  0.
   155  1.54  0.  0.
   156  1.55  0.  0.
   157  1.56  0.  0.
   158  1.57  0.  0.
   159  1.58  0.  0.
   160  1.59  0.  0.
   161  1.60  0.  0.
   162  1.61  0.  0.
   163  1.62  0.  0.
   164  1.63  0.  0.
   165  1.64  0.  0.
   166  1.65  0.  0.
   167  1.66  0.  0.
   168  1.67  0.  0.
   169  1.68  0.  0.
   170  1.69  0.  0.
   171  1.70  0.  0.
   172  1.71  0.  0.
   173  1.72  0.  0.
   174  1.73  0.  0.
   175  1.74  0.  0.
   176  1.75  0.  0.
   177  1.76  0.  0.
   178  1.77  0.  0.
   179  1.78  0.  0.
   180  1.79  0.  0.
   181  1.80  0.  0.
   182  1.81  0.  0.
   183  1.82  0.  0.
   184  1.83  0.  0.
   185  1.84  0.  0.