V     ONCVPSP-4.0.1  r_core=   1.30295   1.30295   1.65519
     23.0000     13.0000      250217    zatom,zion,pspd
     8       2   2     4   600     0    pspcod,pspxc,lmax,lloc,mmax,r2well
  5.99000000  5.00000000  0.00000000    rchrg fchrg qchrg
     2     3     2     0    nproj
     3     1           extension_switch
     4     3     0    nprojso
   0                         1.1622525086059E+01  1.2958551901993E+00
     1  0.0000000000000E+00  4.4178993796606E-09 -1.3623152578246E-08
     2  1.0000000000000E-02  8.5289940537394E-02 -2.8989342449394E-02
     3  2.0000000000000E-02  1.7040454002364E-01 -5.7908111231387E-02
     4  3.0000000000000E-02  2.5516756676843E-01 -8.6682065512746E-02
     5  4.0000000000000E-02  3.3940105001396E-01 -1.1522975955464E-01
     6  5.0000000000000E-02  4.2292451474781E-01 -1.4345926018104E-01
     7  6.0000000000000E-02  5.0555433845764E-01 -1.7126523804641E-01
     8  7.0000000000000E-02  5.8710326510973E-01 -1.9852654074631E-01
     9  8.0000000000000E-02  6.6738010721536E-01 -2.2510434219134E-01
    10  9.0000000000000E-02  7.4618966154729E-01 -2.5084094632801E-01
    11  1.0000000000000E-01  8.2333285802197E-01 -2.7555930467489E-01
    12  1.1000000000000E-01  8.9860715462953E-01 -2.9906328674597E-01
    13  1.2000000000000E-01  9.7180718424880E-01 -3.2113872080081E-01
    14  1.3000000000000E-01  1.0427256519123E+00 -3.4155520007364E-01
    15  1.4000000000000E-01  1.1111544737805E+00 -3.6006862729110E-01
    16  1.5000000000000E-01  1.1768861419367E+00 -3.7642444849488E-01
    17  1.6000000000000E-01  1.2397152923184E+00 -3.9036150653432E-01
    18  1.7000000000000E-01  1.2994404468345E+00 -4.0161642565080E-01
    19  1.8000000000000E-01  1.3558658951527E+00 -4.0992842186317E-01
    20  1.9000000000000E-01  1.4088036769330E+00 -4.1504441985122E-01
    21  2.0000000000000E-01  1.4580756215522E+00 -4.1672434612019E-01
    22  2.1000000000000E-01  1.5035153997247E+00 -4.1474646073526E-01
    23  2.2000000000000E-01  1.5449705399562E+00 -4.0891258607249E-01
    24  2.3000000000000E-01  1.5823043625050E+00 -3.9905309098074E-01
    25  2.4000000000000E-01  1.6153977845026E+00 -3.8503149252537E-01
    26  2.5000000000000E-01  1.6441509520761E+00 -3.6674854502911E-01
    27  2.6000000000000E-01  1.6684846586782E+00 -3.4414569727553E-01
    28  2.7000000000000E-01  1.6883415132837E+00 -3.1720781323937E-01
    29  2.8000000000000E-01  1.7036868275570E+00 -2.8596506920711E-01
    30  2.9000000000000E-01  1.7145091973901E+00 -2.5049396021919E-01
    31  3.0000000000000E-01  1.7208207612098E+00 -2.1091737090215E-01
    32  3.1000000000000E-01  1.7226571249700E+00 -1.6740368939940E-01
    33  3.2000000000000E-01  1.7200769516051E+00 -1.2016496764985E-01
    34  3.3000000000000E-01  1.7131612207035E+00 -6.9454156063287E-02
    35  3.4000000000000E-01  1.7020121720819E+00 -1.5561465051616E-02
    36  3.5000000000000E-01  1.6867519545791E+00  4.1190070755964E-02
    37  3.6000000000000E-01  1.6675210085516E+00  1.0044972808363E-01
    38  3.7000000000000E-01  1.6444762170479E+00  1.6184481339766E-01
    39  3.8000000000000E-01  1.6177888662964E+00  2.2498683050921E-01
    40  3.9000000000000E-01  1.5876424607972E+00  2.8947795043148E-01
    41  4.0000000000000E-01  1.5542304418450E+00  3.5491762684952E-01
    42  4.1000000000000E-01  1.5177538606159E+00  4.2090919485917E-01
    43  4.2000000000000E-01  1.4784190579577E+00  4.8706628911544E-01
    44  4.3000000000000E-01  1.4364354026928E+00  5.5301892029848E-01
    45  4.4000000000000E-01  1.3920131385698E+00  6.1841905584985E-01
    46  4.5000000000000E-01  1.3453613870133E+00  6.8294556212739E-01
    47  4.6000000000000E-01  1.2966863485892E+00  7.4630838024623E-01
    48  4.7000000000000E-01  1.2461897407155E+00  8.0825182657807E-01
    49  4.8000000000000E-01  1.1940675027440E+00  8.6855693073795E-01
    50  4.9000000000000E-01  1.1405087922628E+00  9.2704274837530E-01
    51  5.0000000000000E-01  1.0856952885105E+00  9.8356661260611E-01
    52  5.1000000000000E-01  1.0298008103457E+00  1.0380233158170E+00
    53  5.2000000000000E-01  9.7299124750350E-01  1.0903432421339E+00
    54  5.3000000000000E-01  9.1542479510495E-01  1.1404894993463E+00
    55  5.4000000000000E-01  8.5725247281176E-01  1.1884541267676E+00
    56  5.5000000000000E-01  7.9861890185274E-01  1.2342534816620E+00
    57  5.6000000000000E-01  7.3966330561440E-01  1.2779229307685E+00
    58  5.7000000000000E-01  6.8052069279290E-01  1.3195109944485E+00
    59  5.8000000000000E-01  6.2132317643596E-01  1.3590731084720E+00
    60  5.9000000000000E-01  5.6220137772376E-01  1.3966651819294E+00
    61  6.0000000000000E-01  5.0328586018554E-01  1.4323371387874E+00
    62  6.1000000000000E-01  4.4470853832537E-01  1.4661266348776E+00
    63  6.2000000000000E-01  3.8660400440531E-01  1.4980531414281E+00
    64  6.3000000000000E-01  3.2911071843830E-01  1.5281125805320E+00
    65  6.4000000000000E-01  2.7237200926726E-01  1.5562726872538E+00
    66  6.5000000000000E-01  2.1653683890553E-01  1.5824692575800E+00
    67  6.6000000000000E-01  1.6176028799935E-01  1.6066034214224E+00
    68  6.7000000000000E-01  1.0820372722475E-01  1.6285400558186E+00
    69  6.8000000000000E-01  5.6034647489450E-02  1.6481074258612E+00
    70  6.9000000000000E-01  5.4261307902058E-03  1.6650981103707E+00
    71  7.0000000000000E-01 -4.3444046741086E-02  1.6792712366238E+00
    72  7.1000000000000E-01 -9.0394677915581E-02  1.6903560143336E+00
    73  7.2000000000000E-01 -1.3524274163432E-01  1.6980565244074E+00
    74  7.3000000000000E-01 -1.7780535172448E-01  1.7020576836205E+00
    75  7.4000000000000E-01 -2.1790200507348E-01  1.7020322731398E+00
    76  7.5000000000000E-01 -2.5535708723038E-01  1.6976488876448E+00
    77  7.6000000000000E-01 -2.9000258503188E-01  1.6885806334694E+00
    78  7.7000000000000E-01 -3.2168094825852E-01  1.6745143794789E+00
    79  7.8000000000000E-01 -3.5024803605225E-01  1.6551603440037E+00
    80  7.9000000000000E-01 -3.7557607901142E-01  1.6302617856645E+00
    81  8.0000000000000E-01 -3.9755658467794E-01  1.5996045558350E+00
    82  8.1000000000000E-01 -4.1610311265659E-01  1.5630262661470E+00
    83  8.2000000000000E-01 -4.3115384593229E-01  1.5204248260916E+00
    84  8.3000000000000E-01 -4.4267388710766E-01  1.4717661134643E+00
    85  8.4000000000000E-01 -4.5065721225433E-01  1.4170905541030E+00
    86  8.5000000000000E-01 -4.5512822079827E-01  1.3565184068367E+00
    87  8.6000000000000E-01 -4.5614282723640E-01  1.2902535744499E+00
    88  8.7000000000000E-01 -4.5378904936183E-01  1.2185857912780E+00
    89  8.8000000000000E-01 -4.4818705787256E-01  1.1418910721370E+00
    90  8.9000000000000E-01 -4.3948866353017E-01  1.0606303449352E+00
    91  9.0000000000000E-01 -4.2787623016977E-01  9.7534622965494E-01
    92  9.1000000000000E-01 -4.1356101456163E-01  8.8665796852026E-01
    93  9.2000000000000E-01 -3.9678094709477E-01  7.9525455509087E-01
    94  9.3000000000000E-01 -3.7779788018539E-01  7.0188615274548E-01
    95  9.4000000000000E-01 -3.5689434389621E-01  6.0735393448869E-01
    96  9.5000000000000E-01 -3.3436986018532E-01  5.1249851525571E-01
    97  9.6000000000000E-01 -3.1053687818018E-01  4.1818718389267E-01
    98  9.7000000000000E-01 -2.8571640262483E-01  3.2530017387316E-01
    99  9.8000000000000E-01 -2.6023339591836E-01  2.3471623873242E-01
   100  9.9000000000000E-01 -2.3441204073261E-01  1.4729781945049E-01
   101  1.0000000000000E+00 -2.0857095488617E-01  6.3876106004032E-02
   102  1.0100000000000E+00 -1.8301845281342E-01 -1.4763696432775E-02
   103  1.0200000000000E+00 -1.5804794851692E-01 -8.7896584901335E-02
   104  1.0300000000000E+00 -1.3393359327786E-01 -1.5487115384491E-01
   105  1.0400000000000E+00 -1.1092623762761E-01 -2.1512187525493E-01
   106  1.0500000000000E+00 -8.9249801223962E-02 -2.6817999087397E-01
   107  1.0600000000000E+00 -6.9098126414726E-02 -3.1368277005134E-01
   108  1.0700000000000E+00 -5.0632381582056E-02 -3.5138091935478E-01
   109  1.0800000000000E+00 -3.3979069053079E-02 -3.8114396785104E-01
   110  1.0900000000000E+00 -1.9228679627256E-02 -4.0296349444584E-01
   111  1.1000000000000E+00 -6.4350219800924E-03 -4.1695410957962E-01
   112  1.1100000000000E+00  4.3847594623013E-03 -4.2335215230945E-01
   113  1.1200000000000E+00  1.3249479661530E-02 -4.2251211383886E-01
   114  1.1300000000000E+00  2.0212537873511E-02 -4.1490084915942E-01
   115  1.1400000000000E+00  2.5359904093439E-02 -4.0108968815095E-01
   116  1.1500000000000E+00  2.8807513303604E-02 -3.8174460538019E-01
   117  1.1600000000000E+00  3.0698127353160E-02 -3.5761465259059E-01
   118  1.1700000000000E+00  3.1197736692007E-02 -3.2951889868981E-01
   119  1.1800000000000E+00  3.0491585021357E-02 -2.9833215766278E-01
   120  1.1900000000000E+00  2.8779909154086E-02 -2.6496981515147E-01
   121  1.2000000000000E+00  2.6273489679086E-02 -2.3037207203691E-01
   122  1.2100000000000E+00  2.3189132742815E-02 -1.9548802041957E-01
   123  1.2200000000000E+00  1.9743932278725E-02 -1.6125479158950E-01
   124  1.2300000000000E+00  1.6146756761229E-02 -1.2856566831913E-01
   125  1.2400000000000E+00  1.2591184115503E-02 -9.8245907181129E-02
   126  1.2500000000000E+00  9.2396322078693E-03 -7.1010903399285E-02
   127  1.2600000000000E+00  6.2451220247047E-03 -4.7510957914381E-02
   128  1.2700000000000E+00  3.7416621308572E-03 -2.8307485482279E-02
   129  1.2800000000000E+00  1.8316395599429E-03 -1.3841236871861E-02
   130  1.2900000000000E+00  5.8116022079555E-04 -4.4053944684081E-03
   131  1.3000000000000E+00  4.0212390888524E-05 -3.0717802878862E-04
   132  1.3100000000000E+00 -2.1154098423288E-06  1.6221873719043E-05
   133  1.3200000000000E+00 -3.1972036083503E-07  2.4321304221197E-06
   134  1.33  0.  0.
   135  1.34  0.  0.
   136  1.35  0.  0.
   137  1.36  0.  0.
   138  1.37  0.  0.
   139  1.38  0.  0.
   140  1.39  0.  0.
   141  1.40  0.  0.
   142  1.41  0.  0.
   143  1.42  0.  0.
   144  1.43  0.  0.
   145  1.44  0.  0.
   146  1.45  0.  0.
   147  1.46  0.  0.
   148  1.47  0.  0.
   149  1.48  0.  0.
   150  1.49  0.  0.
   151  1.50  0.  0.
   152  1.51  0.  0.
   153  1.52  0.  0.
   154  1.53  0.  0.
   155  1.54  0.  0.
   156  1.55  0.  0.
   157  1.56  0.  0.
   158  1.57  0.  0.
   159  1.58  0.  0.
   160  1.59  0.  0.
   161  1.60  0.  0.
   162  1.61  0.  0.
   163  1.62  0.  0.
   164  1.63  0.  0.
   165  1.64  0.  0.
   166  1.65  0.  0.
   167  1.66  0.  0.
   168  1.67  0.  0.
   169  1.68  0.  0.
   170  1.69  0.  0.
   171  1.70  0.  0.
   172  1.71  0.  0.
   173  1.72  0.  0.
   174  1.73  0.  0.
   175  1.74  0.  0.
   176  1.75  0.  0.
   177  1.76  0.  0.
   178  1.77  0.  0.
   179  1.78  0.  0.
   180  1.79  0.  0.
   181  1.80  0.  0.
   182  1.81  0.  0.
   183  1.82  0.  0.
   184  1.83  0.  0.
   185  1.84  0.  0.
   186  1.85  0.  0.
   187  1.86  0.  0.
   188  1.87  0.  0.
   189  1.88  0.  0.
   190  1.89  0.  0.
   191  1.90  0.  0.
   192  1.91  0.  0.
   193  1.92  0.  0.
   194  1.93  0.  0.
   195  1.94  0.  0.
   196  1.95  0.  0.
   197  1.96  0.  0.
   198  1.97  0.  0.
   199  1.98  0.  0.
   200  1.99  0.  0.
   201  2.00  0.  0.
   202  2.01  0.  0.
   203  2.02  0.  0.
   204  2.03  0.  0.
   205  2.04  0.  0.
   206  2.05  0.  0.
   207  2.06  0.  0.
   208  2.07  0.  0.
   209  2.08  0.  0.
   210  2.09  0.  0.
   211  2.10  0.  0.
   212  2.11  0.  0.
   213  2.12  0.  0.
   214  2.13  0.  0.
   215  2.14  0.  0.
   216  2.15  0.  0.
   217  2.16  0.  0.
   218  2.17  0.  0.
   219  2.18  0.  0.
   220  2.19  0.  0.
   221  2.20  0.  0.
   222  2.21  0.  0.
   223  2.22  0.  0.
   224  2.23  0.  0.
   225  2.24  0.  0.
   226  2.25  0.  0.
   227  2.26  0.  0.
   228  2.27  0.  0.
   229  2.28  0.  0.
   230  2.29  0.  0.
   231  2.30  0.  0.
   232  2.31  0.  0.
   233  2.32  0.  0.
   234  2.33  0.  0.
   235  2.34  0.  0.
   236  2.35  0.  0.
   237  2.36  0.  0.
   238  2.37  0.  0.
   239  2.38  0.  0.
   240  2.39  0.  0.
   241  2.40  0.  0.
   242  2.41  0.  0.
   243  2.42  0.  0.
   244  2.43  0.  0.
   245  2.44  0.  0.
   246  2.45  0.  0.
   247  2.46  0.  0.
   248  2.47  0.  0.
   249  2.48  0.  0.
   250  2.49  0.  0.
   251  2.50  0.  0.
   252  2.51  0.  0.
   253  2.52  0.  0.
   254  2.53  0.  0.
   255  2.54  0.  0.
   256  2.55  0.  0.
   257  2.56  0.  0.
   258  2.57  0.  0.
   259  2.58  0.  0.
   260  2.59  0.  0.
   261  2.60  0.  0.
   262  2.61  0.  0.
   263  2.62  0.  0.
   264  2.63  0.  0.
   265  2.64  0.  0.
   266  2.65  0.  0.
   267  2.66  0.  0.
   268  2.67  0.  0.
   269  2.68  0.  0.
   270  2.69  0.  0.
   271  2.70  0.  0.
   272  2.71  0.  0.
   273  2.72  0.  0.
   274  2.73  0.  0.
   275  2.74  0.  0.
   276  2.75  0.  0.
   277  2.76  0.  0.
   278  2.77  0.  0.
   279  2.78  0.  0.
   280  2.79  0.  0.
   281  2.80  0.  0.
   282  2.81  0.  0.
   283  2.82  0.  0.
   284  2.83  0.  0.
   285  2.84  0.  0.
   286  2.85  0.  0.
   287  2.86  0.  0.
   288  2.87  0.  0.
   289  2.88  0.  0.
   290  2.89  0.  0.
   291  2.90  0.  0.
   292  2.91  0.  0.
   293  2.92  0.  0.
   294  2.93  0.  0.
   295  2.94  0.  0.
   296  2.95  0.  0.
   297  2.96  0.  0.
   298  2.97  0.  0.
   299  2.98  0.  0.
   300  2.99  0.  0.
   301  3.00  0.  0.
   302  3.01  0.  0.
   303  3.02  0.  0.
   304  3.03  0.  0.
   305  3.04  0.  0.
   306  3.05  0.  0.
   307  3.06  0.  0.
   308  3.07  0.  0.
   309  3.08  0.  0.
   310  3.09  0.  0.
   311  3.10  0.  0.
   312  3.11  0.  0.
   313  3.12  0.  0.
   314  3.13  0.  0.
   315  3.14  0.  0.
   316  3.15  0.  0.
   317  3.16  0.  0.
   318  3.17  0.  0.
   319  3.18  0.  0.
   320  3.19  0.  0.
   321  3.20  0.  0.
   322  3.21  0.  0.
   323  3.22  0.  0.
   324  3.23  0.  0.
   325  3.24  0.  0.
   326  3.25  0.  0.
   327  3.26  0.  0.
   328  3.27  0.  0.
   329  3.28  0.  0.
   330  3.29  0.  0.
   331  3.30  0.  0.
   332  3.31  0.  0.
   333  3.32  0.  0.
   334  3.33  0.  0.
   335  3.34  0.  0.
   336  3.35  0.  0.
   337  3.36  0.  0.
   338  3.37  0.  0.
   339  3.38  0.  0.
   340  3.39  0.  0.
   341  3.40  0.  0.
   342  3.41  0.  0.
   343  3.42  0.  0.
   344  3.43  0.  0.
   345  3.44  0.  0.
   346  3.45  0.  0.
   347  3.46  0.  0.
   348  3.47  0.  0.
   349  3.48  0.  0.
   350  3.49  0.  0.
   351  3.50  0.  0.
   352  3.51  0.  0.
   353  3.52  0.  0.
   354  3.53  0.  0.
   355  3.54  0.  0.
   356  3.55  0.  0.
   357  3.56  0.  0.
   358  3.57  0.  0.
   359  3.58  0.  0.
   360  3.59  0.  0.
   361  3.60  0.  0.
   362  3.61  0.  0.
   363  3.62  0.  0.
   364  3.63  0.  0.
   365  3.64  0.  0.
   366  3.65  0.  0.
   367  3.66  0.  0.
   368  3.67  0.  0.
   369  3.68  0.  0.
   370  3.69  0.  0.
   371  3.70  0.  0.
   372  3.71  0.  0.
   373  3.72  0.  0.
   374  3.73  0.  0.
   375  3.74  0.  0.
   376  3.75  0.  0.
   377  3.76  0.  0.
   378  3.77  0.  0.
   379  3.78  0.  0.
   380  3.79  0.  0.
   381  3.80  0.  0.
   382  3.81  0.  0.
   383  3.82  0.  0.
   384  3.83  0.  0.
   385  3.84  0.  0.
   386  3.85  0.  0.
   387  3.86  0.  0.
   388  3.87  0.  0.
   389  3.88  0.  0.
   390  3.89  0.  0.
   391  3.90  0.  0.
   392  3.91  0.  0.
   393  3.92  0.  0.
   394  3.93  0.  0.
   395  3.94  0.  0.
   396  3.95  0.  0.
   397  3.96  0.  0.
   398  3.97  0.  0.
   399  3.98  0.  0.
   400  3.99  0.  0.
   401  4.00  0.  0.
   402  4.01  0.  0.
   403  4.02  0.  0.
   404  4.03  0.  0.
   405  4.04  0.  0.
   406  4.05  0.  0.
   407  4.06  0.  0.
   408  4.07  0.  0.
   409  4.08  0.  0.
   410  4.09  0.  0.
   411  4.10  0.  0.
   412  4.11  0.  0.
   413  4.12  0.  0.
   414  4.13  0.  0.
   415  4.14  0.  0.
   416  4.15  0.  0.
   417  4.16  0.  0.
   418  4.17  0.  0.
   419  4.18  0.  0.
   420  4.19  0.  0.
   421  4.20  0.  0.
   422  4.21  0.  0.
   423  4.22  0.  0.
   424  4.23  0.  0.
   425  4.24  0.  0.
   426  4.25  0.  0.
   427  4.26  0.  0.
   428  4.27  0.  0.
   429  4.28  0.  0.
   430  4.29  0.  0.
   431  4.30  0.  0.
   432  4.31  0.  0.
   433  4.32  0.  0.
   434  4.33  0.  0.
   435  4.34  0.  0.
   436  4.35  0.  0.
   437  4.36  0.  0.
   438  4.37  0.  0.
   439  4.38  0.  0.
   440  4.39  0.  0.
   441  4.40  0.  0.
   442  4.41  0.  0.
   443  4.42  0.  0.
   444  4.43  0.  0.
   445  4.44  0.  0.
   446  4.45  0.  0.
   447  4.46  0.  0.
   448  4.47  0.  0.
   449  4.48  0.  0.
   450  4.49  0.  0.
   451  4.50  0.  0.
   452  4.51  0.  0.
   453  4.52  0.  0.
   454  4.53  0.  0.
   455  4.54  0.  0.
   456  4.55  0.  0.
   457  4.56  0.  0.
   458  4.57  0.  0.
   459  4.58  0.  0.
   460  4.59  0.  0.
   461  4.60  0.  0.
   462  4.61  0.  0.
   463  4.62  0.  0.
   464  4.63  0.  0.
   465  4.64  0.  0.
   466  4.65  0.  0.
   467  4.66  0.  0.
   468  4.67  0.  0.
   469  4.68  0.  0.
   470  4.69  0.  0.
   471  4.70  0.  0.
   472  4.71  0.  0.
   473  4.72  0.  0.
   474  4.73  0.  0.
   475  4.74  0.  0.
   476  4.75  0.  0.
   477  4.76  0.  0.
   478  4.77  0.  0.
   479  4.78  0.  0.
   480  4.79  0.  0.
   481  4.80  0.  0.
   482  4.81  0.  0.
   483  4.82  0.  0.
   484  4.83  0.  0.
   485  4.84  0.  0.
   486  4.85  0.  0.
   487  4.86  0.  0.
   488  4.87  0.  0.
   489  4.88  0.  0.
   490  4.89  0.  0.
   491  4.90  0.  0.
   492  4.91  0.  0.
   493  4.92  0.  0.
   494  4.93  0.  0.
   495  4.94  0.  0.
   496  4.95  0.  0.
   497  4.96  0.  0.
   498  4.97  0.  0.
   499  4.98  0.  0.
   500  4.99  0.  0.
   501  5.00  0.  0.
   502  5.01  0.  0.
   503  5.02  0.  0.
   504  5.03  0.  0.
   505  5.04  0.  0.
   506  5.05  0.  0.
   507  5.06  0.  0.
   508  5.07  0.  0.
   509  5.08  0.  0.
   510  5.09  0.  0.
   511  5.10  0.  0.
   512  5.11  0.  0.
   513  5.12  0.  0.
   514  5.13  0.  0.
   515  5.14  0.  0.
   516  5.15  0.  0.
   517  5.16  0.  0.
   518  5.17  0.  0.
   519  5.18  0.  0.
   520  5.19  0.  0.
   521  5.20  0.  0.
   522  5.21  0.  0.
   523  5.22  0.  0.
   524  5.23  0.  0.
   525  5.24  0.  0.
   526  5.25  0.  0.
   527  5.26  0.  0.
   528  5.27  0.  0.
   529  5.28  0.  0.
   530  5.29  0.  0.
   531  5.30  0.  0.
   532  5.31  0.  0.
   533  5.32  0.  0.
   534  5.33  0.  0.
   535  5.34  0.  0.
   536  5.35  0.  0.
   537  5.36  0.  0.
   538  5.37  0.  0.
   539  5.38  0.  0.
   540  5.39  0.  0.
   541  5.40  0.  0.
   542  5.41  0.  0.
   543  5.42  0.  0.
   544  5.43  0.  0.
   545  5.44  0.  0.
   546  5.45  0.  0.
   547  5.46  0.  0.
   548  5.47  0.  0.
   549  5.48  0.  0.
   550  5.49  0.  0.
   551  5.50  0.  0.
   552  5.51  0.  0.
   553  5.52  0.  0.
   554  5.53  0.  0.
   555  5.54  0.  0.
   556  5.55  0.  0.
   557  5.56  0.  0.
   558  5.57  0.  0.
   559  5.58  0.  0.
   560  5.59  0.  0.
   561  5.60  0.  0.
   562  5.61  0.  0.
   563  5.62  0.  0.
   564  5.63  0.  0.
   565  5.64  0.  0.
   566  5.65  0.  0.
   567  5.66  0.  0.
   568  5.67  0.  0.
   569  5.68  0.  0.
   570  5.69  0.  0.
   571  5.70  0.  0.
   572  5.71  0.  0.
   573  5.72  0.  0.
   574  5.73  0.  0.
   575  5.74  0.  0.
   576  5.75  0.  0.
   577  5.76  0.  0.
   578  5.77  0.  0.
   579  5.78  0.  0.
   580  5.79  0.  0.
   581  5.80  0.  0.
   582  5.81  0.  0.
   583  5.82  0.  0.
   584  5.83  0.  0.
   585  5.84  0.  0.
   586  5.85  0.  0.
   587  5.86  0.  0.
   588  5.87  0.  0.
   589  5.88  0.  0.
   590  5.89  0.  0.
   591  5.90  0.  0.
   592  5.91  0.  0.
   593  5.92  0.  0.
   594  5.93  0.  0.
   595  5.94  0.  0.
   596  5.95  0.  0.
   597  5.96  0.  0.
   598  5.97  0.  0.
   599  5.98  0.  0.
   600  5.99  0.  0.
   1                         1.7703807708255E+00 -2.1763559799429E-01 -2.7719540432760E-03
     1  0.0000000000000E+00  2.7211367603641E-09  5.2966175334568E-08  2.3903334707420E-08
     2  1.0000000000000E-02  2.4691873936500E-03  2.6725288492874E-03  7.7178619392977E-04
     3  2.0000000000000E-02  9.8611150262954E-03  1.0629273522637E-02  3.0632713403886E-03
     4  3.0000000000000E-02  2.2129007109916E-02  2.3689109339461E-02  6.8034619507325E-03
     5  4.0000000000000E-02  3.9195328624518E-02  4.1554799644840E-02  1.1876110566614E-02
     6  5.0000000000000E-02  6.0952416813840E-02  6.3819841248778E-02  1.8122778305660E-02
     7  6.0000000000000E-02  8.7263354483446E-02  8.9977828014245E-02  2.5347023562490E-02
     8  7.0000000000000E-02  1.1796307451995E-01  1.1943411842384E-01  3.3319620579516E-02
     9  8.0000000000000E-02  1.5285968232900E-01  1.5151953998866E-01  4.1784687698595E-02
    10  9.0000000000000E-02  1.9173598038713E-01  1.8550581632266E-01  5.0466583823293E-02
    11  1.0000000000000E-01  2.3435117685882E-01  2.2062236264604E-01  5.9077413397868E-02
    12  1.1000000000000E-01  2.8044275828018E-01  2.5607406329866E-01  6.7324965483512E-02
    13  1.2000000000000E-01  3.2972850468356E-01  2.9105962128576E-01  7.4920901547850E-02
    14  1.3000000000000E-01  3.8190862425822E-01  3.2479005547522E-01  8.1588999722336E-02
    15  1.4000000000000E-01  4.3666798372541E-01  3.5650691618251E-01  8.7073260595029E-02
    16  1.5000000000000E-01  4.9367841006465E-01  3.8549979465405E-01  9.1145681222568E-02
    17  1.6000000000000E-01  5.5260103906285E-01  4.1112271632532E-01  9.3613509936679E-02
    18  1.7000000000000E-01  6.1308868636634E-01  4.3280903141921E-01  9.4325804568166E-02
    19  1.8000000000000E-01  6.7478821728699E-01  4.5008444897633E-01  9.3179130730039E-02
    20  1.9000000000000E-01  7.3734289253002E-01  4.6257790110290E-01  9.0122254508656E-02
    21  2.0000000000000E-01  8.0039466824920E-01  4.7002997222901E-01  8.5159704938925E-02
    22  2.1000000000000E-01  8.6358643036547E-01  4.7229868246890E-01  7.8354105558864E-02
    23  2.2000000000000E-01  9.2656414487381E-01  4.6936247360525E-01  6.9827200668651E-02
    24  2.3000000000000E-01  9.8897890786997E-01  4.6132030950104E-01  5.9759530058458E-02
    25  2.4000000000000E-01  1.0504888812130E+00  4.4838886849842E-01  4.8388735404888E-02
    26  2.5000000000000E-01  1.1107611020538E+00  4.3089687216216E-01  3.6006511566177E-02
    27  2.6000000000000E-01  1.1694731568599E+00  4.0927666109129E-01  2.2954246042755E-02
    28  2.7000000000000E-01  1.2263147129997E+00  3.8405319298835E-01  9.6174192510029E-03
    29  2.8000000000000E-01  1.2809889033758E+00  3.5583069929569E-01 -3.5811336531860E-03
    30  2.9000000000000E-01  1.3332135619583E+00  3.2527729310370E-01 -1.6188972464825E-02
    31  3.0000000000000E-01  1.3827223103324E+00  2.9310787141538E-01 -2.7732662486568E-02
    32  3.1000000000000E-01  1.4292654974926E+00  2.6006569804444E-01 -3.7727074573362E-02
    33  3.2000000000000E-01  1.4726109970440E+00  2.2690308840312E-01 -4.5685186047778E-02
    34  3.3000000000000E-01  1.5125448676956E+00  1.9436164334743E-01 -5.1128180465703E-02
    35  3.4000000000000E-01  1.5488718843970E+00  1.6315249541970E-01 -5.3595635028926E-02
    36  3.5000000000000E-01  1.5814159486780E+00  1.3393703679950E-01 -5.2655579637396E-02
    37  3.6000000000000E-01  1.6100203876718E+00  1.0730859379812E-01 -4.7914211366727E-02
    38  3.7000000000000E-01  1.6345481519325E+00  8.3775497783042E-02 -3.9025052523347E-02
    39  3.8000000000000E-01  1.6548819224885E+00  6.3745977204188E-02 -2.5697349380712E-02
    40  3.9000000000000E-01  1.6709241376144E+00  4.7515260339785E-02 -7.7035220349165E-03
    41  4.0000000000000E-01  1.6825969495617E+00  3.5255234134155E-02  1.5114506648848E-02
    42  4.1000000000000E-01  1.6898421209796E+00  2.7006951915152E-02  4.2840253683134E-02
    43  4.2000000000000E-01  1.6926208700067E+00  2.2676222898540E-02  7.5479016090788E-02
    44  4.3000000000000E-01  1.6909136720433E+00  2.2032450426243E-02  1.1295570670341E-01
    45  4.4000000000000E-01  1.6847200250679E+00  2.4710815200302E-02  1.5511425370573E-01
    46  4.5000000000000E-01  1.6740581840602E+00  3.0217825850608E-02  2.0171860013546E-01
    47  4.6000000000000E-01  1.6589648686891E+00  3.7940183571588E-02  2.5245530657907E-01
    48  4.7000000000000E-01  1.6394949469565E+00  4.7156831909914E-02  3.0693772688236E-01
    49  4.8000000000000E-01  1.6157210959950E+00  5.7053988726265E-02  3.6471169354201E-01
    50  4.9000000000000E-01  1.5877334397500E+00  6.6742886519881E-02  4.2526261729322E-01
    51  5.0000000000000E-01  1.5556391618710E+00  7.5279881284228E-02  4.8802387483498E-01
    52  5.1000000000000E-01  1.5195620908422E+00  8.1688530351088E-02  5.5238633046117E-01
    53  5.2000000000000E-01  1.4796422532286E+00  8.4983187678285E-02  6.1770881202217E-01
    54  5.3000000000000E-01  1.4360353899398E+00  8.4193621966757E-02  6.8332933986753E-01
    55  5.4000000000000E-01  1.3889124296560E+00  7.8390129940954E-02  7.4857688953683E-01
    56  5.5000000000000E-01  1.3384589130338E+00  6.6708594942860E-02  8.1278345553011E-01
    57  5.6000000000000E-01  1.2848743610393E+00  4.8374930330060E-02  8.7529617472962E-01
    58  5.7000000000000E-01  1.2283715807616E+00  2.2728348437810E-02  9.3548926422795E-01
    59  5.8000000000000E-01  1.1691759023358E+00 -1.0757090779753E-02  9.9277552956423E-01
    60  5.9000000000000E-01  1.1075243411604E+00 -5.2453171963116E-02  1.0466172057155E+00
    61  6.0000000000000E-01  1.0436646804223E+00 -1.0256094096479E-01  1.0965359045077E+00
    62  6.1000000000000E-01  9.7785447002457E-01 -1.6109728139677E-01  1.1421214582682E+00
    63  6.2000000000000E-01  9.1035993933064E-01 -2.2788502843554E-01  1.1830394702055E+00
    64  6.3000000000000E-01  8.4145482267035E-01 -3.0254692990336E-01  1.2190374067827E+00
    65  6.4000000000000E-01  7.7141909825818E-01 -3.8450368952077E-01  1.2499490958125E+00
    66  6.5000000000000E-01  7.0053764302237E-01 -4.7297624575458E-01  1.2756975254998E+00
    67  6.6000000000000E-01  6.2909880778893E-01 -5.6699235348916E-01  1.2962958736757E+00
    68  6.7000000000000E-01  5.5739291926439E-01 -6.6539744658669E-01  1.3118467322024E+00
    69  6.8000000000000E-01  4.8571071726664E-01 -7.6686966909340E-01  1.3225395283328E+00
    70  6.9000000000000E-01  4.1434173761670E-01 -8.6993887329642E-01  1.3286461819034E+00
    71  7.0000000000000E-01  3.4357265297537E-01 -9.7300929591723E-01  1.3305150738022E+00
    72  7.1000000000000E-01  2.7368558564136E-01 -1.0743855413288E+00  1.3285634365442E+00
    73  7.2000000000000E-01  2.0495640787275E-01 -1.1723014245736E+00  1.3232683110815E+00
    74  7.3000000000000E-01  1.3765304661090E-01 -1.2649511588596E+00  1.3151562446562E+00
    75  7.4000000000000E-01  7.2033810534256E-02 -1.3505223136234E+00  1.3047919317392E+00
    76  7.5000000000000E-01  8.3457581158236E-03 -1.4272299215763E+00  1.2927660234347E+00
    77  7.6000000000000E-01 -5.3176874226510E-02 -1.4933510775048E+00  1.2796823495507E+00
    78  7.7000000000000E-01 -1.1231416473357E-01 -1.5472593489188E+00  1.2661448114864E+00
    79  7.8000000000000E-01 -1.6886190081235E-01 -1.5874583095690E+00  1.2527442127867E+00
    80  7.9000000000000E-01 -2.2263285727280E-01 -1.6126135117701E+00  1.2400452975166E+00
    81  8.0000000000000E-01 -2.7345794116677E-01 -1.6215822324497E+00  1.2285742643068E+00
    82  8.1000000000000E-01 -3.2118718751104E-01 -1.6134403606951E+00  1.2188070161628E+00
    83  8.2000000000000E-01 -3.6569059193036E-01 -1.5875058407852E+00  1.2111583928819E+00
    84  8.3000000000000E-01 -4.0685876832846E-01 -1.5433581434906E+00  1.2059726146009E+00
    85  8.4000000000000E-01 -4.4460342205386E-01 -1.4808533087443E+00  1.2035151417885E+00
    86  8.5000000000000E-01 -4.7885763163152E-01 -1.4001341833160E+00  1.2039661294945E+00
    87  8.6000000000000E-01 -5.0957593493620E-01 -1.3016355663243E+00  1.2074156223300E+00
    88  8.7000000000000E-01 -5.3673421863670E-01 -1.1860840715633E+00  1.2138606021597E+00
    89  8.8000000000000E-01 -5.6032941278715E-01 -1.0544926167881E+00  1.2232039635359E+00
    90  8.9000000000000E-01 -5.8037899552263E-01 -9.0814955428027E-01  1.2352554532485E+00
    91  9.0000000000000E-01 -5.9692031587171E-01 -7.4860256208534E-01  1.2497345707972E+00
    92  9.1000000000000E-01 -6.1000974566644E-01 -5.7763751911968E-01  1.2662753869850E+00
    93  9.2000000000000E-01 -6.1972167434952E-01 -3.9725268774081E-01  1.2844331989238E+00
    94  9.3000000000000E-01 -6.2614736309064E-01 -2.0962862226394E-01  1.3036929024733E+00
    95  9.4000000000000E-01 -6.2939367697308E-01 -1.7094309262360E-02  1.3234789281811E+00
    96  9.5000000000000E-01 -6.2958171604632E-01  1.7790987652465E-01  1.3431665549543E+00
    97  9.6000000000000E-01 -6.2684536771462E-01  3.7287174996724E-01  1.3620943876826E+00
    98  9.7000000000000E-01 -6.2132980420600E-01  5.6524872196894E-01  1.3795777613429E+00
    99  9.8000000000000E-01 -6.1318994970921E-01  7.5251028897037E-01  1.3949228154239E+00
   100  9.9000000000000E-01 -6.0258894215406E-01  9.3218083418372E-01  1.4074409690466E+00
   101  1.0000000000000E+00 -5.8969661452898E-01  1.1018819588376E+00  1.4164635193818E+00
   102  1.0100000000000E+00 -5.7468802007218E-01  1.2593735671079E+00  1.4213560839604E+00
   103  1.0200000000000E+00 -5.5774202464586E-01  1.4025929495583E+00  1.4215326113313E+00
   104  1.0300000000000E+00 -5.3903998811743E-01  1.5296911465521E+00  1.4164686941909E+00
   105  1.0400000000000E+00 -5.1876455465239E-01  1.6390659245983E+00  1.4057139343818E+00
   106  1.0500000000000E+00 -4.9709856950453E-01  1.7293907639093E+00  1.3889031297227E+00
   107  1.0600000000000E+00 -4.7422413720595E-01  1.7996393335459E+00  1.3657660780956E+00
   108  1.0700000000000E+00 -4.5032183306535E-01  1.8491050197211E+00  1.3361358240324E+00
   109  1.0800000000000E+00 -4.2557007663503E-01  1.8774151713390E+00  1.2999552065378E+00
   110  1.0900000000000E+00 -4.0014467235348E-01  1.8845398331015E+00  1.2572816035309E+00
   111  1.1000000000000E+00 -3.7421851900102E-01  1.8707948476480E+00  1.2082898070057E+00
   112  1.1100000000000E+00 -3.4796148595779E-01  1.8368393229443E+00  1.1532730033760E+00
   113  1.1200000000000E+00 -3.2154045063100E-01  1.7836675761398E+00  1.0926418742234E+00