Po    ONCVPSP-4.0.1  r_core=   2.21188   2.21188   1.90464
     84.0000     16.0000      231019    zatom,zion,pspd
     8       2   2     4   600     0    pspcod,pspxc,lmax,lloc,mmax,r2well
  5.99000000  6.00000000  0.00000000    rchrg fchrg qchrg
     2     2     2     0     0    nproj
     1     1           extension_switch
   0                         6.3325536574306E+00  9.3118954617063E-01
     1  0.0000000000000E+00 -1.4916956558864E-11  3.3536117459432E-11
     2  1.0000000000000E-02  1.7412447286355E-02  9.3732683366296E-04
     3  2.0000000000000E-02  3.4816985264665E-02  1.8730147646892E-03
     4  3.0000000000000E-02  5.2205777438949E-02  2.8053189072800E-03
     5  4.0000000000000E-02  6.9571132338943E-02  3.7322835797050E-03
     6  5.0000000000000E-02  8.6905574540678E-02  4.6516398238341E-03
     7  6.0000000000000E-02  1.0420191390688E-01  5.5607064018967E-03
     8  7.0000000000000E-02  1.2145331247135E-01  6.4562953901355E-03
     9  8.0000000000000E-02  1.3865334840630E-01  7.3346234554850E-03
    10  9.0000000000000E-02  1.5579607653020E-01  8.1912298599526E-03
    11  1.0000000000000E-01  1.7287608483566E-01  9.0209021881013E-03
    12  1.1000000000000E-01  1.8988854654190E-01  9.8176107364253E-03
    13  1.2000000000000E-01  2.0682926720532E-01  1.0574452439515E-02
    14  1.3000000000000E-01  2.2369472645285E-01  1.1283605137536E-02
    15  1.4000000000000E-01  2.4048211393743E-01  1.1936292912624E-02
    16  1.5000000000000E-01  2.5718935915207E-01  1.2522763139294E-02
    17  1.6000000000000E-01  2.7381515477866E-01  1.3032275805998E-02
    18  1.7000000000000E-01  2.9035897328933E-01  1.3453105572230E-02
    19  1.8000000000000E-01  3.0682107656265E-01  1.3772556928766E-02
    20  1.9000000000000E-01  3.2320251832204E-01  1.3976992728032E-02
    21  2.0000000000000E-01  3.3950513925168E-01  1.4051876248253E-02
    22  2.1000000000000E-01  3.5573155469323E-01  1.3981826849072E-02
    23  2.2000000000000E-01  3.7188513487661E-01  1.3750689169076E-02
    24  2.3000000000000E-01  3.8796997768815E-01  1.3341615707101E-02
    25  2.4000000000000E-01  4.0399087403008E-01  1.2737162520579E-02
    26  2.5000000000000E-01  4.1995326587626E-01  1.1919397665889E-02
    27  2.6000000000000E-01  4.3586319717972E-01  1.0870021898589E-02
    28  2.7000000000000E-01  4.5172725783752E-01  9.5705010460320E-03
    29  2.8000000000000E-01  4.6755252096817E-01  8.0022093622161E-03
    30  2.9000000000000E-01  4.8334647380513E-01  6.1465830750925E-03
    31  3.0000000000000E-01  4.9911694255678E-01  3.9852832411224E-03
    32  3.1000000000000E-01  5.1487201162893E-01  1.5003669305974E-03
    33  3.2000000000000E-01  5.3061993764916E-01 -1.3255343182620E-03
    34  3.3000000000000E-01  5.4636905877379E-01 -4.5090299186530E-03
    35  3.4000000000000E-01  5.6212769979704E-01 -8.0657807434753E-03
    36  3.5000000000000E-01  5.7790407361801E-01 -1.2010306004791E-02
    37  3.6000000000000E-01  5.9370617965453E-01 -1.6355787845468E-02
    38  3.7000000000000E-01  6.0954169982280E-01 -2.1113875035256E-02
    39  3.8000000000000E-01  6.2541789272839E-01 -2.6294487205845E-02
    40  3.9000000000000E-01  6.4134148673754E-01 -3.1905621093437E-02
    41  4.0000000000000E-01  6.5731857261664E-01 -3.7953160281566E-02
    42  4.1000000000000E-01  6.7335449644354E-01 -4.4440689952145E-02
    43  4.2000000000000E-01  6.8945375350573E-01 -5.1369318157993E-02
    44  4.3000000000000E-01  7.0561988390736E-01 -5.8737505125280E-02
    45  4.4000000000000E-01  7.2185537061056E-01 -6.6540902079848E-02
    46  4.5000000000000E-01  7.3816154063490E-01 -7.4772201066473E-02
    47  4.6000000000000E-01  7.5453847013315E-01 -8.3420997195137E-02
    48  4.7000000000000E-01  7.7098489405153E-01 -9.2473664703446E-02
    49  4.8000000000000E-01  7.8749812106834E-01 -1.0191324816931E-01
    50  4.9000000000000E-01  8.0407395448568E-01 -1.1171937014323E-01
    51  5.0000000000000E-01  8.2070661972617E-01 -1.2186815639522E-01
    52  5.1000000000000E-01  8.3738869905923E-01 -1.3233217988784E-01
    53  5.2000000000000E-01  8.5411107414981E-01 -1.4308042449426E-01
    54  5.3000000000000E-01  8.7086287698732E-01 -1.5407826937966E-01
    55  5.4000000000000E-01  8.8763144971283E-01 -1.6528749485501E-01
    56  5.5000000000000E-01  9.0440231382012E-01 -1.7666631039621E-01
    57  5.6000000000000E-01  9.2115914915932E-01 -1.8816940539851E-01
    58  5.7000000000000E-01  9.3788378312242E-01 -1.9974802310631E-01
    59  5.8000000000000E-01  9.5455619033724E-01 -2.1135005802415E-01
    60  5.9000000000000E-01  9.7115450314117E-01 -2.2292017697485E-01
    61  6.0000000000000E-01  9.8765503304774E-01 -2.3439996382680E-01
    62  6.1000000000000E-01  1.0040323033598E+00 -2.4572808776653E-01
    63  6.2000000000000E-01  1.0202590930203E+00 -2.5684049484246E-01
    64  6.3000000000000E-01  1.0363064917298E+00 -2.6767062235638E-01
    65  6.4000000000000E-01  1.0521439662936E+00 -2.7814963552722E-01
    66  6.5000000000000E-01  1.0677394380978E+00 -2.8820668570171E-01
    67  6.6000000000000E-01  1.0830593715463E+00 -2.9776918923683E-01
    68  6.7000000000000E-01  1.0980688732280E+00 -3.0676312603227E-01
    69  6.8000000000000E-01  1.1127318015136E+00 -3.1511335654695E-01
    70  6.9000000000000E-01  1.1270108862213E+00 -3.2274395599429E-01
    71  7.0000000000000E-01  1.1408678579242E+00 -3.2957856427646E-01
    72  7.1000000000000E-01  1.1542635864120E+00 -3.3554075008900E-01
    73  7.2000000000000E-01  1.1671582277582E+00 -3.4055438750613E-01
    74  7.3000000000000E-01  1.1795113793865E+00 -3.4454404324263E-01
    75  7.4000000000000E-01  1.1912822424760E+00 -3.4743537268374E-01
    76  7.5000000000000E-01  1.2024297909902E+00 -3.4915552267809E-01
    77  7.6000000000000E-01  1.2129129465685E+00 -3.4963353900360E-01
    78  7.7000000000000E-01  1.2226907584711E+00 -3.4880077634144E-01
    79  7.8000000000000E-01  1.2317225877290E+00 -3.4659130852973E-01
    80  7.9000000000000E-01  1.2399682946120E+00 -3.4294233681814E-01
    81  8.0000000000000E-01  1.2473884284959E+00 -3.3779459380566E-01
    82  8.1000000000000E-01  1.2539444191827E+00 -3.3109274071873E-01
    83  8.2000000000000E-01  1.2595987687028E+00 -3.2278575567516E-01
    84  8.3000000000000E-01  1.2643152426136E+00 -3.1282731058104E-01
    85  8.4000000000000E-01  1.2680590597935E+00 -3.0117613432388E-01
    86  8.5000000000000E-01  1.2707970797259E+00 -2.8779635995561E-01
    87  8.6000000000000E-01  1.2724979862645E+00 -2.7265785360284E-01
    88  8.7000000000000E-01  1.2731324668784E+00 -2.5573652290097E-01
    89  8.8000000000000E-01  1.2726733863817E+00 -2.3701460282080E-01
    90  8.9000000000000E-01  1.2710959541734E+00 -2.1648091684300E-01
    91  9.0000000000000E-01  1.2683778840287E+00 -1.9413111153584E-01
    92  9.1000000000000E-01  1.2644995455165E+00 -1.6996786270484E-01
    93  9.2000000000000E-01  1.2594441061455E+00 -1.4400105140851E-01
    94  9.3000000000000E-01  1.2531976633820E+00 -1.1624790827323E-01
    95  9.4000000000000E-01  1.2457493657263E+00 -8.6733124689191E-02
    96  9.5000000000000E-01  1.2370915220806E+00 -5.5488929630292E-02
    97  9.6000000000000E-01  1.2272196986972E+00 -2.2555131011027E-02
    98  9.7000000000000E-01  1.2161328030528E+00  1.2020879326774E-02
    99  9.8000000000000E-01  1.2038331540553E+00  4.8184157716905E-02
   100  9.9000000000000E-01  1.1903265380588E+00  8.5872278385815E-02
   101  1.0000000000000E+00  1.1756222502289E+00  1.2501544110696E-01
   102  1.0100000000000E+00  1.1597331208753E+00  1.6553661690982E-01
   103  1.0200000000000E+00  1.1426755264441E+00  2.0735173175059E-01
   104  1.0300000000000E+00  1.1244693849398E+00  2.5036988783904E-01
   105  1.0400000000000E+00  1.1051381356290E+00  2.9449362210220E-01
   106  1.0500000000000E+00  1.0847087029561E+00  3.3961920105086E-01
   107  1.0600000000000E+00  1.0632114446893E+00  3.8563695110240E-01
   108  1.0700000000000E+00  1.0406800843929E+00  4.3243162320221E-01
   109  1.0800000000000E+00  1.0171516284106E+00  4.7988279037979E-01
   110  1.0900000000000E+00  9.9266626762446E-01  5.2786527667296E-01
   111  1.1000000000000E+00  9.6726726433757E-01  5.7624961565881E-01
   112  1.1100000000000E+00  9.4100082471079E-01  6.2490253664144E-01
   113  1.1200000000000E+00  9.1391595726067E-01  6.7368747636753E-01
   114  1.1300000000000E+00  8.8606431800506E-01  7.2246511397173E-01
   115  1.1400000000000E+00  8.5750004291559E-01  7.7109392669505E-01
   116  1.1500000000000E+00  8.2827956840798E-01  8.1943076377436E-01
   117  1.1600000000000E+00  7.9846144066795E-01  8.6733143576760E-01
   118  1.1700000000000E+00  7.6810611467426E-01  9.1465131646100E-01
   119  1.1800000000000E+00  7.3727574383883E-01  9.6124595440110E-01
   120  1.1900000000000E+00  7.0603396123800E-01  1.0069716910067E+00
   121  1.2000000000000E+00  6.7444565345782E-01  1.0516862821444E+00
   122  1.2100000000000E+00  6.4257672811946E-01  1.0952495199978E+00
   123  1.2200000000000E+00  6.1049387618828E-01  1.1375238520236E+00
   124  1.2300000000000E+00  5.7826433020175E-01  1.1783749937705E+00
   125  1.2400000000000E+00  5.4595561957640E-01  1.2176725323350E+00
   126  1.2500000000000E+00  5.1363532417294E-01  1.2552905172496E+00
   127  1.2600000000000E+00  4.8137082731087E-01  1.2911080356336E+00
   128  1.2700000000000E+00  4.4922906942943E-01  1.3250097684943E+00
   129  1.2800000000000E+00  4.1727630359071E-01  1.3568865251399E+00
   130  1.2900000000000E+00  3.8557785401272E-01  1.3866357527581E+00
   131  1.3000000000000E+00  3.5419787880580E-01  1.4141620183250E+00
   132  1.3100000000000E+00  3.2319913806434E-01  1.4393774601363E+00
   133  1.3200000000000E+00  2.9264276843825E-01  1.4622022063965E+00
   134  1.3300000000000E+00  2.6258806527420E-01  1.4825647584625E+00
   135  1.3400000000000E+00  2.3309227337671E-01  1.5004023365139E+00
   136  1.3500000000000E+00  2.0421038739226E-01  1.5156611856104E+00
   137  1.3600000000000E+00  1.7599496276842E-01  1.5282968402998E+00
   138  1.3700000000000E+00  1.4849593818188E-01  1.5382743461556E+00
   139  1.3800000000000E+00  1.2176047026719E-01  1.5455684368473E+00
   140  1.3900000000000E+00  9.5832781410830E-02  1.5501636655825E+00
   141  1.4000000000000E+00  7.0754021303830E-02  1.5520544900025E+00
   142  1.4100000000000E+00  4.6562142870946E-02  1.5512453098633E+00
   143  1.4200000000000E+00  2.3291793115643E-02  1.5477504570883E+00
   144  1.4300000000000E+00  9.7421933866907E-04  1.5415941380407E+00
   145  1.4400000000000E+00 -2.0362808896053E-02  1.5328103281203E+00
   146  1.4500000000000E+00 -4.0695061760319E-02  1.5214426190561E+00
   147  1.4600000000000E+00 -6.0001894924649E-02  1.5075440195234E+00
   148  1.4700000000000E+00 -7.8266278973164E-02  1.4911767099754E+00
   149  1.4800000000000E+00 -9.5474812446139E-02  1.4724117528308E+00
   150  1.4900000000000E+00 -1.1161771857450E-01  1.4513287594111E+00
   151  1.5000000000000E+00 -1.2668882585786E-01  1.4280155152590E+00
   152  1.5100000000000E+00 -1.4068553272390E-01  1.4025675657053E+00
   153  1.5200000000000E+00 -1.5360875659094E-01  1.3750877637716E+00
   154  1.5300000000000E+00 -1.6546286773767E-01  1.3456857827092E+00
   155  1.5400000000000E+00 -1.7625560846310E-01  1.3144775956717E+00
   156  1.5500000000000E+00 -1.8599799809510E-01  1.2815849252013E+00
   157  1.5600000000000E+00 -1.9470422447833E-01  1.2471346653802E+00
   158  1.5700000000000E+00 -2.0239152263948E-01  1.2112582796471E+00
   159  1.5800000000000E+00 -2.0908004139113E-01  1.1740911774150E+00
   160  1.5900000000000E+00 -2.1479269869320E-01  1.1357720727433E+00
   161  1.6000000000000E+00 -2.1955502664365E-01  1.0964423284112E+00
   162  1.6100000000000E+00 -2.2339500701712E-01  1.0562452888194E+00
   163  1.6200000000000E+00 -2.2634289831077E-01  1.0153256052028E+00
   164  1.6300000000000E+00 -2.2843105529172E-01  9.7382855667187E-01
   165  1.6400000000000E+00 -2.2969374206854E-01  9.3189937061700E-01
   166  1.6500000000000E+00 -2.3016693973125E-01  8.8968254600334E-01
   167  1.6600000000000E+00 -2.2988814961938E-01  8.4732118305562E-01
   168  1.6700000000000E+00 -2.2889619328625E-01  8.0495632278528E-01
   169  1.6800000000000E+00 -2.2723101022920E-01  7.6272629974234E-01
   170  1.6900000000000E+00 -2.2493345445095E-01  7.2076611128539E-01
   171  1.7000000000000E+00 -2.2204509090540E-01  6.7920680655345E-01
   172  1.7100000000000E+00 -2.1860799286330E-01  6.3817489819534E-01
   173  1.7200000000000E+00 -2.1466454120914E-01  5.9779179976507E-01
   174  1.7300000000000E+00 -2.1025722664963E-01  5.5817329152770E-01
   175  1.7400000000000E+00 -2.0542845577823E-01  5.1942901723904E-01
   176  1.7500000000000E+00 -2.0022036189802E-01  4.8166201426688E-01
   177  1.7600000000000E+00 -1.9467462145781E-01  4.4496827921054E-01
   178  1.7700000000000E+00 -1.8883227690448E-01  4.0943637095348E-01
   179  1.7800000000000E+00 -1.8273356669757E-01  3.7514705284828E-01
   180  1.7900000000000E+00 -1.7641776317107E-01  3.4217297549008E-01
   181  1.8000000000000E+00 -1.6992301886320E-01  3.1057840128114E-01
   182  1.8100000000000E+00 -1.6328622186667E-01  2.8041897173037E-01
   183  1.8200000000000E+00 -1.5654286068145E-01  2.5174151816698E-01
   184  1.8300000000000E+00 -1.4972689897936E-01  2.2458391627987E-01
   185  1.8400000000000E+00 -1.4287066061482E-01  1.9897498462451E-01
   186  1.8500000000000E+00 -1.3600472514074E-01  1.7493442696984E-01
   187  1.8600000000000E+00 -1.2915783401152E-01  1.5247281808996E-01
   188  1.8700000000000E+00 -1.2235680757887E-01  1.3159163234127E-01
   189  1.8800000000000E+00 -1.1562647286760E-01  1.1228331389346E-01
   190  1.8900000000000E+00 -1.0898960199565E-01  9.4531387067735E-02
   191  1.9000000000000E+00 -1.0246686482395E-01  7.8310623658994E-02
   192  1.9100000000000E+00 -9.6076775274367E-02  6.3587163376543E-02
   193  1.9200000000000E+00 -8.9835787814156E-02  5.0319378960411E-02
   194  1.9300000000000E+00 -8.3758516270355E-02  3.8459284149654E-02
   195  1.9400000000000E+00 -7.7857887578277E-02  2.7953519192582E-02
   196  1.9500000000000E+00 -7.2145185606721E-02  1.8743735800477E-02
   197  1.9600000000000E+00 -6.6630120621092E-02  1.0767098067405E-02
   198  1.9700000000000E+00 -6.1320903081916E-02  3.9567864117096E-03
   199  1.9800000000000E+00 -5.6224324507983E-02 -1.7574796237433E-03
   200  1.9900000000000E+00 -5.1345844591122E-02 -6.4489031743917E-03
   201  2.0000000000000E+00 -4.6689683690964E-02 -1.0193060044003E-02
   202  2.0100000000000E+00 -4.2258919861136E-02 -1.3067340265383E-02
   203  2.0200000000000E+00 -3.8055589537391E-02 -1.5150384658289E-02
   204  2.0300000000000E+00 -3.4080791003255E-02 -1.6521519832917E-02
   205  2.0400000000000E+00 -3.0334789739819E-02 -1.7260195092087E-02
   206  2.0500000000000E+00 -2.6817124763024E-02 -1.7445424665860E-02
   207  2.0600000000000E+00 -2.3526714603920E-02 -1.7155239666502E-02
   208  2.0700000000000E+00 -2.0461964763002E-02 -1.6466147141830E-02
   209  2.0800000000000E+00 -1.7620873435035E-02 -1.5452604734852E-02
   210  2.0900000000000E+00 -1.5001114648045E-02 -1.4186556417908E-02
   211  2.1000000000000E+00 -1.2600177226781E-02 -1.2736867958361E-02
   212  2.1100000000000E+00 -1.0416312237075E-02 -1.1166977233333E-02
   213  2.1200000000000E+00 -8.4481155724763E-03 -9.5355583435697E-03
   214  2.1300000000000E+00 -6.6925015566551E-03 -7.9007668196359E-03
   215  2.1400000000000E+00 -5.1464765319422E-03 -6.3161938522195E-03
   216  2.1500000000000E+00 -3.8072811042103E-03 -4.8303734084406E-03
   217  2.1600000000000E+00 -2.6724263925631E-03 -3.4865384704089E-03
   218  2.1700000000000E+00 -1.7397705184298E-03 -2.3223130990664E-03
   219  2.1800000000000E+00 -1.0079771362923E-03 -1.3700086849992E-03
   220  2.1900000000000E+00 -4.7265025148077E-04 -6.5095094704123E-04
   221  2.2000000000000E+00 -1.4173632499032E-04 -1.9681727302986E-04
   222  2.2100000000000E+00 -8.9614106859517E-06 -1.2266027530298E-05
   223  2.2200000000000E+00  6.7408769941634E-06  9.5807117209530E-06
   224  2.2300000000000E+00 -2.4783536890031E-06 -3.5017019307362E-06
   225  2.24  0.  0.
   226  2.25  0.  0.
   227  2.26  0. -0.
   228  2.27  0.  0.
   229  2.28  0.  0.
   230  2.29  0.  0.
   231  2.30  0.  0.
   232  2.31  0.  0.
   233  2.32  0.  0.
   234  2.33  0.  0.
   235  2.34  0.  0.
   236  2.35  0.  0.
   237  2.36  0.  0.
   238  2.37  0.  0.
   239  2.38  0.  0.
   240  2.39  0.  0.
   241  2.40  0.  0.
   242  2.41  0.  0.
   243  2.42  0.  0.
   244  2.43  0.  0.
   245  2.44  0.  0.
   246  2.45  0.  0.
   247  2.46  0.  0.
   248  2.47  0.  0.
   249  2.48  0.  0.
   250  2.49  0.  0.
   251  2.50  0.  0.
   252  2.51  0.  0.
   253  2.52  0.  0.
   254  2.53  0.  0.
   255  2.54  0.  0.
   256  2.55  0.  0.
   257  2.56  0.  0.
   258  2.57  0.  0.
   259  2.58  0.  0.
   260  2.59  0.  0.
   261  2.60  0.  0.
   262  2.61  0.  0.
   263  2.62  0.  0.
   264  2.63  0.  0.
   265  2.64  0.  0.
   266  2.65  0.  0.
   267  2.66  0.  0.
   268  2.67  0.  0.
   269  2.68  0.  0.
   270  2.69  0.  0.
   271  2.70  0.  0.
   272  2.71  0.  0.
   273  2.72  0.  0.
   274  2.73  0.  0.
   275  2.74  0.  0.
   276  2.75  0.  0.
   277  2.76  0.  0.
   278  2.77  0.  0.
   279  2.78  0.  0.
   280  2.79  0.  0.
   281  2.80  0.  0.
   282  2.81  0.  0.
   283  2.82  0.  0.
   284  2.83  0.  0.
   285  2.84  0.  0.
   286  2.85  0.  0.
   287  2.86  0.  0.
   288  2.87  0.  0.
   289  2.88  0.  0.
   290  2.89  0.  0.
   291  2.90  0.  0.
   292  2.91  0.  0.
   293  2.92  0.  0.
   294  2.93  0.  0.
   295  2.94  0.  0.
   296  2.95  0.  0.
   297  2.96  0.  0.
   298  2.97  0.  0.
   299  2.98  0.  0.
   300  2.99  0.  0.
   301  3.00  0.  0.
   302  3.01  0.  0.
   303  3.02  0.  0.
   304  3.03  0.  0.
   305  3.04  0.  0.
   306  3.05  0.  0.
   307  3.06  0.  0.
   308  3.07  0.  0.
   309  3.08  0.  0.
   310  3.09  0.  0.
   311  3.10  0.  0.
   312  3.11  0.  0.
   313  3.12  0.  0.
   314  3.13  0.  0.
   315  3.14  0.  0.
   316  3.15  0.  0.
   317  3.16  0.  0.
   318  3.17  0.  0.
   319  3.18  0.  0.
   320  3.19  0.  0.
   321  3.20  0.  0.
   322  3.21  0.  0.
   323  3.22  0.  0.
   324  3.23  0.  0.
   325  3.24  0.  0.
   326  3.25  0.  0.
   327  3.26  0.  0.
   328  3.27  0.  0.
   329  3.28  0.  0.
   330  3.29  0.  0.
   331  3.30  0.  0.
   332  3.31  0.  0.
   333  3.32  0.  0.
   334  3.33  0.  0.
   335  3.34  0.  0.
   336  3.35  0.  0.
   337  3.36  0.  0.
   338  3.37  0.  0.
   339  3.38  0.  0.
   340  3.39  0.  0.
   341  3.40  0.  0.
   342  3.41  0.  0.
   343  3.42  0.  0.
   344  3.43  0.  0.
   345  3.44  0.  0.
   346  3.45  0.  0.
   347  3.46  0.  0.
   348  3.47  0.  0.
   349  3.48  0.  0.
   350  3.49  0.  0.
   351  3.50  0.  0.
   352  3.51  0.  0.
   353  3.52  0.  0.
   354  3.53  0.  0.
   355  3.54  0.  0.
   356  3.55  0.  0.
   357  3.56  0.  0.
   358  3.57  0.  0.
   359  3.58  0.  0.
   360  3.59  0.  0.
   361  3.60  0.  0.
   362  3.61  0.  0.
   363  3.62  0.  0.
   364  3.63  0.  0.
   365  3.64  0.  0.
   366  3.65  0.  0.
   367  3.66  0.  0.
   368  3.67  0.  0.
   369  3.68  0.  0.
   370  3.69  0.  0.
   371  3.70  0.  0.
   372  3.71  0.  0.
   373  3.72  0.  0.
   374  3.73  0.  0.
   375  3.74  0.  0.
   376  3.75  0.  0.
   377  3.76  0.  0.
   378  3.77  0.  0.
   379  3.78  0.  0.
   380  3.79  0.  0.
   381  3.80  0.  0.
   382  3.81  0.  0.
   383  3.82  0.  0.
   384  3.83  0.  0.
   385  3.84  0.  0.
   386  3.85  0.  0.
   387  3.86  0.  0.
   388  3.87  0.  0.
   389  3.88  0.  0.
   390  3.89  0.  0.
   391  3.90  0.  0.
   392  3.91  0.  0.
   393  3.92  0.  0.
   394  3.93  0.  0.
   395  3.94  0.  0.
   396  3.95  0.  0.
   397  3.96  0.  0.
   398  3.97  0.  0.
   399  3.98  0.  0.
   400  3.99  0.  0.
   401  4.00  0.  0.
   402  4.01  0.  0.
   403  4.02  0.  0.
   404  4.03  0.  0.
   405  4.04  0.  0.
   406  4.05  0.  0.
   407  4.06  0.  0.
   408  4.07  0.  0.
   409  4.08  0.  0.
   410  4.09  0.  0.
   411  4.10  0.  0.
   412  4.11  0.  0.
   413  4.12  0.  0.
   414  4.13  0.  0.
   415  4.14  0.  0.
   416  4.15  0.  0.
   417  4.16  0.  0.
   418  4.17  0.  0.
   419  4.18  0.  0.
   420  4.19  0.  0.
   421  4.20  0.  0.
   422  4.21  0.  0.
   423  4.22  0.  0.
   424  4.23  0.  0.
   425  4.24  0.  0.
   426  4.25  0.  0.
   427  4.26  0.  0.
   428  4.27  0.  0.
   429  4.28  0.  0.
   430  4.29  0.  0.
   431  4.30  0.  0.
   432  4.31  0.  0.
   433  4.32  0.  0.
   434  4.33  0.  0.
   435  4.34  0.  0.
   436  4.35  0.  0.
   437  4.36  0.  0.
   438  4.37  0.  0.
   439  4.38  0.  0.
   440  4.39  0.  0.
   441  4.40  0.  0.
   442  4.41  0.  0.
   443  4.42  0.  0.
   444  4.43  0.  0.
   445  4.44  0.  0.
   446  4.45  0.  0.
   447  4.46  0.  0.
   448  4.47  0.  0.
   449  4.48  0.  0.
   450  4.49  0.  0.
   451  4.50  0.  0.
   452  4.51  0.  0.
   453  4.52  0.  0.
   454  4.53  0.  0.
   455  4.54  0.  0.
   456  4.55  0.  0.
   457  4.56  0.  0.
   458  4.57  0.  0.
   459  4.58  0.  0.
   460  4.59  0.  0.
   461  4.60  0.  0.
   462  4.61  0.  0.
   463  4.62  0.  0.
   464  4.63  0.  0.
   465  4.64  0.  0.
   466  4.65  0.  0.
   467  4.66  0.  0.
   468  4.67  0.  0.
   469  4.68  0.  0.
   470  4.69  0.  0.
   471  4.70  0.  0.
   472  4.71  0.  0.
   473  4.72  0.  0.
   474  4.73  0.  0.
   475  4.74  0.  0.
   476  4.75  0.  0.
   477  4.76  0.  0.
   478  4.77  0.  0.
   479  4.78  0.  0.
   480  4.79  0.  0.
   481  4.80  0.  0.
   482  4.81  0.  0.
   483  4.82  0.  0.
   484  4.83  0.  0.
   485  4.84  0.  0.
   486  4.85  0.  0.
   487  4.86  0.  0.
   488  4.87  0.  0.
   489  4.88  0.  0.
   490  4.89  0.  0.
   491  4.90  0.  0.
   492  4.91  0.  0.
   493  4.92  0.  0.
   494  4.93  0.  0.
   495  4.94  0.  0.
   496  4.95  0.  0.
   497  4.96  0.  0.
   498  4.97  0.  0.
   499  4.98  0.  0.
   500  4.99  0.  0.
   501  5.00  0.  0.
   502  5.01  0.  0.
   503  5.02  0.  0.
   504  5.03  0.  0.
   505  5.04  0.  0.
   506  5.05  0.  0.
   507  5.06  0.  0.
   508  5.07  0.  0.
   509  5.08  0.  0.
   510  5.09  0.  0.
   511  5.10  0.  0.
   512  5.11  0.  0.
   513  5.12  0.  0.
   514  5.13  0.  0.
   515  5.14  0.  0.
   516  5.15  0.  0.
   517  5.16  0.  0.
   518  5.17  0.  0.
   519  5.18  0.  0.
   520  5.19  0.  0.
   521  5.20  0.  0.
   522  5.21  0.  0.
   523  5.22  0.  0.
   524  5.23  0.  0.
   525  5.24  0.  0.
   526  5.25  0.  0.
   527  5.26  0.  0.
   528  5.27  0.  0.
   529  5.28  0.  0.
   530  5.29  0.  0.
   531  5.30  0.  0.
   532  5.31  0.  0.
   533  5.32  0.  0.
   534  5.33  0.  0.
   535  5.34  0.  0.
   536  5.35  0.  0.
   537  5.36  0.  0.
   538  5.37  0.  0.
   539  5.38  0.  0.
   540  5.39  0.  0.
   541  5.40  0.  0.
   542  5.41  0.  0.
   543  5.42  0.  0.
   544  5.43  0.  0.
   545  5.44  0.  0.
   546  5.45  0.  0.
   547  5.46  0.  0.
   548  5.47  0.  0.
   549  5.48  0.  0.
   550  5.49  0.  0.
   551  5.50  0.  0.
   552  5.51  0.  0.
   553  5.52  0.  0.
   554  5.53  0.  0.
   555  5.54  0.  0.
   556  5.55  0.  0.
   557  5.56  0.  0.
   558  5.57  0.  0.
   559  5.58  0.  0.
   560  5.59  0.  0.
   561  5.60  0.  0.
   562  5.61  0.  0.
   563  5.62  0.  0.
   564  5.63  0.  0.
   565  5.64  0.  0.
   566  5.65  0.  0.
   567  5.66  0.  0.
   568  5.67  0.  0.
   569  5.68  0.  0.
   570  5.69  0.  0.
   571  5.70  0.  0.
   572  5.71  0.  0.
   573  5.72  0.  0.
   574  5.73  0.  0.
   575  5.74  0.  0.
   576  5.75  0.  0.
   577  5.76  0.  0.
   578  5.77  0.  0.
   579  5.78  0.  0.
   580  5.79  0.  0.
   581  5.80  0.  0.
   582  5.81  0.  0.
   583  5.82  0.  0.
   584  5.83  0.  0.
   585  5.84  0.  0.
   586  5.85  0.  0.
   587  5.86  0.  0.
   588  5.87  0.  0.
   589  5.88  0.  0.
   590  5.89  0.  0.
   591  5.90  0.  0.
   592  5.91  0.  0.
   593  5.92  0.  0.
   594  5.93  0.  0.
   595  5.94  0.  0.
   596  5.95  0.  0.
   597  5.96  0.  0.
   598  5.97  0.  0.
   599  5.98  0.  0.
   600  5.99  0.  0.
   1                         4.7831884696294E+00  5.6848194469115E-01
     1  0.0000000000000E+00  4.7276172560062E-10 -1.3247909921854E-09
     2  1.0000000000000E-02  4.4134530666615E-04 -6.8451432676776E-04
     3  2.0000000000000E-02  1.7630264460138E-03 -2.7315417985376E-03
     4  3.0000000000000E-02  3.9580033394961E-03 -6.1216047767521E-03
     5  4.0000000000000E-02  7.0146231437896E-03 -1.0822469434006E-02
     6  5.0000000000000E-02  1.0916740285031E-02 -1.6789486596913E-02
     7  6.0000000000000E-02  1.5643882721835E-02 -2.3966063927376E-02
     8  7.0000000000000E-02  2.1171462674066E-02 -3.2284264504300E-02
     9  8.0000000000000E-02  2.7471029581580E-02 -4.1665525543025E-02
    10  9.0000000000000E-02  3.4510562607245E-02 -5.2021489728418E-02
    11  1.0000000000000E-01  4.2254799576069E-02 -6.3254940452515E-02
    12  1.1000000000000E-01  5.0665598851537E-02 -7.5260831150776E-02
    13  1.2000000000000E-01  5.9702330295368E-02 -8.7927397933806E-02
    14  1.3000000000000E-01  6.9322291141424E-02 -1.0113734382371E-01
    15  1.4000000000000E-01  7.9481142341831E-02 -1.1476908213572E-01
    16  1.5000000000000E-01  9.0133360716280E-02 -1.2869802590375E-01
    17  1.6000000000000E-01  1.0123270205640E-01 -1.4279790974038E-01
    18  1.7000000000000E-01  1.1273267020799E-01 -1.5694213015221E-01
    19  1.8000000000000E-01  1.2458698707618E-01 -1.7100509010557E-01
    20  1.9000000000000E-01  1.3675005847309E-01 -1.8486353355654E-01
    21  2.0000000000000E-01  1.4917743075506E-01 -1.9839785572536E-01
    22  2.1000000000000E-01  1.6182623327601E-01 -2.1149337510811E-01
    23  2.2000000000000E-01  1.7465560181580E-01 -2.2404155357534E-01
    24  2.3000000000000E-01  1.8762707832460E-01 -2.3594115140662E-01
    25  2.4000000000000E-01  2.0070498255615E-01 -2.4709930474550E-01
    26  2.5000000000000E-01  2.1385675144124E-01 -2.5743251372579E-01
    27  2.6000000000000E-01  2.2705324237553E-01 -2.6686753041074E-01
    28  2.7000000000000E-01  2.4026899695973E-01 -2.7534213669152E-01
    29  2.8000000000000E-01  2.5348246213140E-01 -2.8280580340198E-01
    30  2.9000000000000E-01  2.6667616606305E-01 -2.8922022311164E-01
    31  3.0000000000000E-01  2.7983684666536E-01 -2.9455971034619E-01
    32  3.1000000000000E-01  2.9295553102369E-01 -2.9881146434203E-01
    33  3.2000000000000E-01  3.0602756460520E-01 -3.0197569085534E-01
    34  3.3000000000000E-01  3.1905258959781E-01 -3.0406558100211E-01
    35  3.4000000000000E-01  3.3203447227568E-01 -3.0510714658958E-01
    36  3.5000000000000E-01  3.4498117982375E-01 -3.0513891289648E-01
    37  3.6000000000000E-01  3.5790460759019E-01 -3.0421147135410E-01
    38  3.7000000000000E-01  3.7082035826543E-01 -3.0238689605783E-01
    39  3.8000000000000E-01  3.8374747500405E-01 -2.9973802948382E-01
    40  3.9000000000000E-01  3.9670813100591E-01 -2.9634764418352E-01
    41  4.0000000000000E-01  4.0972727855049E-01 -2.9230748856542E-01
    42  4.1000000000000E-01  4.2283226092813E-01 -2.8771722613456E-01
    43  4.2000000000000E-01  4.3605239112959E-01 -2.8268327873279E-01
    44  4.3000000000000E-01  4.4941850153585E-01 -2.7731758539502E-01
    45  4.4000000000000E-01  4.6296246918997E-01 -2.7173628939571E-01
    46  4.5000000000000E-01  4.7671672152809E-01 -2.6605836689697E-01
    47  4.6000000000000E-01  4.9071372769372E-01 -2.6040421131447E-01
    48  4.7000000000000E-01  5.0498548075636E-01 -2.5489418808246E-01
    49  4.8000000000000E-01  5.1956297629856E-01 -2.4964717491801E-01
    50  4.9000000000000E-01  5.3447569292464E-01 -2.4477910295169E-01
    51  5.0000000000000E-01  5.4975108027612E-01 -2.4040151420382E-01
    52  5.1000000000000E-01  5.6541406011499E-01 -2.3662015084001E-01
    53  5.2000000000000E-01  5.8148654595400E-01 -2.3353359143616E-01
    54  5.3000000000000E-01  5.9798698657502E-01 -2.3123194912261E-01
    55  5.4000000000000E-01  6.1492993858268E-01 -2.2979564596219E-01
    56  5.5000000000000E-01  6.3232567289228E-01 -2.2929427725167E-01
    57  5.6000000000000E-01  6.5017981975094E-01 -2.2978557862593E-01
    58  5.7000000000000E-01  6.6849305654121E-01 -2.3131450789695E-01
    59  5.8000000000000E-01  6.8726084222067E-01 -2.3391245248271E-01
    60  5.9000000000000E-01  7.0647320181230E-01 -2.3759657208589E-01
    61  6.0000000000000E-01  7.2611456388359E-01 -2.4236928497835E-01
    62  6.1000000000000E-01  7.4616365344071E-01 -2.4821790484828E-01
    63  6.2000000000000E-01  7.6659344212425E-01 -2.5511443368575E-01
    64  6.3000000000000E-01  7.8737115702809E-01 -2.6301551463269E-01
    65  6.4000000000000E-01  8.0845834888053E-01 -2.7186254712150E-01
    66  6.5000000000000E-01  8.2981101973093E-01 -2.8158196498719E-01
    67  6.6000000000000E-01  8.5137980968255E-01 -2.9208567657767E-01
    68  6.7000000000000E-01  8.7311024160894E-01 -3.0327166422257E-01
    69  6.8000000000000E-01  8.9494302219294E-01 -3.1502473876869E-01
    70  6.9000000000000E-01  9.1681439704024E-01 -3.2721744326727E-01
    71  7.0000000000000E-01  9.3865655704982E-01 -3.3971109832105E-01
    72  7.1000000000000E-01  9.6039809267666E-01 -3.5235698008357E-01
    73  7.2000000000000E-01  9.8196449220460E-01 -3.6499762046552E-01
    74  7.3000000000000E-01  1.0032786796632E+00 -3.7746821775812E-01
    75  7.4000000000000E-01  1.0242615875786E+00 -3.8959814464544E-01
    76  7.5000000000000E-01  1.0448327593481E+00 -4.0121253946033E-01
    77  7.6000000000000E-01  1.0649109756768E+00 -4.1213396555366E-01
    78  7.7000000000000E-01  1.0844148992162E+00 -4.2218412280567E-01
    79  7.8000000000000E-01  1.1032637313016E+00 -4.3118559462011E-01
    80  7.9000000000000E-01  1.1213778745003E+00 -4.3896361321593E-01
    81  8.0000000000000E-01  1.1386795945628E+00 -4.4534782567318E-01
    82  8.1000000000000E-01  1.1550936753061E+00 -4.5017404300489E-01
    83  8.2000000000000E-01  1.1705480599655E+00 -4.5328595451884E-01
    84  8.3000000000000E-01  1.1849744726214E+00 -4.5453678990287E-01
    85  8.4000000000000E-01  1.1983090134378E+00 -4.5379091181597E-01