Po    ONCVPSP-4.0.1  r_core=   2.21188   2.21188   1.90464
     84.0000     16.0000      250925    zatom,zion,pspd
     8   -1012   2     4   600     0    pspcod,pspxc,lmax,lloc,mmax,r2well
  5.99000000  6.00000000  0.00000000    rchrg fchrg qchrg
     2     3     2     0    nproj
     3     1           extension_switch
     4     3     0    nprojso
   0                         6.3224696076902E+00  9.2409208836190E-01
     1  0.0000000000000E+00 -1.4507450796231E-11  3.2686572198903E-11
     2  1.0000000000000E-02  1.7241711599543E-02  1.0630908752347E-03
     3  2.0000000000000E-02  3.4476082931704E-02  2.1235148430351E-03
     4  3.0000000000000E-02  5.1695843587392E-02  3.1785051220450E-03
     5  4.0000000000000E-02  6.8893862293185E-02  4.2250963171567E-03
     6  5.0000000000000E-02  8.6063215030552E-02  5.2600279395760E-03
     7  6.0000000000000E-02  1.0319725142701E-01  6.2796512960473E-03
     8  7.0000000000000E-02  1.2028965886025E-01  7.2798408318425E-03
     9  8.0000000000000E-02  1.3733452373077E-01  8.2559109794336E-03
    10  9.0000000000000E-02  1.5432638937648E-01  9.2025395243214E-03
    11  1.0000000000000E-01  1.7126031012428E-01  1.0113698451476E-02
    12  1.1000000000000E-01  1.8813190099784E-01  1.0982593180566E-02
    13  1.2000000000000E-01  2.0493738262913E-01  1.1801611035952E-02
    14  1.3000000000000E-01  2.2167362095132E-01  1.2562279728692E-02
    15  1.4000000000000E-01  2.3833816128487E-01  1.3255236552907E-02
    16  1.5000000000000E-01  2.5492925646406E-01  1.3870208918334E-02
    17  1.6000000000000E-01  2.7144588869054E-01  1.4396006755159E-02
    18  1.7000000000000E-01  2.8788778484058E-01  1.4820527236864E-02
    19  1.8000000000000E-01  3.0425542499605E-01  1.5130772172390E-02
    20  1.9000000000000E-01  3.2055004401313E-01  1.5312878320888E-02
    21  2.0000000000000E-01  3.3677362598926E-01  1.5352160781672E-02
    22  2.1000000000000E-01  3.5292889153577E-01  1.5233169508616E-02
    23  2.2000000000000E-01  3.6901927781185E-01  1.4939758893875E-02
    24  2.3000000000000E-01  3.8504891132461E-01  1.4455170259939E-02
    25  2.4000000000000E-01  4.0102257354914E-01  1.3762126993245E-02
    26  2.5000000000000E-01  4.1694565947195E-01  1.2842941947240E-02
    27  2.6000000000000E-01  4.3282412921045E-01  1.1679636638264E-02
    28  2.7000000000000E-01  4.4866445291005E-01  1.0254071655349E-02
    29  2.8000000000000E-01  4.6447354916841E-01  8.5480876048698E-03
    30  2.9000000000000E-01  4.8025871728356E-01  6.5436558142875E-03
    31  3.0000000000000E-01  4.9602756366825E-01  4.2230379261332E-03
    32  3.1000000000000E-01  5.1178792281725E-01  1.5689534250996E-03
    33  3.2000000000000E-01  5.2754777325637E-01 -1.4352459426229E-03
    34  3.3000000000000E-01  5.4331514894232E-01 -4.8053959756923E-03
    35  3.4000000000000E-01  5.5909804662038E-01 -8.5563352395377E-03
    36  3.5000000000000E-01  5.7490432968174E-01 -1.2701716957700E-02
    37  3.6000000000000E-01  5.9074162909498E-01 -1.7253818883878E-02
    38  3.7000000000000E-01  6.0661724201514E-01 -2.2223352515032E-02
    39  3.8000000000000E-01  6.2253802869996E-01 -2.7619273047114E-02
    40  3.9000000000000E-01  6.3851030838501E-01 -3.3448591507121E-02
    41  4.0000000000000E-01  6.5453975478869E-01 -3.9716190518734E-02
    42  4.1000000000000E-01  6.7063129193251E-01 -4.6424645172709E-02
    43  4.2000000000000E-01  6.8678899097370E-01 -5.3574050477957E-02
    44  4.3000000000000E-01  7.0301596875371E-01 -6.1161856863780E-02
    45  4.4000000000000E-01  7.1931428876936E-01 -6.9182715189208E-02
    46  4.5000000000000E-01  7.3568486527199E-01 -7.7628332690040E-02
    47  4.6000000000000E-01  7.5212737119423E-01 -8.6487341259789E-02
    48  4.7000000000000E-01  7.6864015059439E-01 -9.5745179415942E-02
    49  4.8000000000000E-01  7.8522013629419E-01 -1.0538398924862E-01
    50  4.9000000000000E-01  8.0186277336710E-01 -1.1538252958482E-01
    51  5.0000000000000E-01  8.1856194911225E-01 -1.2571610652822E-01
    52  5.1000000000000E-01  8.3530993012184E-01 -1.3635652245221E-01
    53  5.2000000000000E-01  8.5209730701963E-01 -1.4727204443291E-01
    54  5.3000000000000E-01  8.6891294741307E-01 -1.5842739300973E-01
    55  5.4000000000000E-01  8.8574395756375E-01 -1.6978375205415E-01
    56  5.5000000000000E-01  9.0257565323849E-01 -1.8129880041311E-01
    57  5.6000000000000E-01  9.1939154015838E-01 -1.9292676587241E-01
    58  5.7000000000000E-01  9.3617330441443E-01 -2.0461850185900E-01
    59  5.8000000000000E-01  9.5290081316730E-01 -2.1632158716828E-01
    60  5.9000000000000E-01  9.6955212589433E-01 -2.2798044886602E-01
    61  6.0000000000000E-01  9.8610351639067E-01 -2.3953650837356E-01
    62  6.1000000000000E-01  1.0025295056730E+00 -2.5092835060126E-01
    63  6.2000000000000E-01  1.0188029058738E+00 -2.6209191584902E-01
    64  6.3000000000000E-01  1.0348948751521E+00 -2.7296071404538E-01
    65  6.4000000000000E-01  1.0507749835847E+00 -2.8346606074889E-01
    66  6.5000000000000E-01  1.0664112899370E+00 -2.9353733418777E-01
    67  6.6000000000000E-01  1.0817704291492E+00 -3.0310225246810E-01
    68  6.7000000000000E-01  1.0968177103096E+00 -3.1208716993679E-01
    69  6.8000000000000E-01  1.1115172248228E+00 -3.2041739154489E-01
    70  6.9000000000000E-01  1.1258319644168E+00 -3.2801750392045E-01
    71  7.0000000000000E-01  1.1397239485728E+00 -3.3481172172874E-01
    72  7.1000000000000E-01  1.1531543608989E+00 -3.4072424777168E-01
    73  7.2000000000000E-01  1.1660836939118E+00 -3.4567964516038E-01
    74  7.3000000000000E-01  1.1784719016330E+00 -3.4960321978269E-01
    75  7.4000000000000E-01  1.1902785593530E+00 -3.5242141118616E-01
    76  7.5000000000000E-01  1.2014630298648E+00 -3.5406218990232E-01
    77  7.6000000000000E-01  1.2119846354212E+00 -3.5445545915617E-01
    78  7.7000000000000E-01  1.2218028346257E+00 -3.5353345883091E-01
    79  7.8000000000000E-01  1.2308774034260E+00 -3.5123116949769E-01
    80  7.9000000000000E-01  1.2391686193440E+00 -3.4748671427005E-01
    81  8.0000000000000E-01  1.2466374480426E+00 -3.4224175620611E-01
    82  8.1000000000000E-01  1.2532457313032E+00 -3.3544188895737E-01
    83  8.2000000000000E-01  1.2589563754672E+00 -3.2703701835197E-01
    84  8.3000000000000E-01  1.2637335393734E+00 -3.1698173260296E-01
    85  8.4000000000000E-01  1.2675428208152E+00 -3.0523565884861E-01
    86  8.5000000000000E-01  1.2703514405327E+00 -2.9176380376178E-01
    87  8.6000000000000E-01  1.2721284227530E+00 -2.7653687600980E-01
    88  8.7000000000000E-01  1.2728447712989E+00 -2.5953158840426E-01
    89  8.8000000000000E-01  1.2724736402927E+00 -2.4073093765199E-01
    90  8.9000000000000E-01  1.2709904984988E+00 -2.2012445970413E-01
    91  9.0000000000000E-01  1.2683732863713E+00 -1.9770845879871E-01
    92  9.1000000000000E-01  1.2646025648960E+00 -1.7348620840415E-01
    93  9.2000000000000E-01  1.2596616553509E+00 -1.4746812239496E-01
    94  9.3000000000000E-01  1.2535367691440E+00 -1.1967189492701E-01
    95  9.4000000000000E-01  1.2462171269333E+00 -9.0122607627631E-02
    96  9.5000000000000E-01  1.2376950662756E+00 -5.8852802872707E-02
    97  9.6000000000000E-01  1.2279661371089E+00 -2.5902522091748E-02
    98  9.7000000000000E-01  1.2170291844232E+00  8.6806917821925E-03
    99  9.8000000000000E-01  1.2048864175416E+00  4.4841828415763E-02
   100  9.9000000000000E-01  1.1915434654924E+00  8.2518481238095E-02
   101  1.0000000000000E+00  1.1770094180245E+00  1.2164095597196E-01
   102  1.0100000000000E+00  1.1612968518883E+00  1.6213241663924E-01
   103  1.0200000000000E+00  1.1444218420785E+00  2.0390906894060E-01
   104  1.0300000000000E+00  1.1264039578109E+00  2.4688038070005E-01
   105  1.0400000000000E+00  1.1072662430856E+00  2.9094933885499E-01
   106  1.0500000000000E+00  1.0870351817658E+00  3.3601274226209E-01
   107  1.0600000000000E+00  1.0657406471861E+00  3.8196152937961E-01
   108  1.0700000000000E+00  1.0434158363818E+00  4.2868113968079E-01
   109  1.0800000000000E+00  1.0200971891161E+00  4.7605190744887E-01
   110  1.0900000000000E+00  9.9582429196092E-01  5.2394948640706E-01
   111  1.1000000000000E+00  9.7063976776858E-01  5.7224530344424E-01
   112  1.1100000000000E+00  9.4458915095120E-01  6.2080703951281E-01
   113  1.1200000000000E+00  9.1772074906166E-01  6.6949913559941E-01
   114  1.1300000000000E+00  8.9008549124555E-01  7.1818332150316E-01
   115  1.1400000000000E+00  8.6173676420628E-01  7.6671916500061E-01
   116  1.1500000000000E+00  8.3273023639474E-01  8.1496463883408E-01
   117  1.1600000000000E+00  8.0312367120133E-01  8.6277670282925E-01
   118  1.1700000000000E+00  7.7297672998984E-01  9.1001189833222E-01
   119  1.1800000000000E+00  7.4235076587060E-01  9.5652695205430E-01
   120  1.1900000000000E+00  7.1130860916313E-01  1.0021793863275E+00
   121  1.2000000000000E+00  6.7991434554661E-01  1.0468281327036E+00
   122  1.2100000000000E+00  6.4823308793903E-01  1.0903341457768E+00
   123  1.2200000000000E+00  6.1633074318282E-01  1.1325610140756E+00
   124  1.2300000000000E+00  5.8427377464581E-01  1.1733755648501E+00
   125  1.2400000000000E+00  5.5212896187165E-01  1.2126484595830E+00
   126  1.2500000000000E+00  5.1996315843196E-01  1.2502547770703E+00
   127  1.2600000000000E+00  4.8784304914570E-01  1.2860745809547E+00
   128  1.2700000000000E+00  4.5583490783616E-01  1.3199934686504E+00
   129  1.2800000000000E+00  4.2400435679605E-01  1.3519030986694E+00
   130  1.2900000000000E+00  3.9241612912351E-01  1.3817016934545E+00
   131  1.3000000000000E+00  3.6113383507803E-01  1.4092945149276E+00
   132  1.3100000000000E+00  3.3021973358518E-01  1.4345943100916E+00
   133  1.3200000000000E+00  2.9973450999226E-01  1.4575217241638E+00
   134  1.3300000000000E+00  2.6973706114407E-01  1.4780056788780E+00
   135  1.3400000000000E+00  2.4028428880900E-01  1.4959837137616E+00
   136  1.3500000000000E+00  2.1143090244091E-01  1.5114022883858E+00
   137  1.3600000000000E+00  1.8322923221207E-01  1.5242170437791E+00
   138  1.3700000000000E+00  1.5572905319626E-01  1.5343930214121E+00
   139  1.3800000000000E+00  1.2897742152124E-01  1.5419048383783E+00
   140  1.3900000000000E+00  1.0301852324401E-01  1.5467368176292E+00
   141  1.4000000000000E+00  7.7893536633312E-02  1.5488830723594E+00
   142  1.4100000000000E+00  5.3640508470481E-02  1.5483475438842E+00
   143  1.4200000000000E+00  3.0294244903258E-02  1.5451439926029E+00
   144  1.4300000000000E+00  7.8862173078212E-03  1.5392959418936E+00
   145  1.4400000000000E+00 -1.3555516467460E-02  1.5308365750456E+00
   146  1.4500000000000E+00 -3.4006375186713E-02  1.5198085855892E+00
   147  1.4600000000000E+00 -5.3445301434838E-02  1.5062639816410E+00
   148  1.4700000000000E+00 -7.1854792830650E-02  1.4902638451377E+00
   149  1.4800000000000E+00 -8.9220917212115E-02  1.4718780470784E+00
   150  1.4900000000000E+00 -1.0553331184720E-01  1.4511849201427E+00
   151  1.5000000000000E+00 -1.2078516680895E-01  1.4282708902875E+00
   152  1.5100000000000E+00 -1.3497319273785E-01  1.4032300691554E+00
   153  1.5200000000000E+00 -1.4809757329631E-01  1.3761638093435E+00
   154  1.5300000000000E+00 -1.6016190270076E-01  1.3471802247937E+00
   155  1.5400000000000E+00 -1.7117310879360E-01  1.3163936787536E+00
   156  1.5500000000000E+00 -1.8114136219186E-01  1.2839242419445E+00
   157  1.5600000000000E+00 -1.9007997211928E-01  1.2498971237333E+00
   158  1.5700000000000E+00 -1.9800526959514E-01  1.2144420792565E+00
   159  1.5800000000000E+00 -2.0493647871498E-01  1.1776927955778E+00
   160  1.5900000000000E+00 -2.1089557681490E-01  1.1397862600721E+00
   161  1.6000000000000E+00 -2.1590714436336E-01  1.1008621143266E+00
   162  1.6100000000000E+00 -2.1999820547010E-01  1.0610619969237E+00
   163  1.6200000000000E+00 -2.2319805994243E-01  1.0205288785284E+00
   164  1.6300000000000E+00 -2.2553810785356E-01  9.7940639273565E-01
   165  1.6400000000000E+00 -2.2705166761574E-01  9.3783816615116E-01
   166  1.6500000000000E+00 -2.2777378857284E-01  8.9596715117050E-01
   167  1.6600000000000E+00 -2.2774105914245E-01  8.5393496489705E-01
   168  1.6700000000000E+00 -2.2699141154657E-01  8.1188123759068E-01
   169  1.6800000000000E+00 -2.2556392417193E-01  7.6994297397189E-01
   170  1.6900000000000E+00 -2.2349862259747E-01  7.2825393061874E-01
   171  1.7000000000000E+00 -2.2083628031536E-01  6.8694401258662E-01
   172  1.7100000000000E+00 -2.1761822015537E-01  6.4613869225487E-01
   173  1.7200000000000E+00 -2.1388611739919E-01  6.0595845326080E-01
   174  1.7300000000000E+00 -2.0968180554238E-01  5.6651826222021E-01
   175  1.7400000000000E+00 -2.0504708562674E-01  5.2792707075625E-01
   176  1.7500000000000E+00 -2.0002354002562E-01  4.9028735016645E-01
   177  1.7600000000000E+00 -1.9465235151928E-01  4.5369466085120E-01
   178  1.7700000000000E+00 -1.8897412844734E-01  4.1823725840869E-01
   179  1.7800000000000E+00 -1.8302873667017E-01  3.8399573807098E-01
   180  1.7900000000000E+00 -1.7685513901291E-01  3.5104271891674E-01
   181  1.8000000000000E+00 -1.7049124280295E-01  3.1944256904805E-01
   182  1.8100000000000E+00 -1.6397375604628E-01  2.8925117266444E-01
   183  1.8200000000000E+00 -1.5733805271999E-01  2.6051573970796E-01
   184  1.8300000000000E+00 -1.5061804758738E-01  2.3327465849009E-01
   185  1.8400000000000E+00 -1.4384608087023E-01  2.0755739144717E-01
   186  1.8500000000000E+00 -1.3705281303907E-01  1.8338441390645E-01
   187  1.8600000000000E+00 -1.3026712990832E-01  1.6076719548204E-01
   188  1.8700000000000E+00 -1.2351605814876E-01  1.3970822346118E-01
   189  1.8800000000000E+00 -1.1682469121418E-01  1.2020106707295E-01
   190  1.8900000000000E+00 -1.1021612555792E-01  1.0223048112011E-01
   191  1.9000000000000E+00 -1.0371141071778E-01  8.5772565953387E-02
   192  1.9100000000000E+00 -9.7329492843816E-02  7.0794879581221E-02
   193  1.9200000000000E+00 -9.1087307232860E-02  5.7257296415331E-02
   194  1.9300000000000E+00 -8.4999992373886E-02  4.5113410358569E-02
   195  1.9400000000000E+00 -7.9081039316777E-02  3.4311513542785E-02
   196  1.9500000000000E+00 -7.3342331682120E-02  2.4794971874343E-02
   197  1.9600000000000E+00 -6.7794210989209E-02  1.6502716461632E-02
   198  1.9700000000000E+00 -6.2445546165846E-02  9.3697376607049E-03
   199  1.9800000000000E+00 -5.7303809970591E-02  3.3275976964971E-03
   200  1.9900000000000E+00 -5.2375161542115E-02 -1.6950415433748E-03
   201  2.0000000000000E+00 -4.7664534232217E-02 -5.7718790669516E-03
   202  2.0100000000000E+00 -4.3175727902388E-02 -8.9784270104663E-03
   203  2.0200000000000E+00 -3.8911504843305E-02 -1.1391457909405E-02
   204  2.0300000000000E+00 -3.4873688461873E-02 -1.3088450394008E-02
   205  2.0400000000000E+00 -3.1063263871526E-02 -1.4147036699950E-02
   206  2.0500000000000E+00 -2.7480479518115E-02 -1.4644455365918E-02
   207  2.0600000000000E+00 -2.4124948529444E-02 -1.4657013441534E-02
   208  2.0700000000000E+00 -2.0995751623970E-02 -1.4259555542988E-02
   209  2.0800000000000E+00 -1.8091538417736E-02 -1.3524948200495E-02
   210  2.0900000000000E+00 -1.5410606545197E-02 -1.2523624614328E-02
   211  2.1000000000000E+00 -1.2951035921328E-02 -1.1323029884925E-02
   212  2.1100000000000E+00 -1.0711625708555E-02 -9.9852839703338E-03
   213  2.1200000000000E+00 -8.6914784749693E-03 -8.5678483620876E-03
   214  2.1300000000000E+00 -6.8879882568086E-03 -7.1277648336819E-03
   215  2.1400000000000E+00 -5.2985942550385E-03 -5.7176326561502E-03
   216  2.1500000000000E+00 -3.9209198191949E-03 -4.3851218688245E-03
   217  2.1600000000000E+00 -2.7528067640834E-03 -3.1727339235277E-03
   218  2.1700000000000E+00 -1.7923896641625E-03 -2.1174981102191E-03
   219  2.1800000000000E+00 -1.0385644958070E-03 -1.2512252678858E-03
   220  2.1900000000000E+00 -4.8700455250824E-04 -5.9529278246222E-04
   221  2.2000000000000E+00 -1.4602357418398E-04 -1.8019347960101E-04
   222  2.2100000000000E+00 -9.2115453229626E-06 -1.1268561996841E-05
   223  2.2200000000000E+00  6.9531321704344E-06  8.7711710248739E-06
   224  2.2300000000000E+00 -2.5557831543040E-06 -3.2052426168129E-06
   225  2.24  0.  0.
   226  2.25  0.  0.
   227  2.26  0.  0.
   228  2.27  0.  0.
   229  2.28  0.  0.
   230  2.29  0.  0.
   231  2.30  0.  0.
   232  2.31  0.  0.
   233  2.32  0.  0.
   234  2.33  0.  0.
   235  2.34  0.  0.
   236  2.35  0.  0.
   237  2.36  0.  0.
   238  2.37  0.  0.
   239  2.38  0.  0.
   240  2.39  0.  0.
   241  2.40  0.  0.
   242  2.41  0.  0.
   243  2.42  0.  0.
   244  2.43  0.  0.
   245  2.44  0.  0.
   246  2.45  0.  0.
   247  2.46  0.  0.
   248  2.47  0.  0.
   249  2.48  0.  0.
   250  2.49  0.  0.
   251  2.50  0.  0.
   252  2.51  0.  0.
   253  2.52  0.  0.
   254  2.53  0.  0.
   255  2.54  0.  0.
   256  2.55  0.  0.
   257  2.56  0.  0.
   258  2.57  0.  0.
   259  2.58  0.  0.
   260  2.59  0.  0.
   261  2.60  0.  0.
   262  2.61  0.  0.
   263  2.62  0.  0.
   264  2.63  0.  0.
   265  2.64  0.  0.
   266  2.65  0.  0.
   267  2.66  0.  0.
   268  2.67  0.  0.
   269  2.68  0.  0.
   270  2.69  0.  0.
   271  2.70  0.  0.
   272  2.71  0.  0.
   273  2.72  0.  0.
   274  2.73  0.  0.
   275  2.74  0.  0.
   276  2.75  0.  0.
   277  2.76  0.  0.
   278  2.77  0.  0.
   279  2.78  0.  0.
   280  2.79  0.  0.
   281  2.80  0.  0.
   282  2.81  0.  0.
   283  2.82  0.  0.
   284  2.83  0.  0.
   285  2.84  0.  0.
   286  2.85  0.  0.
   287  2.86  0.  0.
   288  2.87  0.  0.
   289  2.88  0.  0.
   290  2.89  0.  0.
   291  2.90  0.  0.
   292  2.91  0.  0.
   293  2.92  0.  0.
   294  2.93  0.  0.
   295  2.94  0.  0.
   296  2.95  0.  0.
   297  2.96  0.  0.
   298  2.97  0.  0.
   299  2.98  0.  0.
   300  2.99  0.  0.
   301  3.00  0.  0.
   302  3.01  0.  0.
   303  3.02  0.  0.
   304  3.03  0.  0.
   305  3.04  0.  0.
   306  3.05  0.  0.
   307  3.06  0.  0.
   308  3.07  0.  0.
   309  3.08  0.  0.
   310  3.09  0.  0.
   311  3.10  0.  0.
   312  3.11  0.  0.
   313  3.12  0.  0.
   314  3.13  0.  0.
   315  3.14  0.  0.
   316  3.15  0.  0.
   317  3.16  0.  0.
   318  3.17  0.  0.
   319  3.18  0.  0.
   320  3.19  0.  0.
   321  3.20  0.  0.
   322  3.21  0.  0.
   323  3.22  0.  0.
   324  3.23  0.  0.
   325  3.24  0.  0.
   326  3.25  0.  0.
   327  3.26  0.  0.
   328  3.27  0.  0.
   329  3.28  0.  0.
   330  3.29  0.  0.
   331  3.30  0.  0.
   332  3.31  0.  0.
   333  3.32  0.  0.
   334  3.33  0.  0.
   335  3.34  0.  0.
   336  3.35  0.  0.
   337  3.36  0.  0.
   338  3.37  0.  0.
   339  3.38  0.  0.
   340  3.39  0.  0.
   341  3.40  0.  0.
   342  3.41  0.  0.
   343  3.42  0.  0.
   344  3.43  0.  0.
   345  3.44  0.  0.
   346  3.45  0.  0.
   347  3.46  0.  0.
   348  3.47  0.  0.
   349  3.48  0.  0.
   350  3.49  0.  0.
   351  3.50  0.  0.
   352  3.51  0.  0.
   353  3.52  0.  0.
   354  3.53  0.  0.
   355  3.54  0.  0.
   356  3.55  0.  0.
   357  3.56  0.  0.
   358  3.57  0.  0.
   359  3.58  0.  0.
   360  3.59  0.  0.
   361  3.60  0.  0.
   362  3.61  0.  0.
   363  3.62  0.  0.
   364  3.63  0.  0.
   365  3.64  0.  0.
   366  3.65  0.  0.
   367  3.66  0.  0.
   368  3.67  0.  0.
   369  3.68  0.  0.
   370  3.69  0.  0.
   371  3.70  0.  0.
   372  3.71  0.  0.
   373  3.72  0.  0.
   374  3.73  0.  0.
   375  3.74  0.  0.
   376  3.75  0.  0.
   377  3.76  0.  0.
   378  3.77  0.  0.
   379  3.78  0.  0.
   380  3.79  0.  0.
   381  3.80  0.  0.
   382  3.81  0.  0.
   383  3.82  0.  0.
   384  3.83  0.  0.
   385  3.84  0.  0.
   386  3.85  0.  0.
   387  3.86  0.  0.
   388  3.87  0.  0.
   389  3.88  0.  0.
   390  3.89  0.  0.
   391  3.90  0.  0.
   392  3.91  0.  0.
   393  3.92  0.  0.
   394  3.93  0.  0.
   395  3.94  0.  0.
   396  3.95  0.  0.
   397  3.96  0.  0.
   398  3.97  0.  0.
   399  3.98  0.  0.
   400  3.99  0.  0.
   401  4.00  0.  0.
   402  4.01  0.  0.
   403  4.02  0.  0.
   404  4.03  0.  0.
   405  4.04  0.  0.
   406  4.05  0.  0.
   407  4.06  0.  0.
   408  4.07  0.  0.
   409  4.08  0.  0.
   410  4.09  0.  0.
   411  4.10  0.  0.
   412  4.11  0.  0.
   413  4.12  0.  0.
   414  4.13  0.  0.
   415  4.14  0.  0.
   416  4.15  0.  0.
   417  4.16  0.  0.
   418  4.17  0.  0.
   419  4.18  0.  0.
   420  4.19  0.  0.
   421  4.20  0.  0.
   422  4.21  0.  0.
   423  4.22  0.  0.
   424  4.23  0.  0.
   425  4.24  0.  0.
   426  4.25  0.  0.
   427  4.26  0.  0.
   428  4.27  0.  0.
   429  4.28  0.  0.
   430  4.29  0.  0.
   431  4.30  0.  0.
   432  4.31  0.  0.
   433  4.32  0.  0.
   434  4.33  0.  0.
   435  4.34  0.  0.
   436  4.35  0.  0.
   437  4.36  0.  0.
   438  4.37  0.  0.
   439  4.38  0.  0.
   440  4.39  0.  0.
   441  4.40  0.  0.
   442  4.41  0.  0.
   443  4.42  0.  0.
   444  4.43  0.  0.
   445  4.44  0.  0.
   446  4.45  0.  0.
   447  4.46  0.  0.
   448  4.47  0.  0.
   449  4.48  0.  0.
   450  4.49  0.  0.
   451  4.50  0.  0.
   452  4.51  0.  0.
   453  4.52  0.  0.
   454  4.53  0.  0.
   455  4.54  0.  0.
   456  4.55  0.  0.
   457  4.56  0.  0.
   458  4.57  0.  0.
   459  4.58  0.  0.
   460  4.59  0.  0.
   461  4.60  0.  0.
   462  4.61  0.  0.
   463  4.62  0.  0.
   464  4.63  0.  0.
   465  4.64  0.  0.
   466  4.65  0.  0.
   467  4.66  0.  0.
   468  4.67  0.  0.
   469  4.68  0.  0.
   470  4.69  0.  0.
   471  4.70  0.  0.
   472  4.71  0.  0.
   473  4.72  0.  0.
   474  4.73  0.  0.
   475  4.74  0.  0.
   476  4.75  0.  0.
   477  4.76  0.  0.
   478  4.77  0.  0.
   479  4.78  0.  0.
   480  4.79  0.  0.
   481  4.80  0.  0.
   482  4.81  0.  0.
   483  4.82  0.  0.
   484  4.83  0.  0.
   485  4.84  0.  0.
   486  4.85  0.  0.
   487  4.86  0.  0.
   488  4.87  0.  0.
   489  4.88  0.  0.
   490  4.89  0.  0.
   491  4.90  0.  0.
   492  4.91  0.  0.
   493  4.92  0.  0.
   494  4.93  0.  0.
   495  4.94  0.  0.
   496  4.95  0.  0.
   497  4.96  0.  0.
   498  4.97  0.  0.
   499  4.98  0.  0.
   500  4.99  0.  0.
   501  5.00  0.  0.
   502  5.01  0.  0.
   503  5.02  0.  0.
   504  5.03  0.  0.
   505  5.04  0.  0.
   506  5.05  0.  0.
   507  5.06  0.  0.
   508  5.07  0.  0.
   509  5.08  0.  0.
   510  5.09  0.  0.
   511  5.10  0.  0.
   512  5.11  0.  0.
   513  5.12  0.  0.
   514  5.13  0.  0.
   515  5.14  0.  0.
   516  5.15  0.  0.
   517  5.16  0.  0.
   518  5.17  0.  0.
   519  5.18  0.  0.
   520  5.19  0.  0.
   521  5.20  0.  0.
   522  5.21  0.  0.
   523  5.22  0.  0.
   524  5.23  0.  0.
   525  5.24  0.  0.
   526  5.25  0.  0.
   527  5.26  0.  0.
   528  5.27  0.  0.
   529  5.28  0.  0.
   530  5.29  0.  0.
   531  5.30  0.  0.
   532  5.31  0.  0.
   533  5.32  0.  0.
   534  5.33  0.  0.
   535  5.34  0.  0.
   536  5.35  0.  0.
   537  5.36  0.  0.
   538  5.37  0.  0.
   539  5.38  0.  0.
   540  5.39  0.  0.
   541  5.40  0.  0.
   542  5.41  0.  0.
   543  5.42  0.  0.
   544  5.43  0.  0.
   545  5.44  0.  0.
   546  5.45  0.  0.
   547  5.46  0.  0.
   548  5.47  0.  0.
   549  5.48  0.  0.
   550  5.49  0.  0.
   551  5.50  0.  0.
   552  5.51  0.  0.
   553  5.52  0.  0.
   554  5.53  0.  0.
   555  5.54  0.  0.
   556  5.55  0.  0.
   557  5.56  0.  0.
   558  5.57  0.  0.
   559  5.58  0.  0.
   560  5.59  0.  0.
   561  5.60  0.  0.
   562  5.61  0.  0.
   563  5.62  0.  0.
   564  5.63  0.  0.
   565  5.64  0.  0.
   566  5.65  0.  0.
   567  5.66  0.  0.
   568  5.67  0.  0.
   569  5.68  0.  0.
   570  5.69  0.  0.
   571  5.70  0.  0.
   572  5.71  0.  0.
   573  5.72  0.  0.
   574  5.73  0.  0.
   575  5.74  0.  0.
   576  5.75  0.  0.
   577  5.76  0.  0.
   578  5.77  0.  0.
   579  5.78  0.  0.
   580  5.79  0.  0.
   581  5.80  0.  0.
   582  5.81  0.  0.
   583  5.82  0.  0.
   584  5.83  0.  0.
   585  5.84  0.  0.
   586  5.85  0.  0.
   587  5.86  0.  0.
   588  5.87  0.  0.
   589  5.88  0.  0.
   590  5.89  0.  0.
   591  5.90  0.  0.
   592  5.91  0.  0.
   593  5.92  0.  0.
   594  5.93  0.  0.
   595  5.94  0.  0.
   596  5.95  0.  0.
   597  5.96  0.  0.
   598  5.97  0.  0.
   599  5.98  0.  0.
   600  5.99  0.  0.
   1                         4.7460760606214E+00  5.9311824967731E-01  1.3284670054167E-01
     1  0.0000000000000E+00  5.0850730570762E-10 -1.0887575632723E-09  3.4080413352511E-09
     2  1.0000000000000E-02  4.6298484601922E-04 -6.1765813641412E-04  1.0451999136639E-03
     3  2.0000000000000E-02  1.8493902006482E-03 -2.4651589992636E-03  4.1655419626204E-03
     4  3.0000000000000E-02  4.1515947025639E-03 -5.5261387789566E-03  9.3154273587307E-03
     5  4.0000000000000E-02  7.3569831029538E-03 -9.7735132998597E-03  1.6419437228366E-02
     6  5.0000000000000E-02  1.1448075830742E-02 -1.5169759216175E-02  2.5373194805254E-02
     7  6.0000000000000E-02  1.6402708464265E-02 -2.1667303578322E-02  3.6044559633826E-02
     8  7.0000000000000E-02  2.2194259213218E-02 -2.9209017711818E-02  4.8275141074255E-02
     9  8.0000000000000E-02  2.8791922006212E-02 -3.7728810261893E-02  6.1882114992296E-02
    10  9.0000000000000E-02  3.6161022295211E-02 -4.7152313220311E-02  7.6660324273674E-02
    11  1.0000000000000E-01  4.4263372233605E-02 -5.7397653776742E-02  9.2384640757213E-02
    12  1.1000000000000E-01  5.3057661464166E-02 -6.8376303935272E-02  1.0881256336385E-01
    13  1.2000000000000E-01  6.2499879371084E-02 -7.9993999016598E-02  1.2568702464008E-01
    14  1.3000000000000E-01  7.2543764310601E-02 -9.2151715436439E-02  1.4273937565975E-01
    15  1.4000000000000E-01  8.3141275040957E-02 -1.0474669751823E-01  1.5969251726179E-01
    16  1.5000000000000E-01  9.4243079327524E-02 -1.1767352256978E-01  1.7626414396381E-01
    17  1.6000000000000E-01  1.0579905450574E-01 -1.3082519303487E-01  1.9217006559971E-01
    18  1.7000000000000E-01  1.1775879464476E-01 -1.4409424422607E-01  2.0712757079768E-01
    19  1.8000000000000E-01  1.3007211887035E-01 -1.5737385595764E-01  2.2085879585353E-01
    20  1.9000000000000E-01  1.4268957537712E-01 -1.7055895632989E-01  2.3309406236978E-01
    21  2.0000000000000E-01  1.5556293568866E-01 -1.8354730596873E-01  2.4357514722598E-01
    22  2.1000000000000E-01  1.6864567380876E-01 -1.9624055119737E-01  2.5205844902040E-01
    23  2.2000000000000E-01  1.8189342504767E-01 -2.0854523490892E-01  2.5831801607113E-01
    24  2.3000000000000E-01  1.9526441950237E-01 -2.2037375431662E-01  2.6214840237928E-01
    25  2.4000000000000E-01  2.0871988541765E-01 -2.3164525527903E-01  2.6336731962457E-01
    26  2.5000000000000E-01  2.2222441795326E-01 -2.4228645352543E-01  2.6181805526932E-01
    27  2.6000000000000E-01  2.3574630922797E-01 -2.5223237383634E-01  2.5737162917110E-01
    28  2.7000000000000E-01  2.4925783590174E-01 -2.6142699905812E-01  2.4992866372523E-01
    29  2.8000000000000E-01  2.6273550098722E-01 -2.6982382174125E-01  2.3942094544909E-01
    30  2.9000000000000E-01  2.7616022704917E-01 -2.7738629217994E-01  2.2581265905454E-01
    31  3.0000000000000E-01  2.8951749844808E-01 -2.8408815768710E-01  2.0910127839952E-01
    32  3.1000000000000E-01  3.0279745080979E-01 -2.8991368905217E-01  1.8931810223396E-01
    33  3.2000000000000E-01  3.1599490644928E-01 -2.9485779128977E-01  1.6652842632226E-01
    34  3.3000000000000E-01  3.2910935503960E-01 -2.9892599698185E-01  1.4083134729823E-01
    35  3.4000000000000E-01  3.4214487938967E-01 -3.0213434173478E-01  1.1235919745157E-01
    36  3.5000000000000E-01  3.5511002677288E-01 -3.0450912250135E-01  8.1276613517449E-02
    37  3.6000000000000E-01  3.6801762682433E-01 -3.0608654074549E-01  4.7779246404941E-02
    38  3.7000000000000E-01  3.8088455759470E-01 -3.0691223364100E-01  1.2092122615000E-02
    39  3.8000000000000E-01  3.9373146190476E-01 -3.0704069768265E-01 -2.5532328173432E-02
    40  3.9000000000000E-01  4.0658241668311E-01 -3.0653461023708E-01 -6.4816561268765E-02
    41  4.0000000000000E-01  4.1946455848315E-01 -3.0546405565941E-01 -1.0546049936490E-01
    42  4.1000000000000E-01  4.3240766886010E-01 -3.0390566363835E-01 -1.4714438441422E-01
    43  4.2000000000000E-01  4.4544372373845E-01 -3.0194166839727E-01 -1.8953187121168E-01
    44  4.3000000000000E-01  4.5860641131073E-01 -2.9965889826054E-01 -2.3227333218610E-01
    45  4.4000000000000E-01  4.7193062337527E-01 -2.9714770588449E-01 -2.7500934044906E-01
    46  4.5000000000000E-01  4.8545192533927E-01 -2.9450085014165E-01 -3.1737429602830E-01
    47  4.6000000000000E-01  4.9920601038158E-01 -2.9181234122859E-01 -3.5900015843415E-01
    48  4.7000000000000E-01  5.1322814348229E-01 -2.8917626103424E-01 -3.9952024729482E-01
    49  4.8000000000000E-01  5.2755260118300E-01 -2.8668557115244E-01 -4.3857307176678E-01
    50  4.9000000000000E-01  5.4221211303907E-01 -2.8443092114517E-01 -4.7580614879197E-01
    51  5.0000000000000E-01  5.5723731076218E-01 -2.8249946975764E-01 -5.1087977004475E-01
    52  5.1000000000000E-01  5.7265619102817E-01 -2.8097373175292E-01 -5.4347067759244E-01
    53  5.2000000000000E-01  5.8849359783948E-01 -2.7993046286999E-01 -5.7327560888602E-01
    54  5.3000000000000E-01  6.0477073018619E-01 -2.7943959511640E-01 -6.0001467269847E-01
    55  5.4000000000000E-01  6.2150468054352E-01 -2.7956323418806E-01 -6.2343451903095E-01
    56  5.5000000000000E-01  6.3870800947979E-01 -2.8035473026515E-01 -6.4331126779961E-01
    57  5.6000000000000E-01  6.5638836132916E-01 -2.8185783277245E-01 -6.5945316328386E-01
    58  5.7000000000000E-01  6.7454812551003E-01 -2.8410593891690E-01 -6.7170292384131E-01
    59  5.8000000000000E-01  6.9318414764744E-01 -2.8712144493549E-01 -6.7993975925152E-01
    60  5.9000000000000E-01  7.1228749418870E-01 -2.9091520800714E-01 -6.8408103121633E-01
    61  6.0000000000000E-01  7.3184327369118E-01 -2.9548612571560E-01 -6.8408353598631E-01
    62  6.1000000000000E-01  7.5183051741404E-01 -3.0082083880407E-01 -6.7994439177077E-01
    63  6.2000000000000E-01  7.7222212126672E-01 -3.0689356174830E-01 -6.7170151748629E-01
    64  6.3000000000000E-01  7.9298485056257E-01 -3.1366604440543E-01 -6.5943369346852E-01