Po    ONCVPSP-4.0.1  r_core=   2.21188   2.21188   1.90464
     84.0000     16.0000      250217    zatom,zion,pspd
     8       2   2     4   600     0    pspcod,pspxc,lmax,lloc,mmax,r2well
  5.99000000  6.00000000  0.00000000    rchrg fchrg qchrg
     2     3     2     0    nproj
     3     1           extension_switch
     4     3     0    nprojso
   0                         6.3203810221835E+00  9.2352076285958E-01
     1  0.0000000000000E+00 -1.4506229550904E-11  3.2672631961050E-11
     2  1.0000000000000E-02  1.7243330659824E-02  1.0667074527966E-03
     3  2.0000000000000E-02  3.4479316630528E-02  2.1307407375517E-03
     4  3.0000000000000E-02  5.1700683096240E-02  3.1893258247742E-03
     5  4.0000000000000E-02  6.8900294406591E-02  4.2394900962017E-03
     6  5.0000000000000E-02  8.6071222210650E-02  5.2779658774487E-03
     7  6.0000000000000E-02  1.0320681186256E-01  6.3010973399233E-03
     8  7.0000000000000E-02  1.2030074653983E-01  7.3047518566408E-03
     9  8.0000000000000E-02  1.3734710852974E-01  8.2842368638905E-03
    10  9.0000000000000E-02  1.5434043715725E-01  9.2342232402490E-03
    11  1.0000000000000E-01  1.7127578284938E-01  1.0148676166404E-02
    12  1.1000000000000E-01  1.8814875685520E-01  1.1020794373980E-02
    13  1.2000000000000E-01  2.0495557616889E-01  1.1842958629353E-02
    14  1.3000000000000E-01  2.2169310323357E-01  1.2606690229685E-02
    15  1.4000000000000E-01  2.3835888003738E-01  1.3302620213521E-02
    16  1.5000000000000E-01  2.5495115624954E-01  1.3920469907750E-02
    17  1.6000000000000E-01  2.7146891108225E-01  1.4449043346986E-02
    18  1.7000000000000E-01  2.8791186860578E-01  1.4876232011099E-02
    19  1.8000000000000E-01  3.0428050628616E-01  1.5189032232087E-02
    20  1.9000000000000E-01  3.2057605655995E-01  1.5373575523586E-02
    21  2.0000000000000E-01  3.3680050130626E-01  1.5415171985460E-02
    22  2.1000000000000E-01  3.5295655912353E-01  1.5298366832788E-02
    23  2.2000000000000E-01  3.6904766536692E-01  1.5007009993891E-02
    24  2.3000000000000E-01  3.8507794495086E-01  1.4524338616411E-02
    25  2.4000000000000E-01  4.0105217797075E-01  1.3833072214588E-02
    26  2.5000000000000E-01  4.1697575824727E-01  1.2915520085456E-02
    27  2.6000000000000E-01  4.3285464494598E-01  1.1753700517289E-02
    28  2.7000000000000E-01  4.4869530747376E-01  1.0329471211248E-02
    29  2.8000000000000E-01  4.6450466390174E-01  8.6246702371111E-03
    30  2.9000000000000E-01  4.8029001321141E-01  6.6212667471133E-03
    31  3.0000000000000E-01  4.9605896170648E-01  4.3015205790842E-03
    32  3.1000000000000E-01  5.1181934397698E-01  1.6481497914511E-03
    33  3.2000000000000E-01  5.2757913884471E-01 -1.3554949105804E-03
    34  3.3000000000000E-01  5.4334638075911E-01 -4.7252499760472E-03
    35  3.4000000000000E-01  5.5912906715043E-01 -8.4759542261157E-03
    36  3.5000000000000E-01  5.7493506228245E-01 -1.2621260743005E-02
    37  3.6000000000000E-01  5.9077199817886E-01 -1.7173446741084E-02
    38  3.7000000000000E-01  6.0664717322723E-01 -2.2143222780845E-02
    39  3.8000000000000E-01  6.2256744908984E-01 -2.7539542727068E-02
    40  3.9000000000000E-01  6.3853914657339E-01 -3.3369415885204E-02
    41  4.0000000000000E-01  6.5456794112847E-01 -3.9637722773050E-02
    42  4.1000000000000E-01  6.7065875866436E-01 -4.6347035999062E-02
    43  4.2000000000000E-01  6.8681567237613E-01 -5.3497447723136E-02
    44  4.3000000000000E-01  7.0304180128771E-01 -6.1086405170408E-02
    45  4.4000000000000E-01  7.1933921121776E-01 -6.9108555653914E-02
    46  4.5000000000000E-01  7.3570881887354E-01 -7.7555602536713E-02
    47  4.6000000000000E-01  7.5215029977270E-01 -8.6416173529601E-02
    48  4.7000000000000E-01  7.6866200068271E-01 -9.5675702675796E-02
    49  4.8000000000000E-01  7.8524085725382E-01 -1.0531632731951E-01
    50  4.9000000000000E-01  8.0188231750285E-01 -1.1531680129158E-01
    51  5.0000000000000E-01  8.1858027178260E-01 -1.2565242547188E-01
    52  5.1000000000000E-01  8.3532698984503E-01 -1.3629499680627E-01
    53  5.2000000000000E-01  8.5211306557548E-01 -1.4721277676438E-01
    54  5.3000000000000E-01  8.6892736994083E-01 -1.5837048012597E-01
    55  5.4000000000000E-01  8.8575701265584E-01 -1.6972928487607E-01
    56  5.5000000000000E-01  9.0258731303036E-01 -1.8124686387528E-01
    57  5.6000000000000E-01  9.1940178041432E-01 -1.9287743885042E-01
    58  5.7000000000000E-01  9.3618210460943E-01 -2.0457185712409E-01
    59  5.8000000000000E-01  9.5290815656479E-01 -2.1627769136924E-01
    60  5.9000000000000E-01  9.6955799961962E-01 -2.2793936253800E-01
    61  6.0000000000000E-01  9.8610791150003E-01 -2.3949828597323E-01
    62  6.1000000000000E-01  1.0025324172180E+00 -2.5089304056767E-01
    63  6.2000000000000E-01  1.0188043329607E+00 -2.6205956068916E-01
    64  6.3000000000000E-01  1.0348948209959E+00 -2.7293135044327E-01
    65  6.4000000000000E-01  1.0507734555574E+00 -2.8343971969686E-01
    66  6.5000000000000E-01  1.0664082996097E+00 -2.9351404113836E-01
    67  6.6000000000000E-01  1.0817659923275E+00 -3.0308202750494E-01
    68  6.7000000000000E-01  1.0968118470617E+00 -3.1207002796231E-01
    69  6.8000000000000E-01  1.1115099594997E+00 -3.2040334248306E-01
    70  6.9000000000000E-01  1.1258233256642E+00 -3.2800655293221E-01
    71  7.0000000000000E-01  1.1397139693335E+00 -3.3480386943765E-01
    72  7.1000000000000E-01  1.1531430784058E+00 -3.4071949049760E-01
    73  7.2000000000000E-01  1.1660711496699E+00 -3.4567797515843E-01
    74  7.3000000000000E-01  1.1784581413905E+00 -3.4960462548498E-01
    75  7.4000000000000E-01  1.1902636330600E+00 -3.5242587744357E-01
    76  7.5000000000000E-01  1.2014469916198E+00 -3.5406969822378E-01
    77  7.6000000000000E-01  1.2119675434037E+00 -3.5446598794260E-01
    78  7.7000000000000E-01  1.2217847510148E+00 -3.5354698360138E-01
    79  7.8000000000000E-01  1.2308583943050E+00 -3.5124766310502E-01
    80  7.9000000000000E-01  1.2391487545885E+00 -3.4750614710355E-01
    81  8.0000000000000E-01  1.2466168011933E+00 -3.4226409637886E-01
    82  8.1000000000000E-01  1.2532243794228E+00 -3.3546710247599E-01
    83  8.2000000000000E-01  1.2589343989797E+00 -3.2706506926654E-01
    84  8.3000000000000E-01  1.2637110218868E+00 -3.1701258313539E-01
    85  8.4000000000000E-01  1.2675198489269E+00 -3.0526926949758E-01
    86  8.5000000000000E-01  1.2703281036171E+00 -2.9180013338284E-01
    87  8.6000000000000E-01  1.2721048127321E+00 -2.7657588186926E-01
    88  8.7000000000000E-01  1.2728209823950E+00 -2.5957322620594E-01
    89  8.8000000000000E-01  1.2724497687641E+00 -2.4077516153618E-01
    90  8.9000000000000E-01  1.2709666423587E+00 -2.2017122221813E-01
    91  9.0000000000000E-01  1.2683495450905E+00 -1.9775771083907E-01
    92  9.1000000000000E-01  1.2645790390890E+00 -1.7353789913051E-01
    93  9.2000000000000E-01  1.2596384464476E+00 -1.4752219911617E-01
    94  9.3000000000000E-01  1.2535139790472E+00 -1.1972830296042E-01
    95  9.4000000000000E-01  1.2461948576627E+00 -9.0181290132438E-02
    96  9.5000000000000E-01  1.2376734195999E+00 -5.8913700659002E-02
    97  9.6000000000000E-01  1.2279452141669E+00 -2.5965573406998E-02
    98  9.7000000000000E-01  1.2170090853361E+00  8.6155514871772E-03
    99  9.8000000000000E-01  1.2048672410171E+00  4.4774666738888E-02
   100  9.9000000000000E-01  1.1915253084227E+00  8.2449369093634E-02
   101  1.0000000000000E+00  1.1769923750802E+00  1.2156996787061E-01
   102  1.0100000000000E+00  1.1612810151097E+00  1.6205963097762E-01
   103  1.0200000000000E+00  1.1444073004665E+00  2.0383456829666E-01
   104  1.0300000000000E+00  1.1263907969197E+00  2.4680425213087E-01
   105  1.0400000000000E+00  1.1072545446188E+00  2.9087167419320E-01
   106  1.0500000000000E+00  1.0870250231795E+00  3.3593363840694E-01
   107  1.0600000000000E+00  1.0657321012989E+00  3.8188108857874E-01
   108  1.0700000000000E+00  1.0434089709967E+00  4.2859946979859E-01
   109  1.0800000000000E+00  1.0200920666550E+00  4.7596912221720E-01
   110  1.0900000000000E+00  9.9582096911374E-01  5.2386570565437E-01
   111  1.1000000000000E+00  9.7063829516098E-01  5.7216065329872E-01
   112  1.1100000000000E+00  9.4458957283160E-01  6.2072165257570E-01
   113  1.1200000000000E+00  9.1772310301061E-01  6.6941315108450E-01
   114  1.1300000000000E+00  8.9008980790939E-01  7.1809688533850E-01
   115  1.1400000000000E+00  8.6174306705728E-01  7.6663242988907E-01
   116  1.1500000000000E+00  8.3273854151964E-01  8.1487776426910E-01
   117  1.1600000000000E+00  8.0313398712027E-01  8.6268985506274E-01
   118  1.1700000000000E+00  7.7298905750738E-01  9.0992525029170E-01
   119  1.1800000000000E+00  7.4236509796044E-01  9.5644068320676E-01
   120  1.1900000000000E+00  7.1132493088798E-01  1.0020936824877E+00
   121  1.2000000000000E+00  6.7993263401456E-01  1.0467431857851E+00
   122  1.2100000000000E+00  6.4825331229744E-01  1.0902501534841E+00
   123  1.2200000000000E+00  6.1635286465056E-01  1.1324781795367E+00
   124  1.2300000000000E+00  5.8429774658474E-01  1.1732940961886E+00
   125  1.2400000000000E+00  5.5215472989745E-01  1.2125685694300E+00
   126  1.2500000000000E+00  5.1999066056491E-01  1.2501766820164E+00
   127  1.2600000000000E+00  4.8787221600105E-01  1.2859985009428E+00
   128  1.2700000000000E+00  4.5586566285408E-01  1.3199196263108E+00
   129  1.2800000000000E+00  4.2403661651055E-01  1.3518317185998E+00
   130  1.2900000000000E+00  3.9244980346948E-01  1.3816330014462E+00
   131  1.3000000000000E+00  3.6116882773556E-01  1.4092287371414E+00
   132  1.3100000000000E+00  3.3025594235984E-01  1.4345316721868E+00
   133  1.3200000000000E+00  2.9977182722979E-01  1.4574624503846E+00
   134  1.3300000000000E+00  2.6977537417777E-01  1.4779499911002E+00
   135  1.3400000000000E+00  2.4032348043794E-01  1.4959318305066E+00
   136  1.3500000000000E+00  2.1147085143661E-01  1.5113544238048E+00
   137  1.3600000000000E+00  1.8326981385132E-01  1.5241734066147E+00
   138  1.3700000000000E+00  1.5577013981753E-01  1.5343538139425E+00
   139  1.3800000000000E+00  1.2901888310179E-01  1.5418702553506E+00
   140  1.3900000000000E+00  1.0306022799478E-01  1.5467070451878E+00
   141  1.4000000000000E+00  7.7935351608457E-02  1.5488582869773E+00
   142  1.4100000000000E+00  5.3682300188332E-02  1.5483279113032E+00
   143  1.4200000000000E+00  3.0335879975265E-02  1.5451296667899E+00
   144  1.4300000000000E+00  7.9275630720700E-03  1.5392870640204E+00
   145  1.4400000000000E+00 -1.3514591311739E-02  1.5308332724998E+00
   146  1.4500000000000E+00 -3.3965999947221E-02  1.5198109710223E+00
   147  1.4600000000000E+00 -5.3405602800541E-02  1.5062721520623E+00
   148  1.4700000000000E+00 -7.1815894255942E-02  1.4902778810595E+00
   149  1.4800000000000E+00 -8.9182938314526E-02  1.4718980117207E+00
   150  1.4900000000000E+00 -1.0549636782214E-01  1.4512108587034E+00
   151  1.5000000000000E+00 -1.2074936786509E-01  1.4283028292845E+00
   152  1.5100000000000E+00 -1.3493864355650E-01  1.4032680158465E+00
   153  1.5200000000000E+00 -1.4806437251820E-01  1.3762077512312E+00
   154  1.5300000000000E+00 -1.6013014244332E-01  1.3472301292173E+00
   155  1.5400000000000E+00 -1.7114287420190E-01  1.3164494925769E+00
   156  1.5500000000000E+00 -1.8111273102598E-01  1.2839858913408E+00
   157  1.5600000000000E+00 -1.9005301438079E-01  1.2499645140724E+00
   158  1.5700000000000E+00 -1.9798004719521E-01  1.2145150950977E+00
   159  1.5800000000000E+00 -2.0491304518627E-01  1.1777713007702E+00
   160  1.5900000000000E+00 -2.1087397706928E-01  1.1398700979648E+00
   161  1.6000000000000E+00 -2.1588741449717E-01  1.1009511080904E+00
   162  1.6100000000000E+00 -2.1998037261832E-01  1.0611559499846E+00
   163  1.6200000000000E+00 -2.2318214218307E-01  1.0206275751131E+00
   164  1.6300000000000E+00 -2.2552411416302E-01  9.7950959852818E-01
   165  1.6400000000000E+00 -2.2703959787580E-01  9.3794562905937E-01
   166  1.6500000000000E+00 -2.2776363362953E-01  8.9607860220030E-01
   167  1.6600000000000E+00 -2.2773280091679E-01  8.5405011913165E-01
   168  1.6700000000000E+00 -2.2698502319676E-01  8.1199979527130E-01
   169  1.6800000000000E+00 -2.2555937030653E-01  7.7006462167601E-01
   170  1.6900000000000E+00 -2.2349585953848E-01  7.2837834253093E-01
   171  1.7000000000000E+00 -2.2083525641002E-01  6.8707085185674E-01
   172  1.7100000000000E+00 -2.1761887613520E-01  6.4626761243777E-01
   173  1.7200000000000E+00 -2.1388838678445E-01  6.0608909983081E-01
   174  1.7300000000000E+00 -2.0968561508995E-01  5.6665027415366E-01
   175  1.7400000000000E+00 -2.0505235581900E-01  5.2806008217454E-01
   176  1.7500000000000E+00 -2.0003018559793E-01  4.9042099203170E-01
   177  1.7600000000000E+00 -1.9466028202333E-01  4.5382856270641E-01
   178  1.7700000000000E+00 -1.8898324884721E-01  4.1837105015374E-01
   179  1.7800000000000E+00 -1.8303894796826E-01  3.8412905176579E-01
   180  1.7900000000000E+00 -1.7686633890227E-01  3.5117519060254E-01
   181  1.8000000000000E+00 -1.7050332634263E-01  3.1957384057762E-01
   182  1.8100000000000E+00 -1.6398661635630E-01  2.8938089353219E-01
   183  1.8200000000000E+00 -1.5735158169213E-01  2.6064356887051E-01
   184  1.8300000000000E+00 -1.5063213660831E-01  2.3340026616825E-01
   185  1.8400000000000E+00 -1.4386062155312E-01  2.0768046090021E-01
   186  1.8500000000000E+00 -1.3706769796004E-01  1.8350464316967E-01
   187  1.8600000000000E+00 -1.3028225334408E-01  1.6088429905905E-01
   188  1.8700000000000E+00 -1.2353131681168E-01  1.3982193396245E-01
   189  1.8800000000000E+00 -1.1683998498122E-01  1.2031113679251E-01
   190  1.8900000000000E+00 -1.1023135819009E-01  1.0233668354302E-01
   191  1.9000000000000E+00 -1.0372649056461E-01  8.5874697180964E-02
   192  1.9100000000000E+00 -9.7344333538967E-02  7.0892759694168E-02
   193  1.9200000000000E+00 -9.1101828299377E-02  5.7350770540003E-02
   194  1.9300000000000E+00 -8.5014119675178E-02  4.5202349267893E-02
   195  1.9400000000000E+00 -7.9094705395449E-02  3.4395813937760E-02
   196  1.9500000000000E+00 -7.3355476052703E-02  2.4874556550077E-02
   197  1.9600000000000E+00 -6.7806780373206E-02  1.6577534326121E-02
   198  1.9700000000000E+00 -6.2457494669711E-02  9.4397636117791E-03
   199  1.9800000000000E+00 -5.7315099205561E-02  3.3928323568504E-03
   200  1.9900000000000E+00 -5.2385760685156E-02 -1.6345722325071E-03
   201  2.0000000000000E+00 -4.7674420027708E-02 -5.7161243920886E-03
   202  2.0100000000000E+00 -4.3184884604491E-02 -8.9273121700388E-03
   203  2.0200000000000E+00 -3.8919924099308E-02 -1.1344884833063E-02
   204  2.0300000000000E+00 -3.4881369137053E-02 -1.3046298693795E-02
   205  2.0400000000000E+00 -3.1070211816495E-02 -1.4109164749201E-02
   206  2.0500000000000E+00 -2.7486707279854E-02 -1.4610701501327E-02
   207  2.0600000000000E+00 -2.4130475007634E-02 -1.4627197283166E-02
   208  2.0700000000000E+00 -2.1000601673949E-02 -1.4233479426546E-02
   209  2.0800000000000E+00 -1.8095742401774E-02 -1.3502398716354E-02
   210  2.0900000000000E+00 -1.5414199844176E-02 -1.2504374235053E-02
   211  2.1000000000000E+00 -1.2954058368260E-02 -1.1306838733155E-02
   212  2.1100000000000E+00 -1.0714120852830E-02 -9.9719015774528E-03
   213  2.1200000000000E+00 -8.6934929808431E-03 -8.5570153566315E-03
   214  2.1300000000000E+00 -6.8895716906266E-03 -7.1192146974391E-03
   215  2.1400000000000E+00 -5.2997983010356E-03 -5.7110939354975E-03
   216  2.1500000000000E+00 -3.9217974612995E-03 -4.3803204166229E-03
   217  2.1600000000000E+00 -2.7534114718606E-03 -3.1693951328872E-03
   218  2.1700000000000E+00 -1.7927745629971E-03 -2.1153491588127E-03
   219  2.1800000000000E+00 -1.0387816016426E-03 -1.2499969128815E-03
   220  2.1900000000000E+00 -4.8710328346654E-04 -5.9472555876856E-04
   221  2.2000000000000E+00 -1.4605214527751E-04 -1.8002638014188E-04
   222  2.2100000000000E+00 -9.2133190118862E-06 -1.1258141775136E-05
   223  2.2200000000000E+00  6.9543928133279E-06  8.7634829727558E-06
   224  2.2300000000000E+00 -2.5562629656364E-06 -3.2023711013378E-06
   225  2.24  0.  0.
   226  2.25  0.  0.
   227  2.26  0.  0.
   228  2.27  0.  0.
   229  2.28  0.  0.
   230  2.29  0.  0.
   231  2.30  0.  0.
   232  2.31  0.  0.
   233  2.32  0.  0.
   234  2.33  0.  0.
   235  2.34  0.  0.
   236  2.35  0.  0.
   237  2.36  0.  0.
   238  2.37  0.  0.
   239  2.38  0.  0.
   240  2.39  0.  0.
   241  2.40  0.  0.
   242  2.41  0.  0.
   243  2.42  0.  0.
   244  2.43  0.  0.
   245  2.44  0.  0.
   246  2.45  0.  0.
   247  2.46  0.  0.
   248  2.47  0.  0.
   249  2.48  0.  0.
   250  2.49  0.  0.
   251  2.50  0.  0.
   252  2.51  0.  0.
   253  2.52  0.  0.
   254  2.53  0.  0.
   255  2.54  0.  0.
   256  2.55  0.  0.
   257  2.56  0.  0.
   258  2.57  0.  0.
   259  2.58  0.  0.
   260  2.59  0.  0.
   261  2.60  0.  0.
   262  2.61  0.  0.
   263  2.62  0.  0.
   264  2.63  0.  0.
   265  2.64  0.  0.
   266  2.65  0.  0.
   267  2.66  0.  0.
   268  2.67  0.  0.
   269  2.68  0.  0.
   270  2.69  0.  0.
   271  2.70  0.  0.
   272  2.71  0.  0.
   273  2.72  0.  0.
   274  2.73  0.  0.
   275  2.74  0.  0.
   276  2.75  0.  0.
   277  2.76  0.  0.
   278  2.77  0.  0.
   279  2.78  0.  0.
   280  2.79  0.  0.
   281  2.80  0.  0.
   282  2.81  0.  0.
   283  2.82  0.  0.
   284  2.83  0.  0.
   285  2.84  0.  0.
   286  2.85  0.  0.
   287  2.86  0.  0.
   288  2.87  0.  0.
   289  2.88  0.  0.
   290  2.89  0.  0.
   291  2.90  0.  0.
   292  2.91  0.  0.
   293  2.92  0.  0.
   294  2.93  0.  0.
   295  2.94  0.  0.
   296  2.95  0.  0.
   297  2.96  0.  0.
   298  2.97  0.  0.
   299  2.98  0.  0.
   300  2.99  0.  0.
   301  3.00  0.  0.
   302  3.01  0.  0.
   303  3.02  0.  0.
   304  3.03  0.  0.
   305  3.04  0.  0.
   306  3.05  0.  0.
   307  3.06  0.  0.
   308  3.07  0.  0.
   309  3.08  0.  0.
   310  3.09  0.  0.
   311  3.10  0.  0.
   312  3.11  0.  0.
   313  3.12  0.  0.
   314  3.13  0.  0.
   315  3.14  0.  0.
   316  3.15  0.  0.
   317  3.16  0.  0.
   318  3.17  0.  0.
   319  3.18  0.  0.
   320  3.19  0.  0.
   321  3.20  0.  0.
   322  3.21  0.  0.
   323  3.22  0.  0.
   324  3.23  0.  0.
   325  3.24  0.  0.
   326  3.25  0.  0.
   327  3.26  0.  0.
   328  3.27  0.  0.
   329  3.28  0.  0.
   330  3.29  0.  0.
   331  3.30  0.  0.
   332  3.31  0.  0.
   333  3.32  0.  0.
   334  3.33  0.  0.
   335  3.34  0.  0.
   336  3.35  0.  0.
   337  3.36  0.  0.
   338  3.37  0.  0.
   339  3.38  0.  0.
   340  3.39  0.  0.
   341  3.40  0.  0.
   342  3.41  0.  0.
   343  3.42  0.  0.
   344  3.43  0.  0.
   345  3.44  0.  0.
   346  3.45  0.  0.
   347  3.46  0.  0.
   348  3.47  0.  0.
   349  3.48  0.  0.
   350  3.49  0.  0.
   351  3.50  0.  0.
   352  3.51  0.  0.
   353  3.52  0.  0.
   354  3.53  0.  0.
   355  3.54  0.  0.
   356  3.55  0.  0.
   357  3.56  0.  0.
   358  3.57  0.  0.
   359  3.58  0.  0.
   360  3.59  0.  0.
   361  3.60  0.  0.
   362  3.61  0.  0.
   363  3.62  0.  0.
   364  3.63  0.  0.
   365  3.64  0.  0.
   366  3.65  0.  0.
   367  3.66  0.  0.
   368  3.67  0.  0.
   369  3.68  0.  0.
   370  3.69  0.  0.
   371  3.70  0.  0.
   372  3.71  0.  0.
   373  3.72  0.  0.
   374  3.73  0.  0.
   375  3.74  0.  0.
   376  3.75  0.  0.
   377  3.76  0.  0.
   378  3.77  0.  0.
   379  3.78  0.  0.
   380  3.79  0.  0.
   381  3.80  0.  0.
   382  3.81  0.  0.
   383  3.82  0.  0.
   384  3.83  0.  0.
   385  3.84  0.  0.
   386  3.85  0.  0.
   387  3.86  0.  0.
   388  3.87  0.  0.
   389  3.88  0.  0.
   390  3.89  0.  0.
   391  3.90  0.  0.
   392  3.91  0.  0.
   393  3.92  0.  0.
   394  3.93  0.  0.
   395  3.94  0.  0.
   396  3.95  0.  0.
   397  3.96  0.  0.
   398  3.97  0.  0.
   399  3.98  0.  0.
   400  3.99  0.  0.
   401  4.00  0.  0.
   402  4.01  0.  0.
   403  4.02  0.  0.
   404  4.03  0.  0.
   405  4.04  0.  0.
   406  4.05  0.  0.
   407  4.06  0.  0.
   408  4.07  0.  0.
   409  4.08  0.  0.
   410  4.09  0.  0.
   411  4.10  0.  0.
   412  4.11  0.  0.
   413  4.12  0.  0.
   414  4.13  0.  0.
   415  4.14  0.  0.
   416  4.15  0.  0.
   417  4.16  0.  0.
   418  4.17  0.  0.
   419  4.18  0.  0.
   420  4.19  0.  0.
   421  4.20  0.  0.
   422  4.21  0.  0.
   423  4.22  0.  0.
   424  4.23  0.  0.
   425  4.24  0.  0.
   426  4.25  0.  0.
   427  4.26  0.  0.
   428  4.27  0.  0.
   429  4.28  0.  0.
   430  4.29  0.  0.
   431  4.30  0.  0.
   432  4.31  0.  0.
   433  4.32  0.  0.
   434  4.33  0.  0.
   435  4.34  0.  0.
   436  4.35  0.  0.
   437  4.36  0.  0.
   438  4.37  0.  0.
   439  4.38  0.  0.
   440  4.39  0.  0.
   441  4.40  0.  0.
   442  4.41  0.  0.
   443  4.42  0.  0.
   444  4.43  0.  0.
   445  4.44  0.  0.
   446  4.45  0.  0.
   447  4.46  0.  0.
   448  4.47  0.  0.
   449  4.48  0.  0.
   450  4.49  0.  0.
   451  4.50  0.  0.
   452  4.51  0.  0.
   453  4.52  0.  0.
   454  4.53  0.  0.
   455  4.54  0.  0.
   456  4.55  0.  0.
   457  4.56  0.  0.
   458  4.57  0.  0.
   459  4.58  0.  0.
   460  4.59  0.  0.
   461  4.60  0.  0.
   462  4.61  0.  0.
   463  4.62  0.  0.
   464  4.63  0.  0.
   465  4.64  0.  0.
   466  4.65  0.  0.
   467  4.66  0.  0.
   468  4.67  0.  0.
   469  4.68  0.  0.
   470  4.69  0.  0.
   471  4.70  0.  0.
   472  4.71  0.  0.
   473  4.72  0.  0.
   474  4.73  0.  0.
   475  4.74  0.  0.
   476  4.75  0.  0.
   477  4.76  0.  0.
   478  4.77  0.  0.
   479  4.78  0.  0.
   480  4.79  0.  0.
   481  4.80  0.  0.
   482  4.81  0.  0.
   483  4.82  0.  0.
   484  4.83  0.  0.
   485  4.84  0.  0.
   486  4.85  0.  0.
   487  4.86  0.  0.
   488  4.87  0.  0.
   489  4.88  0.  0.
   490  4.89  0.  0.
   491  4.90  0.  0.
   492  4.91  0.  0.
   493  4.92  0.  0.
   494  4.93  0.  0.
   495  4.94  0.  0.
   496  4.95  0.  0.
   497  4.96  0.  0.
   498  4.97  0.  0.
   499  4.98  0.  0.
   500  4.99  0.  0.
   501  5.00  0.  0.
   502  5.01  0.  0.
   503  5.02  0.  0.
   504  5.03  0.  0.
   505  5.04  0.  0.
   506  5.05  0.  0.
   507  5.06  0.  0.
   508  5.07  0.  0.
   509  5.08  0.  0.
   510  5.09  0.  0.
   511  5.10  0.  0.
   512  5.11  0.  0.
   513  5.12  0.  0.
   514  5.13  0.  0.
   515  5.14  0.  0.
   516  5.15  0.  0.
   517  5.16  0.  0.
   518  5.17  0.  0.
   519  5.18  0.  0.
   520  5.19  0.  0.
   521  5.20  0.  0.
   522  5.21  0.  0.
   523  5.22  0.  0.
   524  5.23  0.  0.
   525  5.24  0.  0.
   526  5.25  0.  0.
   527  5.26  0.  0.
   528  5.27  0.  0.
   529  5.28  0.  0.
   530  5.29  0.  0.
   531  5.30  0.  0.
   532  5.31  0.  0.
   533  5.32  0.  0.
   534  5.33  0.  0.
   535  5.34  0.  0.
   536  5.35  0.  0.
   537  5.36  0.  0.
   538  5.37  0.  0.
   539  5.38  0.  0.
   540  5.39  0.  0.
   541  5.40  0.  0.
   542  5.41  0.  0.
   543  5.42  0.  0.
   544  5.43  0.  0.
   545  5.44  0.  0.
   546  5.45  0.  0.
   547  5.46  0.  0.
   548  5.47  0.  0.
   549  5.48  0.  0.
   550  5.49  0.  0.
   551  5.50  0.  0.
   552  5.51  0.  0.
   553  5.52  0.  0.
   554  5.53  0.  0.
   555  5.54  0.  0.
   556  5.55  0.  0.
   557  5.56  0.  0.
   558  5.57  0.  0.
   559  5.58  0.  0.
   560  5.59  0.  0.
   561  5.60  0.  0.
   562  5.61  0.  0.
   563  5.62  0.  0.
   564  5.63  0.  0.
   565  5.64  0.  0.
   566  5.65  0.  0.
   567  5.66  0.  0.
   568  5.67  0.  0.
   569  5.68  0.  0.
   570  5.69  0.  0.
   571  5.70  0.  0.
   572  5.71  0.  0.
   573  5.72  0.  0.
   574  5.73  0.  0.
   575  5.74  0.  0.
   576  5.75  0.  0.
   577  5.76  0.  0.
   578  5.77  0.  0.
   579  5.78  0.  0.
   580  5.79  0.  0.
   581  5.80  0.  0.
   582  5.81  0.  0.
   583  5.82  0.  0.
   584  5.83  0.  0.
   585  5.84  0.  0.
   586  5.85  0.  0.
   587  5.86  0.  0.
   588  5.87  0.  0.
   589  5.88  0.  0.
   590  5.89  0.  0.
   591  5.90  0.  0.
   592  5.91  0.  0.
   593  5.92  0.  0.
   594  5.93  0.  0.
   595  5.94  0.  0.
   596  5.95  0.  0.
   597  5.96  0.  0.
   598  5.97  0.  0.
   599  5.98  0.  0.
   600  5.99  0.  0.
   1                         4.7442436442820E+00  5.9285359567620E-01  1.3291991881730E-01
     1  0.0000000000000E+00  5.0901561091110E-10 -1.0898861257935E-09  3.4079546545884E-09
     2  1.0000000000000E-02  4.6315837681963E-04 -6.1792102828094E-04  1.0450858578811E-03
     3  2.0000000000000E-02  1.8500819927653E-03 -2.4662060789665E-03  4.1650860948167E-03
     4  3.0000000000000E-02  4.1531425193156E-03 -5.5284779336829E-03  9.3144029872423E-03
     5  4.0000000000000E-02  7.3597131822220E-03 -9.7776302498809E-03  1.6417619431172E-02
     6  5.0000000000000E-02  1.1452298455607E-02 -1.5176109026201E-02  2.5370361127950E-02
     7  6.0000000000000E-02  1.6408713712133E-02 -2.1676302541921E-02  3.6040490777663E-02
     8  7.0000000000000E-02  2.2202312931169E-02 -2.9221035708333E-02  4.8269621571198E-02
     9  8.0000000000000E-02  2.8802262057838E-02 -3.7744163680020E-02  6.1874933863946E-02
    10  9.0000000000000E-02  3.6173855121383E-02 -4.7171258536211E-02  7.6651275670894E-02
    11  1.0000000000000E-01  4.4278869766191E-02 -5.7420381867209E-02  9.2373524576991E-02
    12  1.1000000000000E-01  5.3075958427977E-02 -6.8402935198312E-02  1.0879918583996E-01
    13  1.2000000000000E-01  6.2521071005169E-02 -8.0024579362714E-02  1.2567119890390E-01
    14  1.3000000000000E-01  7.2567904535513E-02 -9.2186213204178E-02  1.4272092226741E-01
    15  1.4000000000000E-01  8.3168375093828E-02 -1.0478500135714E-01  1.5967126468398E-01
    16  1.5000000000000E-01  9.4273106881778E-02 -1.1771544032308E-01  1.7623992903420E-01
    17  1.6000000000000E-01  1.0583193328704E-01 -1.3087045164284E-01  1.9214273391821E-01
    18  1.7000000000000E-01  1.1779440454945E-01 -1.4414249065954E-01  2.0709697708458E-01
    19  1.8000000000000E-01  1.3011029658726E-01 -1.5742465917952E-01  2.2082480425080E-01
    20  1.9000000000000E-01  1.4273011550808E-01 -1.7061181027057E-01  2.3305654668587E-01
    21  2.0000000000000E-01  1.5560559235775E-01 -1.8360163348992E-01  2.4353399112079E-01
    22  2.1000000000000E-01  1.6869016274500E-01 -1.9629570900744E-01  2.5201354612711E-01
    23  2.2000000000000E-01  1.8193942612058E-01 -2.0860051938173E-01  2.5826927005241E-01
    24  2.3000000000000E-01  1.9531157968500E-01 -2.2042840815541E-01  2.6209572691533E-01
    25  2.4000000000000E-01  2.0876782214697E-01 -2.3169847495687E-01  2.6331063833128E-01
    26  2.5000000000000E-01  2.2227272285328E-01 -2.4233739742456E-01  2.6175730154542E-01
    27  2.6000000000000E-01  2.3579455215704E-01 -2.5228017100029E-01  2.5730674597372E-01
    28  2.7000000000000E-01  2.4930556928175E-01 -2.6147075846296E-01  2.4985960327405E-01
    29  2.8000000000000E-01  2.6278226436933E-01 -2.6986264198558E-01  2.3934766886024E-01
    30  2.9000000000000E-01  2.7620555186775E-01 -2.7741927148816E-01  2.2573513590599E-01
    31  3.0000000000000E-01  2.8956091291250E-01 -2.8411440411557E-01  2.0901948623083E-01
    32  3.1000000000000E-01  3.0283848488191E-01 -2.8993233078522E-01  1.8923202598414E-01
    33  3.2000000000000E-01  3.1603309685328E-01 -2.9486798691009E-01  1.6643805771040E-01
    34  3.3000000000000E-01  3.2914425025020E-01 -2.9892694559934E-01  1.4073668415257E-01
    35  3.4000000000000E-01  3.4217604454489E-01 -3.0212529285832E-01  1.1226024299369E-01
    36  3.5000000000000E-01  3.5513704845765E-01 -3.0448938553986E-01  8.1173375609108E-02
    37  3.6000000000000E-01  3.6804011767293E-01 -3.0605549402753E-01  4.7671736766130E-02
    38  3.7000000000000E-01  3.8090216066099E-01 -3.0686933284648E-01  1.1980356022439E-02
    39  3.8000000000000E-01  3.9374385475198E-01 -3.0698548358575E-01 -2.5648334697107E-02
    40  3.9000000000000E-01  4.0658931514725E-01 -3.0646671566597E-01 -6.4936789264387E-02
    41  4.0000000000000E-01  4.1946572006748E-01 -3.0538321158590E-01 -1.0558492973332E-01
    42  4.1000000000000E-01  4.3240289572185E-01 -3.0381170431954E-01 -1.4727299818809E-01
    43  4.2000000000000E-01  4.4543286523291E-01 -3.0183453550050E-01 -1.8966465029034E-01
    44  4.3000000000000E-01  4.5858936606247E-01 -2.9953864391354E-01 -2.3241026002109E-01
    45  4.4000000000000E-01  4.7190734085090E-01 -2.9701449460360E-01 -2.7515040266793E-01
    46  4.5000000000000E-01  4.8542240690161E-01 -2.9435495960269E-01 -3.1751948098435E-01
    47  4.6000000000000E-01  4.9917030981004E-01 -2.9165416185713E-01 -3.5914945767016E-01
    48  4.7000000000000E-01  5.1318636695019E-01 -2.8900629440454E-01 -3.9967365590938E-01
    49  4.8000000000000E-01  5.2750490668804E-01 -2.8650442719699E-01 -4.3873058867229E-01
    50  4.9000000000000E-01  5.4215870928889E-01 -2.8423931418969E-01 -4.7596777685455E-01
    51  5.0000000000000E-01  5.5717845552299E-01 -2.8229821340916E-01 -5.1104551609709E-01
    52  5.1000000000000E-01  5.7259218894967E-01 -2.8076373268105E-01 -5.4364055231205E-01
    53  5.2000000000000E-01  5.8842479777548E-01 -2.7971271353393E-01 -5.7344962653257E-01
    54  5.3000000000000E-01  6.0469752203524E-01 -2.7921516550201E-01 -6.0019285070561E-01
    55  5.4000000000000E-01  6.2142749163947E-01 -2.7933326263055E-01 -6.2361687744964E-01
    56  5.5000000000000E-01  6.3862730056701E-01 -2.8012041344362E-01 -6.4349782859180E-01
    57  5.6000000000000E-01  6.5630462216167E-01 -2.8162041497209E-01 -6.5964394946736E-01
    58  5.7000000000000E-01  6.7446187011819E-01 -2.8386670066378E-01 -6.7189795848860E-01
    59  5.8000000000000E-01  6.9309590931956E-01 -2.8688169111631E-01 -6.8013906434759E-01
    60  5.9000000000000E-01  7.1219782021832E-01 -2.9067625559342E-01 -6.8428462638252E-01
    61  6.0000000000000E-01  7.3175271994354E-01 -2.9524929121699E-01 -6.8429143707926E-01
    62  6.1000000000000E-01  7.5173964276760E-01 -3.0058742557982E-01 -6.8015660936807E-01
    63  6.2000000000000E-01  7.7213148198741E-01 -3.0666484730886E-01 -6.7191805527199E-01
    64  6.3000000000000E-01  7.9289499466936E-01 -3.1344326783787E-01 -6.5965454653402E-01