Na    ONCVPSP-4.0.1  r_core=   1.20044   1.55258
     11.0000      9.0000      250925    zatom,zion,pspd
     8   -1012   1     4   400     0    pspcod,pspxc,lmax,lloc,mmax,r2well
  3.99000000  0.00000000  0.00000000    rchrg fchrg qchrg
     2     2     0     0    nproj
     3     1           extension_switch
     3     0     0    nprojso
   0                         2.4979645858465E+00 -6.4892361074603E-01
     1  0.0000000000000E+00 -1.0689124918528E-08 -1.3153247657716E-09
     2  1.0000000000000E-02  1.1539451355774E-01  2.2591906942870E-02
     3  2.0000000000000E-02  2.3012389659942E-01  4.5211157769126E-02
     4  3.0000000000000E-02  3.4353053051122E-01  6.7885272515183E-02
     5  4.0000000000000E-02  4.5497168506822E-01  9.0642110882210E-02
     6  5.0000000000000E-02  5.6382662691026E-01  1.1351001081431E-01
     7  6.0000000000000E-02  6.6950333299215E-01  1.3651789054077E-01
     8  7.0000000000000E-02  7.7144469021602E-01  1.5969530349458E-01
     9  8.0000000000000E-02  8.6913407314237E-01  1.8307243683477E-01
    10  9.0000000000000E-02  9.6210020460527E-01  2.0668004588506E-01
    11  1.0000000000000E-01  1.0499212189502E+00  2.3054931861909E-01
    12  1.1000000000000E-01  1.1322278641539E+00  2.5471166632902E-01
    13  1.2000000000000E-01  1.2087057969210E+00  2.7919843876275E-01
    14  1.3000000000000E-01  1.2790969436049E+00  3.0404056425370E-01
    15  1.4000000000000E-01  1.3431999190666E+00  3.2926811764231E-01
    16  1.5000000000000E-01  1.4008695149572E+00  3.5490982104477E-01
    17  1.6000000000000E-01  1.4520152879747E+00  3.8099248470783E-01
    18  1.7000000000000E-01  1.4965992969906E+00  4.0754039724398E-01
    19  1.8000000000000E-01  1.5346330551832E+00  4.3457467641776E-01
    20  1.9000000000000E-01  1.5661737790747E+00  4.6211259330425E-01
    21  2.0000000000000E-01  1.5913200303144E+00  4.9016688402068E-01
    22  2.1000000000000E-01  1.6102068578807E+00  5.1874506430504E-01
    23  2.2000000000000E-01  1.6230005578368E+00  5.4784876295015E-01
    24  2.3000000000000E-01  1.6298931746569E+00  5.7747309047506E-01
    25  2.4000000000000E-01  1.6310968723050E+00  6.0760605941112E-01
    26  2.5000000000000E-01  1.6268383045903E+00  6.3822807219192E-01
    27  2.6000000000000E-01  1.6173531128262E+00  6.6931149186412E-01
    28  2.7000000000000E-01  1.6028806745002E+00  7.0082030969153E-01
    29  2.8000000000000E-01  1.5836592196190E+00  7.3270992222510E-01
    30  2.9000000000000E-01  1.5599214217750E+00  7.6492702858375E-01
    31  3.0000000000000E-01  1.5318905589884E+00  7.9740965656958E-01
    32  3.1000000000000E-01  1.4997773252795E+00  8.3008732386762E-01
    33  3.2000000000000E-01  1.4637773580105E+00  8.6288133800148E-01
    34  3.3000000000000E-01  1.4240695286627E+00  8.9570523598665E-01
    35  3.4000000000000E-01  1.3808150262475E+00  9.2846536179767E-01
    36  3.5000000000000E-01  1.3341572434038E+00  9.6106157690554E-01
    37  3.6000000000000E-01  1.2842224558144E+00  9.9338809630839E-01
    38  3.7000000000000E-01  1.2311212663198E+00  1.0253344397335E+00
    39  3.8000000000000E-01  1.1749507664373E+00  1.0567864850937E+00
    40  3.9000000000000E-01  1.1157973503212E+00  1.0876276088939E+00
    41  4.0000000000000E-01  1.0537400999268E+00  1.1177398961619E+00
    42  4.1000000000000E-01  9.8885464562685E-01  1.1470054006640E+00
    43  4.2000000000000E-01  9.2121739411409E-01  1.1753074347205E+00
    44  4.3000000000000E-01  8.5091000538843E-01  1.2025318668739E+00
    45  4.4000000000000E-01  7.7802399321471E-01  1.2285684050365E+00
    46  4.5000000000000E-01  7.0266531883032E-01  1.2533118425556E+00
    47  4.6000000000000E-01  6.2495884600364E-01  1.2766632449101E+00
    48  4.7000000000000E-01  5.4505252685716E-01  1.2985310554810E+00
    49  4.8000000000000E-01  4.6312119217079E-01  1.3188321000254E+00
    50  4.9000000000000E-01  3.7936982710369E-01  1.3374924711028E+00
    51  5.0000000000000E-01  2.9403622328619E-01  1.3544482757302E+00
    52  5.1000000000000E-01  2.0739291084612E-01  1.3696462319435E+00
    53  5.2000000000000E-01  1.1974828889490E-01  1.3830441026733E+00
    54  5.3000000000000E-01  3.1446890007046E-02  1.3946109583517E+00
    55  5.4000000000000E-01 -5.7131267067619E-02  1.4043272628937E+00
    56  5.5000000000000E-01 -1.4557226220515E-01  1.4121847810796E+00
    57  5.6000000000000E-01 -2.3343080106553E-01  1.4181863088404E+00
    58  5.7000000000000E-01 -3.2023366810353E-01  1.4223452314364E+00
    59  5.8000000000000E-01 -4.0548406759297E-01  1.4246849179593E+00
    60  5.9000000000000E-01 -4.8866679396484E-01  1.4252379639005E+00
    61  6.0000000000000E-01 -5.6925415282812E-01  1.4240452966482E+00
    62  6.1000000000000E-01 -6.4671253548233E-01  1.4211551616332E+00
    63  6.2000000000000E-01 -7.2050953295703E-01  1.4166220093781E+00
    64  6.3000000000000E-01 -7.9012146100803E-01  1.4105053058591E+00
    65  6.4000000000000E-01 -8.5504115540366E-01  1.4028682903152E+00
    66  6.5000000000000E-01 -9.1478588753601E-01  1.3937767058963E+00
    67  6.6000000000000E-01 -9.6890524412640E-01  1.3832975292964E+00
    68  6.7000000000000E-01 -1.0169888117331E+00  1.3714977257465E+00
    69  6.8000000000000E-01 -1.0586735070188E+00  1.3584430554413E+00
    70  6.9000000000000E-01 -1.0936503973328E+00  1.3441969566332E+00
    71  7.0000000000000E-01 -1.1216708630770E+00  1.3288195292630E+00
    72  7.1000000000000E-01 -1.1425519634476E+00  1.3123666411306E+00
    73  7.2000000000000E-01 -1.1561808803158E+00  1.2948891762714E+00
    74  7.3000000000000E-01 -1.1625183309772E+00  1.2764324424359E+00
    75  7.4000000000000E-01 -1.1616008589792E+00  1.2570357514271E+00
    76  7.5000000000000E-01 -1.1535419328666E+00  1.2367321825856E+00
    77  7.6000000000000E-01 -1.1385318050624E+00  1.2155485360003E+00
    78  7.7000000000000E-01 -1.1168361067905E+00  1.1935054781292E+00
    79  7.8000000000000E-01 -1.0887931794681E+00  1.1706178785225E+00
    80  7.9000000000000E-01 -1.0548101678503E+00  1.1468953323231E+00
    81  8.0000000000000E-01 -1.0153579248983E+00  1.1223428592701E+00
    82  8.1000000000000E-01 -9.7096480234258E-01  1.0969617661114E+00
    83  8.2000000000000E-01 -9.2220942373730E-01  1.0707506557449E+00
    84  8.3000000000000E-01 -8.6971255795986E-01  1.0437065631064E+00
    85  8.4000000000000E-01 -8.1412823015352E-01  1.0158261948925E+00
    86  8.5000000000000E-01 -7.5613422363219E-01  9.8710724770447E-01
    87  8.6000000000000E-01 -6.9642213989620E-01  9.5754977717978E-01
    88  8.7000000000000E-01 -6.3568719434425E-01  9.2715758919160E-01
    89  8.8000000000000E-01 -5.7461793226246E-01  8.9593962327355E-01
    90  8.9000000000000E-01 -5.1388605305375E-01  8.6391129809636E-01
    91  9.0000000000000E-01 -4.5413653033510E-01  8.3109578909523E-01
    92  9.1000000000000E-01 -3.9597821145056E-01  7.9752520922298E-01
    93  9.2000000000000E-01 -3.3997507217366E-01  7.6324166527337E-01
    94  9.3000000000000E-01 -2.8663829102804E-01  7.2829816425720E-01
    95  9.4000000000000E-01 -2.3641929294013E-01  6.9275934688683E-01
    96  9.5000000000000E-01 -1.8970389412224E-01  6.5670202828452E-01
    97  9.6000000000000E-01 -1.4680765950057E-01  6.2021552952263E-01
    98  9.7000000000000E-01 -1.0797256104927E-01  5.8340178746088E-01
    99  9.8000000000000E-01 -7.3365000508449E-02  5.4637523449592E-01
   100  9.9000000000000E-01 -4.3075233636624E-02  5.0926244420196E-01
   101  1.0000000000000E+00 -1.7118205899158E-02  4.7220154333138E-01
   102  1.0100000000000E+00  4.5642181271518E-03  4.3534139517398E-01
   103  1.0200000000000E+00  2.2099676820861E-02  3.9884056375550E-01
   104  1.0300000000000E+00  3.5680456979378E-02  3.6286607269923E-01
   105  1.0400000000000E+00  4.5557460068666E-02  3.2759197668989E-01
   106  1.0500000000000E+00  5.2033110355548E-02  2.9319776729059E-01
   107  1.0600000000000E+00  5.5453347455156E-02  2.5986663828806E-01
   108  1.0700000000000E+00  5.6198864538143E-02  2.2778363870770E-01
   109  1.0800000000000E+00  5.4675769110572E-02  1.9713374409697E-01
   110  1.0900000000000E+00  5.1305855479965E-02  1.6809987855654E-01
   111  1.1000000000000E+00  4.6516686586174E-02  1.4086092127783E-01
   112  1.1100000000000E+00  4.0731687556591E-02  1.1558973198377E-01
   113  1.1200000000000E+00  3.4360461992781E-02  9.2451227772005E-02
   114  1.1300000000000E+00  2.7789462327593E-02  7.1600561664387E-02
   115  1.1400000000000E+00  2.1373336447648E-02  5.3181411171225E-02
   116  1.1500000000000E+00  1.5407472989963E-02  3.7328833502320E-02
   117  1.1600000000000E+00  1.0151122485570E-02  2.4159942472825E-02
   118  1.1700000000000E+00  5.8407862763142E-03  1.3769862363882E-02
   119  1.1800000000000E+00  2.6508628281277E-03  6.2401744672413E-03
   120  1.1900000000000E+00  6.8539511199010E-04  1.6235261022693E-03
   121  1.2000000000000E+00  6.2454045448099E-06  1.5036961762143E-05
   122  1.2100000000000E+00  4.4554499226328E-06  1.0645588992249E-05
   123  1.2200000000000E+00 -6.5683362524204E-07 -1.5617129752680E-06
   124  1.23  0.  0.
   125  1.24  0.  0.
   126  1.25  0.  0.
   127  1.26  0.  0.
   128  1.27  0.  0.
   129  1.28  0.  0.
   130  1.29  0.  0.
   131  1.30  0.  0.
   132  1.31  0.  0.
   133  1.32  0.  0.
   134  1.33  0.  0.
   135  1.34  0.  0.
   136  1.35  0.  0.
   137  1.36  0.  0.
   138  1.37  0.  0.
   139  1.38  0.  0.
   140  1.39  0.  0.
   141  1.40  0.  0.
   142  1.41  0.  0.
   143  1.42  0.  0.
   144  1.43  0.  0.
   145  1.44  0.  0.
   146  1.45  0.  0.
   147  1.46  0.  0.
   148  1.47  0.  0.
   149  1.48  0.  0.
   150  1.49  0.  0.
   151  1.50  0.  0.
   152  1.51  0.  0.
   153  1.52  0.  0.
   154  1.53  0.  0.
   155  1.54  0.  0.
   156  1.55  0.  0.
   157  1.56  0.  0.
   158  1.57  0.  0.
   159  1.58  0.  0.
   160  1.59  0.  0.
   161  1.60  0.  0.
   162  1.61  0.  0.
   163  1.62  0.  0.
   164  1.63  0.  0.
   165  1.64  0.  0.
   166  1.65  0.  0.
   167  1.66  0.  0.
   168  1.67  0.  0.
   169  1.68  0.  0.
   170  1.69  0.  0.
   171  1.70  0.  0.
   172  1.71  0.  0.
   173  1.72  0.  0.
   174  1.73  0.  0.
   175  1.74  0.  0.
   176  1.75  0.  0.
   177  1.76  0.  0.
   178  1.77  0.  0.
   179  1.78  0.  0.
   180  1.79  0.  0.
   181  1.80  0.  0.
   182  1.81  0.  0.
   183  1.82  0.  0.
   184  1.83  0.  0.
   185  1.84  0.  0.
   186  1.85  0.  0.
   187  1.86  0.  0.
   188  1.87  0.  0.
   189  1.88  0.  0.
   190  1.89  0.  0.
   191  1.90  0.  0.
   192  1.91  0.  0.
   193  1.92  0.  0.
   194  1.93  0.  0.
   195  1.94  0.  0.
   196  1.95  0.  0.
   197  1.96  0.  0.
   198  1.97  0.  0.
   199  1.98  0.  0.
   200  1.99  0.  0.
   201  2.00  0.  0.
   202  2.01  0.  0.
   203  2.02  0.  0.
   204  2.03  0.  0.
   205  2.04  0.  0.
   206  2.05  0.  0.
   207  2.06  0.  0.
   208  2.07  0.  0.
   209  2.08  0.  0.
   210  2.09  0.  0.
   211  2.10  0.  0.
   212  2.11  0.  0.
   213  2.12  0.  0.
   214  2.13  0.  0.
   215  2.14  0.  0.
   216  2.15  0.  0.
   217  2.16  0.  0.
   218  2.17  0.  0.
   219  2.18  0.  0.
   220  2.19  0.  0.
   221  2.20  0.  0.
   222  2.21  0.  0.
   223  2.22  0.  0.
   224  2.23  0.  0.
   225  2.24  0.  0.
   226  2.25  0.  0.
   227  2.26  0.  0.
   228  2.27  0.  0.
   229  2.28  0.  0.
   230  2.29  0.  0.
   231  2.30  0.  0.
   232  2.31  0.  0.
   233  2.32  0.  0.
   234  2.33  0.  0.
   235  2.34  0.  0.
   236  2.35  0.  0.
   237  2.36  0.  0.
   238  2.37  0.  0.
   239  2.38  0.  0.
   240  2.39  0.  0.
   241  2.40  0.  0.
   242  2.41  0.  0.
   243  2.42  0.  0.
   244  2.43  0.  0.
   245  2.44  0.  0.
   246  2.45  0.  0.
   247  2.46  0.  0.
   248  2.47  0.  0.
   249  2.48  0.  0.
   250  2.49  0.  0.
   251  2.50  0.  0.
   252  2.51  0.  0.
   253  2.52  0.  0.
   254  2.53  0.  0.
   255  2.54  0.  0.
   256  2.55  0.  0.
   257  2.56  0.  0.
   258  2.57  0.  0.
   259  2.58  0.  0.
   260  2.59  0.  0.
   261  2.60  0.  0.
   262  2.61  0.  0.
   263  2.62  0.  0.
   264  2.63  0.  0.
   265  2.64  0.  0.
   266  2.65  0.  0.
   267  2.66  0.  0.
   268  2.67  0.  0.
   269  2.68  0.  0.
   270  2.69  0.  0.
   271  2.70  0.  0.
   272  2.71  0.  0.
   273  2.72  0.  0.
   274  2.73  0.  0.
   275  2.74  0.  0.
   276  2.75  0.  0.
   277  2.76  0.  0.
   278  2.77  0.  0.
   279  2.78  0.  0.
   280  2.79  0.  0.
   281  2.80  0.  0.
   282  2.81  0.  0.
   283  2.82  0.  0.
   284  2.83  0.  0.
   285  2.84  0.  0.
   286  2.85  0.  0.
   287  2.86  0.  0.
   288  2.87  0.  0.
   289  2.88  0.  0.
   290  2.89  0.  0.
   291  2.90  0.  0.
   292  2.91  0.  0.
   293  2.92  0.  0.
   294  2.93  0.  0.
   295  2.94  0.  0.
   296  2.95  0.  0.
   297  2.96  0.  0.
   298  2.97  0.  0.
   299  2.98  0.  0.
   300  2.99  0.  0.
   301  3.00  0.  0.
   302  3.01  0.  0.
   303  3.02  0.  0.
   304  3.03  0.  0.
   305  3.04  0.  0.
   306  3.05  0.  0.
   307  3.06  0.  0.
   308  3.07  0.  0.
   309  3.08  0.  0.
   310  3.09  0.  0.
   311  3.10  0.  0.
   312  3.11  0.  0.
   313  3.12  0.  0.
   314  3.13  0.  0.
   315  3.14  0.  0.
   316  3.15  0.  0.
   317  3.16  0.  0.
   318  3.17  0.  0.
   319  3.18  0.  0.
   320  3.19  0.  0.
   321  3.20  0.  0.
   322  3.21  0.  0.
   323  3.22  0.  0.
   324  3.23  0.  0.
   325  3.24  0.  0.
   326  3.25  0.  0.
   327  3.26  0.  0.
   328  3.27  0.  0.
   329  3.28  0.  0.
   330  3.29  0.  0.
   331  3.30  0.  0.
   332  3.31  0.  0.
   333  3.32  0.  0.
   334  3.33  0.  0.
   335  3.34  0.  0.
   336  3.35  0.  0.
   337  3.36  0.  0.
   338  3.37  0.  0.
   339  3.38  0.  0.
   340  3.39  0.  0.
   341  3.40  0.  0.
   342  3.41  0.  0.
   343  3.42  0.  0.
   344  3.43  0.  0.
   345  3.44  0.  0.
   346  3.45  0.  0.
   347  3.46  0.  0.
   348  3.47  0.  0.
   349  3.48  0.  0.
   350  3.49  0.  0.
   351  3.50  0.  0.
   352  3.51  0.  0.
   353  3.52  0.  0.
   354  3.53  0.  0.
   355  3.54  0.  0.
   356  3.55  0.  0.
   357  3.56  0.  0.
   358  3.57  0.  0.
   359  3.58  0.  0.
   360  3.59  0.  0.
   361  3.60  0.  0.
   362  3.61  0.  0.
   363  3.62  0.  0.
   364  3.63  0.  0.
   365  3.64  0.  0.
   366  3.65  0.  0.
   367  3.66  0.  0.
   368  3.67  0.  0.
   369  3.68  0.  0.
   370  3.69  0.  0.
   371  3.70  0.  0.
   372  3.71  0.  0.
   373  3.72  0.  0.
   374  3.73  0.  0.
   375  3.74  0.  0.
   376  3.75  0.  0.
   377  3.76  0.  0.
   378  3.77  0.  0.
   379  3.78  0.  0.
   380  3.79  0.  0.
   381  3.80  0.  0.
   382  3.81  0.  0.
   383  3.82  0.  0.
   384  3.83  0.  0.
   385  3.84  0.  0.
   386  3.85  0.  0.
   387  3.86  0.  0.
   388  3.87  0.  0.
   389  3.88  0.  0.
   390  3.89  0.  0.
   391  3.90  0.  0.
   392  3.91  0.  0.
   393  3.92  0.  0.
   394  3.93  0.  0.
   395  3.94  0.  0.
   396  3.95  0.  0.
   397  3.96  0.  0.
   398  3.97  0.  0.
   399  3.98  0.  0.
   400  3.99  0.  0.
   1                        -6.4475449346374E+00 -2.0572585890969E+00
     1  0.0000000000000E+00  1.3571684054359E-09 -2.6666397701103E-09
     2  1.0000000000000E-02  2.0587306834409E-03 -1.0447874815294E-03
     3  2.0000000000000E-02  8.2238046468096E-03 -4.1674477639848E-03
     4  3.0000000000000E-02  1.8461943937511E-02 -9.3329953575394E-03
     5  4.0000000000000E-02  3.2717938907437E-02 -1.6483522936919E-02
     6  5.0000000000000E-02  5.0915025990524E-02 -2.5538798857481E-02
     7  6.0000000000000E-02  7.2955411362543E-02 -3.6397093311575E-02
     8  7.0000000000000E-02  9.8720935334959E-02 -4.8936222933008E-02
     9  8.0000000000000E-02  1.2807387097753E-01 -6.3014800990813E-02
    10  9.0000000000000E-02  1.6085784919047E-01 -7.8473677826426E-02
    11  1.0000000000000E-01  1.9689890127221E-01 -9.5137553914827E-02
    12  1.1000000000000E-01  2.3600660896777E-01 -1.1281674590179E-01
    13  1.2000000000000E-01  2.7797535104877E-01 -1.3130908421394E-01
    14  1.3000000000000E-01  3.2258563467997E-01 -1.5040191937948E-01
    15  1.4000000000000E-01  3.6960549917826E-01 -1.6987421305489E-01
    16  1.5000000000000E-01  4.1879197927608E-01 -1.8949868894168E-01
    17  1.6000000000000E-01  4.6989261466601E-01 -2.0904401830691E-01
    18  1.7000000000000E-01  5.2264699243076E-01 -2.2827701469796E-01
    19  1.8000000000000E-01  5.7678830895273E-01 -2.4696481266441E-01
    20  1.9000000000000E-01  6.3204493804797E-01 -2.6487700586486E-01
    21  2.0000000000000E-01  6.8814199237675E-01 -2.8178772083225E-01
    22  2.1000000000000E-01  7.4480286564082E-01 -2.9747760388476E-01
    23  2.2000000000000E-01  8.0175074367703E-01 -3.1173570017967E-01
    24  2.3000000000000E-01  8.5871007328831E-01 -3.2436120569263E-01
    25  2.4000000000000E-01  9.1540797850398E-01 -3.3516507493530E-01
    26  2.5000000000000E-01  9.7157561491740E-01 -3.4397146947060E-01
    27  2.6000000000000E-01  1.0269494537961E+00 -3.5061903471117E-01
    28  2.7000000000000E-01  1.0812724887796E+00 -3.5496199505725E-01
    29  2.8000000000000E-01  1.1342953591587E+00 -3.5687106010506E-01
    30  2.9000000000000E-01  1.1857773849439E+00 -3.5623413739637E-01
    31  3.0000000000000E-01  1.2354875101689E+00 -3.5295684994217E-01
    32  3.1000000000000E-01  1.2832051521097E+00 -3.4696285949675E-01
    33  3.2000000000000E-01  1.3287209553237E+00 -3.3819399924271E-01
    34  3.3000000000000E-01  1.3718374505950E+00 -3.2661022213047E-01
    35  3.4000000000000E-01  1.4123696200079E+00 -3.1218937356115E-01
    36  3.5000000000000E-01  1.4501453704347E+00 -2.9492679937128E-01
    37  3.6000000000000E-01  1.4850059187019E+00 -2.7483480213864E-01
    38  3.7000000000000E-01  1.5168060925875E+00 -2.5194196065058E-01
    39  3.8000000000000E-01  1.5454145525699E+00 -2.2629232893179E-01
    40  3.9000000000000E-01  1.5707139399083E+00 -1.9794453249647E-01
    41  4.0000000000000E-01  1.5926009571562E+00 -1.6697078045104E-01
    42  4.1000000000000E-01  1.6109863876066E+00 -1.3345581271575E-01
    43  4.2000000000000E-01  1.6257950604191E+00 -9.7495801948097E-02
    44  4.3000000000000E-01  1.6369657682955E+00 -5.9197229735221E-02
    45  4.4000000000000E-01  1.6444511445504E+00 -1.8675756278301E-02
    46  4.5000000000000E-01  1.6482175062617E+00  2.3944897872114E-02
    47  4.6000000000000E-01  1.6482446699010E+00  6.8534040443601E-02
    48  4.7000000000000E-01  1.6445257454345E+00  1.1495505010847E-01
    49  4.8000000000000E-01  1.6370669143603E+00  1.6306635839633E-01
    50  4.9000000000000E-01  1.6258871965264E+00  2.1272235783155E-01
    51  5.0000000000000E-01  1.6110182098634E+00  2.6377422525676E-01
    52  5.1000000000000E-01  1.5925039263795E+00  3.1607065146276E-01
    53  5.2000000000000E-01  1.5704004269262E+00  3.6945847054296E-01
    54  5.3000000000000E-01  1.5447756563638E+00  4.2378318478850E-01
    55  5.4000000000000E-01  1.5157091798507E+00  4.7888938339579E-01
    56  5.5000000000000E-01  1.4832919400786E+00  5.3462105572983E-01
    57  5.6000000000000E-01  1.4476260143824E+00  5.9082180233034E-01
    58  5.7000000000000E-01  1.4088243697990E+00  6.4733494922130E-01
    59  5.8000000000000E-01  1.3670106133433E+00  7.0400357334540E-01
    60  5.9000000000000E-01  1.3223187340339E+00  7.6067044905280E-01
    61  6.0000000000000E-01  1.2748928325475E+00  8.1717792749038E-01
    62  6.1000000000000E-01  1.2248868338333E+00  8.7336776242795E-01
    63  6.2000000000000E-01  1.1724641775749E+00  9.2908089748916E-01
    64  6.3000000000000E-01  1.1177974810760E+00  9.8415723090042E-01
    65  6.4000000000000E-01  1.0610681689638E+00  1.0384353747061E+00
    66  6.5000000000000E-01  1.0024660640638E+00  1.0917524259048E+00
    67  6.6000000000000E-01  9.4218893390378E-01  1.1439437671282E+00
    68  6.7000000000000E-01  8.8044198755972E-01  1.1948429142968E+00
    69  6.8000000000000E-01  8.1743731795217E-01  1.2442814281556E+00
    70  6.9000000000000E-01  7.5339328524942E-01  1.2920889057068E+00
    71  7.0000000000000E-01  6.8853383771335E-01  1.3380930663387E+00
    72  7.1000000000000E-01  6.2308776713791E-01  1.3821199459062E+00
    73  7.2000000000000E-01  5.5728789696239E-01  1.4239942101785E+00
    74  7.3000000000000E-01  4.9137020218084E-01  1.4635395969489E+00
    75  7.4000000000000E-01  4.2557286130013E-01  1.5005794937453E+00
    76  7.5000000000000E-01  3.6013524180454E-01  1.5349376555132E+00
    77  7.6000000000000E-01  2.9529682184581E-01  1.5664390639087E+00
    78  7.7000000000000E-01  2.3129605217458E-01  1.5949109269846E+00
    79  7.8000000000000E-01  1.6836916363967E-01  1.6201838151224E+00
    80  7.9000000000000E-01  1.0674892688432E-01  1.6420929260980E+00
    81  8.0000000000000E-01  4.6663372140656E-02  1.6604794692347E+00
    82  8.1000000000000E-01 -1.1665521758501E-02  1.6751921557295E+00
    83  8.2000000000000E-01 -6.8023158888638E-02  1.6860887794912E+00
    84  8.3000000000000E-01 -1.2220366695758E-01  1.6930378702626E+00
    85  8.4000000000000E-01 -1.7401123501318E-01  1.6959203984363E+00
    86  8.5000000000000E-01 -2.2326143511641E-01  1.6946315088933E+00
    87  8.6000000000000E-01 -2.6978251433080E-01  1.6890822593979E+00
    88  8.7000000000000E-01 -3.1341664292097E-01  1.6792013376476E+00
    89  8.8000000000000E-01 -3.5402110437967E-01  1.6649367300028E+00
    90  8.9000000000000E-01 -3.9146941282753E-01  1.6462573142576E+00
    91  9.0000000000000E-01 -4.2565234345794E-01  1.6231543485692E+00
    92  9.1000000000000E-01 -4.5647886203913E-01  1.5956428288595E+00
    93  9.2000000000000E-01 -4.8387694003698E-01  1.5637626876462E+00
    94  9.3000000000000E-01 -5.0779424268470E-01  1.5275798083523E+00
    95  9.4000000000000E-01 -5.2819867829543E-01  1.4871868306780E+00
    96  9.5000000000000E-01 -5.4507879828254E-01  1.4427037245886E+00
    97  9.6000000000000E-01 -5.5844403870991E-01  1.3942781128454E+00
    98  9.7000000000000E-01 -5.6832479572609E-01  1.3420853247782E+00
    99  9.8000000000000E-01 -5.7477232892555E-01  1.2863281671073E+00
   100  9.9000000000000E-01 -5.7785848850741E-01  1.2272364010618E+00
   101  1.0000000000000E+00 -5.7767526404481E-01  1.1650659187390E+00
   102  1.0100000000000E+00 -5.7433415471147E-01  1.1000976155717E+00
   103  1.0200000000000E+00 -5.6796536291106E-01  1.0326359598626E+00
   104  1.0300000000000E+00 -5.5871681539072E-01  9.6300726454285E-01
   105  1.0400000000000E+00 -5.4675301806271E-01  8.9155767055991E-01
   106  1.0500000000000E+00 -5.3225375288002E-01  8.1865085553912E-01
   107  1.0600000000000E+00 -5.1541262718220E-01  7.4466548552635E-01
   108  1.0700000000000E+00 -4.9643548791261E-01  6.6999243163955E-01
   109  1.0800000000000E+00 -4.7553871498748E-01  5.9503177728855E-01
   110  1.0900000000000E+00 -4.5294740983108E-01  5.2018964518200E-01
   111  1.1000000000000E+00 -4.2889349666244E-01  4.4587487659188E-01
   112  1.1100000000000E+00 -4.0361375549721E-01  3.7249559822333E-01
   113  1.1200000000000E+00 -3.7734780699138E-01  3.0045571449386E-01
   114  1.1300000000000E+00 -3.5033607018483E-01  2.3015136502378E-01
   115  1.1400000000000E+00 -3.2281771487920E-01  1.6196738863068E-01
   116  1.1500000000000E+00 -2.9502863079889E-01  9.6273836085485E-02
   117  1.1600000000000E+00 -2.6719943582139E-01  3.3422574293660E-02
   118  1.1700000000000E+00 -2.3955354541798E-01 -2.6255975598890E-02
   119  1.1800000000000E+00 -2.1230532502848E-01 -8.2455924382422E-02
   120  1.1900000000000E+00 -1.8565834647709E-01 -1.3489878445916E-01
   121  1.2000000000000E+00 -1.5980376722515E-01 -1.8333608844751E-01
   122  1.2100000000000E+00 -1.3491881664850E-01 -2.2755183609704E-01
   123  1.2200000000000E+00 -1.1116497763351E-01 -2.6736614333306E-01
   124  1.2300000000000E+00 -8.8686255069589E-02 -3.0263873503225E-01
   125  1.2400000000000E+00 -6.7608093861240E-02 -3.3327047357050E-01
   126  1.2500000000000E+00 -4.8036556582608E-02 -3.5920429895125E-01
   127  1.2600000000000E+00 -3.0057717090011E-02 -3.8042574229148E-01
   128  1.2700000000000E+00 -1.3737276040711E-02 -3.9696300233871E-01
   129  1.2800000000000E+00  8.7959777926396E-04 -4.0888657801057E-01
   130  1.2900000000000E+00  1.3768198983442E-02 -4.1630845506619E-01
   131  1.3000000000000E+00  2.4923991305416E-02 -4.1938085042458E-01
   132  1.3100000000000E+00  3.4362091490372E-02 -4.1829452297587E-01
   133  1.3200000000000E+00  4.2116537952049E-02 -4.1327666502189E-01
   134  1.3300000000000E+00  4.8239353364003E-02 -4.0458839370184E-01
   135  1.3400000000000E+00  5.2799412816086E-02 -3.9252186676050E-01
   136  1.3500000000000E+00  5.5881131512694E-02 -3.7739705179054E-01
   137  1.3600000000000E+00  5.7582988181806E-02 -3.5955818254982E-01
   138  1.3700000000000E+00  5.8015902370806E-02 -3.3936994005171E-01
   139  1.3800000000000E+00  5.7301485597428E-02 -3.1721339978986E-01
   140  1.3900000000000E+00  5.5570187883522E-02 -2.9348178964915E-01
   141  1.4000000000000E+00  5.2959362501193E-02 -2.6857610572018E-01
   142  1.4100000000000E+00  4.9611272789419E-02 -2.4290063534141E-01
   143  1.4200000000000E+00  4.5671065633057E-02 -2.1685843819572E-01
   144  1.4300000000000E+00  4.1284736632560E-02 -1.9084683717982E-01
   145  1.4400000000000E+00  3.6597112119182E-02 -1.6525297101911E-01
   146  1.4500000000000E+00  3.1749869699734E-02 -1.4044945347649E-01
   147  1.4600000000000E+00  2.6879654798882E-02 -1.1679025729242E-01
   148  1.4700000000000E+00  2.2116167950431E-02 -9.4606567035289E-02
   149  1.4800000000000E+00  1.7582080098810E-02 -7.4206406067369E-02
   150  1.4900000000000E+00  1.3395089923063E-02 -5.5878724850365E-02
   151  1.5000000000000E+00  9.6520093686161E-03 -3.9860622869832E-02
   152  1.5100000000000E+00  6.4359316344496E-03 -2.6351861288638E-02
   153  1.5200000000000E+00  3.8167486121272E-03 -1.5515852991650E-02
   154  1.5300000000000E+00  1.8509835497149E-03 -7.4806880239551E-03
   155  1.5400000000000E+00  5.7330599741966E-04 -2.3064781877851E-03
   156  1.5500000000000E+00  3.8694297173676E-05 -1.5500701484367E-04
   157  1.5600000000000E+00 -6.7240454247778E-06  2.6909682179428E-05
   158  1.5700000000000E+00  1.6845645021746E-06 -6.7515296567509E-06
   159  1.58  0.  0.
   160  1.59  0.  0.
   161  1.60  0.  0.
   162  1.61  0.  0.
   163  1.62  0.  0.
   164  1.63  0.  0.
   165  1.64  0.  0.
   166  1.65  0.  0.
   167  1.66  0.  0.
   168  1.67  0.  0.
   169  1.68  0.  0.
   170  1.69  0.  0.
   171  1.70  0.  0.
   172  1.71  0.  0.
   173  1.72  0.  0.
   174  1.73  0.  0.
   175  1.74  0.  0.
   176  1.75  0.  0.
   177  1.76  0.  0.
   178  1.77  0.  0.
   179  1.78  0.  0.
   180  1.79  0.  0.
   181  1.80  0.  0.
   182  1.81  0.  0.
   183  1.82  0.  0.
   184  1.83  0.  0.
   185  1.84  0.  0.
   186  1.85  0.  0.
   187  1.86  0.  0.
   188  1.87  0.  0.
   189  1.88  0.  0.
   190  1.89  0.  0.
   191  1.90  0.  0.
   192  1.91  0.  0.
   193  1.92  0.  0.
   194  1.93  0.  0.
   195  1.94  0.  0.
   196  1.95  0.  0.
   197  1.96  0.  0.
   198  1.97  0.  0.
   199  1.98  0.  0.
   200  1.99  0.  0.
   201  2.00  0.  0.
   202  2.01  0.  0.
   203  2.02  0.  0.
   204  2.03  0.  0.
   205  2.04  0.  0.
   206  2.05  0.  0.
   207  2.06  0.  0.
   208  2.07  0.  0.
   209  2.08  0.  0.
   210  2.09  0.  0.
   211  2.10  0.  0.
   212  2.11  0.  0.
   213  2.12  0.  0.
   214  2.13  0.  0.
   215  2.14  0.  0.
   216  2.15  0.  0.
   217  2.16  0.  0.
   218  2.17  0.  0.
   219  2.18  0.  0.
   220  2.19  0.  0.
   221  2.20  0.  0.
   222  2.21  0.  0.
   223  2.22  0.  0.
   224  2.23  0.  0.
   225  2.24  0.  0.
   226  2.25  0.  0.
   227  2.26  0.  0.
   228  2.27  0.  0.
   229  2.28  0.  0.
   230  2.29  0.  0.
   231  2.30  0.  0.
   232  2.31  0.  0.
   233  2.32  0.  0.
   234  2.33  0.  0.
   235  2.34  0.  0.
   236  2.35  0.  0.
   237  2.36  0.  0.
   238  2.37  0.  0.
   239  2.38  0.  0.
   240  2.39  0.  0.
   241  2.40  0.  0.
   242  2.41  0.  0.
   243  2.42  0.  0.
   244  2.43  0.  0.
   245  2.44  0.  0.
   246  2.45  0.  0.
   247  2.46  0.  0.
   248  2.47  0.  0.
   249  2.48  0.  0.
   250  2.49  0.  0.
   251  2.50  0.  0.
   252  2.51  0.  0.
   253  2.52  0.  0.
   254  2.53  0.  0.
   255  2.54  0.  0.
   256  2.55  0.  0.
   257  2.56  0.  0.
   258  2.57  0.  0.
   259  2.58  0.  0.
   260  2.59  0.  0.
   261  2.60  0.  0.
   262  2.61  0.  0.
   263  2.62  0.  0.
   264  2.63  0.  0.
   265  2.64  0.  0.
   266  2.65  0.  0.
   267  2.66  0.  0.
   268  2.67  0.  0.
   269  2.68  0.  0.
   270  2.69  0.  0.
   271  2.70  0.  0.
   272  2.71  0.  0.
   273  2.72  0.  0.
   274  2.73  0.  0.
   275  2.74  0.  0.
   276  2.75  0.  0.
   277  2.76  0.  0.
   278  2.77  0.  0.
   279  2.78  0.  0.
   280  2.79  0.  0.
   281  2.80  0.  0.
   282  2.81  0.  0.
   283  2.82  0.  0.
   284  2.83  0.  0.
   285  2.84  0.  0.
   286  2.85  0.  0.
   287  2.86  0.  0.
   288  2.87  0.  0.
   289  2.88  0.  0.
   290  2.89  0.  0.
   291  2.90  0.  0.
   292  2.91  0.  0.
   293  2.92  0.  0.
   294  2.93  0.  0.
   295  2.94  0.  0.
   296  2.95  0.  0.
   297  2.96  0.  0.
   298  2.97  0.  0.
   299  2.98  0.  0.
   300  2.99  0.  0.
   301  3.00  0.  0.
   302  3.01  0.  0.
   303  3.02  0.  0.
   304  3.03  0.  0.
   305  3.04  0.  0.
   306  3.05  0.  0.
   307  3.06  0.  0.
   308  3.07  0.  0.
   309  3.08  0.  0.
   310  3.09  0.  0.
   311  3.10  0.  0.
   312  3.11  0.  0.
   313  3.12  0.  0.
   314  3.13  0.  0.
   315  3.14  0.  0.
   316  3.15  0.  0.
   317  3.16  0.  0.
   318  3.17  0.  0.
   319  3.18  0.  0.
   320  3.19  0.  0.
   321  3.20  0.  0.
   322  3.21  0.  0.
   323  3.22  0.  0.
   324  3.23  0.  0.
   325  3.24  0.  0.
   326  3.25  0.  0.
   327  3.26  0.  0.
   328  3.27  0.  0.
   329  3.28  0.  0.
   330  3.29  0.  0.
   331  3.30  0.  0.
   332  3.31  0.  0.
   333  3.32  0.  0.
   334  3.33  0.  0.
   335  3.34  0.  0.
   336  3.35  0.  0.
   337  3.36  0.  0.
   338  3.37  0.  0.
   339  3.38  0.  0.
   340  3.39  0.  0.
   341  3.40  0.  0.
   342  3.41  0.  0.
   343  3.42  0.  0.
   344  3.43  0.  0.
   345  3.44  0.  0.
   346  3.45  0.  0.
   347  3.46  0.  0.
   348  3.47  0.  0.
   349  3.48  0.  0.