Na    ONCVPSP-4.0.1  r_core=   1.20044   1.55258
     11.0000      9.0000      231019    zatom,zion,pspd
     8       2   1     4   400     0    pspcod,pspxc,lmax,lloc,mmax,r2well
  3.99000000  0.00000000  0.00000000    rchrg fchrg qchrg
     2     2     0     0     0    nproj
     1     1           extension_switch
   0                         2.4972019100215E+00 -6.5186311179246E-01
     1  0.0000000000000E+00 -1.0714078624297E-08 -1.2986373087998E-09
     2  1.0000000000000E-02  1.1542430121963E-01  2.2621620522291E-02
     3  2.0000000000000E-02  2.3018273126383E-01  4.5270816684255E-02
     4  3.0000000000000E-02  3.4361694510365E-01  6.7975332189082E-02
     5  4.0000000000000E-02  4.5508351428476E-01  9.0763234420859E-02
     6  5.0000000000000E-02  5.6396104874596E-01  1.1366304551432E-01
     7  6.0000000000000E-02  6.6965692273016E-01  1.3670383745663E-01
     8  7.0000000000000E-02  7.7161348573171E-01  1.5991528080259E-01
     9  8.0000000000000E-02  8.6931365013780E-01  1.8332763788328E-01
    10  9.0000000000000E-02  9.6228576018063E-01  2.0697169295308E-01
    11  1.0000000000000E-01  1.0501076617451E+00  2.3087861351434E-01
    12  1.1000000000000E-01  1.1324099091558E+00  2.5507973904004E-01
    13  1.2000000000000E-01  1.2088780629443E+00  2.7960629543532E-01
    14  1.3000000000000E-01  1.2792540513940E+00  3.0448903578869E-01
    15  1.4000000000000E-01  1.3433365879707E+00  3.2975781020870E-01
    16  1.5000000000000E-01  1.4009806561644E+00  3.5544106976911E-01
    17  1.6000000000000E-01  1.4520960923743E+00  3.8156531173903E-01
    18  1.7000000000000E-01  1.4966453158620E+00  4.0815447530236E-01
    19  1.8000000000000E-01  1.5346402720708E+00  4.3522929882126E-01
    20  1.9000000000000E-01  1.5661386714114E+00  4.6280665132484E-01
    21  2.0000000000000E-01  1.5912396195892E+00  4.9089885226375E-01
    22  2.1000000000000E-01  1.6100787474038E+00  5.1951299462689E-01
    23  2.2000000000000E-01  1.6228229574364E+00  5.4865028723806E-01
    24  2.3000000000000E-01  1.6296649119366E+00  5.7830543241436E-01
    25  2.4000000000000E-01  1.6308173903916E+00  6.0846605515921E-01
    26  2.5000000000000E-01  1.6265076466100E+00  6.3911219967418E-01
    27  2.6000000000000E-01  1.6169718936424E+00  6.7021590820648E-01
    28  2.7000000000000E-01  1.6024500405359E+00  7.0174089611293E-01
    29  2.8000000000000E-01  1.5831807978550E+00  7.3364233553482E-01
    30  2.9000000000000E-01  1.5593972592605E+00  7.6586675826788E-01
    31  3.0000000000000E-01  1.5313230544149E+00  7.9835208631089E-01
    32  3.1000000000000E-01  1.4991691543508E+00  8.3102779622790E-01
    33  3.2000000000000E-01  1.4631313944822E+00  8.6381522090705E-01
    34  3.3000000000000E-01  1.4233887630240E+00  8.9662798959891E-01
    35  3.4000000000000E-01  1.3801024840754E+00  9.2937260432272E-01
    36  3.5000000000000E-01  1.3334159054260E+00  9.6194914790097E-01
    37  3.6000000000000E-01  1.2834551816818E+00  9.9425211608146E-01
    38  3.7000000000000E-01  1.2303307240067E+00  1.0261713634930E+00
    39  3.8000000000000E-01  1.1741393690587E+00  1.0575931506158E+00
    40  3.9000000000000E-01  1.1149672019889E+00  1.0884012765911E+00
    41  4.0000000000000E-01  1.0528929520582E+00  1.1184782805940E+00
    42  4.1000000000000E-01  9.8799186487893E-01  1.1477066927119E+00
    43  4.2000000000000E-01  9.2033994284670E-01  1.1759703138350E+00
    44  4.3000000000000E-01  8.5001843526601E-01  1.2031555030263E+00
    45  4.4000000000000E-01  7.7711845224800E-01  1.2291524502198E+00
    46  4.5000000000000E-01  7.0174557183942E-01  1.2538564119141E+00
    47  4.6000000000000E-01  6.2402430816157E-01  1.2771688878061E+00
    48  4.7000000000000E-01  5.4410230965520E-01  1.2989987170342E+00
    49  4.8000000000000E-01  4.6215416084019E-01  1.3192630738798E+00
    50  4.9000000000000E-01  3.7838466823950E-01  1.3378883443802E+00
    51  5.0000000000000E-01  2.9303152115587E-01  1.3548108673162E+00
    52  5.1000000000000E-01  2.0636723063216E-01  1.3699775254184E+00
    53  5.2000000000000E-01  1.1870026492459E-01  1.3833461753375E+00
    54  5.3000000000000E-01  3.0375316867170E-02  1.3948859079051E+00
    55  5.4000000000000E-01 -5.8227342743900E-02  1.4045771334045E+00
    56  5.5000000000000E-01 -1.4669345155430E-01  1.4124114899226E+00
    57  5.6000000000000E-01 -2.3457728670010E-01  1.4183915762900E+00
    58  5.7000000000000E-01 -3.2140512395821E-01  1.4225305145703E+00
    59  5.8000000000000E-01 -4.0667958707091E-01  1.4248513504645E+00
    60  5.9000000000000E-01 -4.8988482840608E-01  1.4253863032707E+00
    61  6.0000000000000E-01 -5.7049246213729E-01  1.4241758801286E+00
    62  6.1000000000000E-01 -6.4796815252370E-01  1.4212678721014E+00
    63  6.2000000000000E-01 -7.2177874305692E-01  1.4167162521562E+00
    64  6.3000000000000E-01 -7.9139979760295E-01  1.4105799972347E+00
    65  6.4000000000000E-01 -8.5632341254198E-01  1.4029218583086E+00
    66  6.5000000000000E-01 -9.1606614959013E-01  1.3938071035589E+00
    67  6.6000000000000E-01 -9.7017693270678E-01  1.3833022605576E+00
    68  6.7000000000000E-01 -1.0182447494236E+00  1.3714738835624E+00
    69  6.8000000000000E-01 -1.0599059971827E+00  1.3583873717249E+00
    70  6.9000000000000E-01 -1.0948513188765E+00  1.3441058631860E+00
    71  7.0000000000000E-01 -1.1228317787154E+00  1.3286892286777E+00
    72  7.1000000000000E-01 -1.1436642396940E+00  1.3121931864010E+00
    73  7.2000000000000E-01 -1.1572358171313E+00  1.2946685576348E+00
    74  7.3000000000000E-01 -1.1635072987637E+00  1.2761606797914E+00
    75  7.4000000000000E-01 -1.1625154403955E+00  1.2567089905192E+00
    76  7.5000000000000E-01 -1.1543740667850E+00  1.2363467930264E+00
    77  7.6000000000000E-01 -1.1392739298823E+00  1.2151012091240E+00
    78  7.7000000000000E-01 -1.1174813002735E+00  1.1929933226329E+00
    79  7.8000000000000E-01 -1.0893352922664E+00  1.1700385118485E+00
    80  7.9000000000000E-01 -1.0552439479668E+00  1.1462469657836E+00
    81  8.0000000000000E-01 -1.0156791304392E+00  1.1216243749964E+00
    82  8.1000000000000E-01 -9.7117030010114E-01  1.0961727840395E+00
    83  8.2000000000000E-01 -9.2229727137973E-01  1.0698915890091E+00
    84  8.3000000000000E-01 -8.6968206786247E-01  1.0427786604131E+00
    85  8.4000000000000E-01 -8.1398001326478E-01  1.0148315686777E+00
    86  8.5000000000000E-01 -7.5587021209299E-01  9.8604888713422E-01
    87  8.6000000000000E-01 -6.9604558754361E-01  9.5643154533667E-01
    88  8.7000000000000E-01 -6.3520265463776E-01  9.2598420408507E-01
    89  8.8000000000000E-01 -5.7403121360135E-01  8.9471662262334E-01
    90  8.9000000000000E-01 -5.1320415188988E-01  8.6264498815181E-01
    91  9.0000000000000E-01 -4.5336754291889E-01  8.2979317806678E-01
    92  9.1000000000000E-01 -3.9513122547038E-01  7.9619392620836E-01
    93  9.2000000000000E-01 -3.3906003995237E-01  7.6188986585339E-01
    94  9.3000000000000E-01 -2.8566588631496E-01  7.2693442420909E-01
    95  9.4000000000000E-01 -2.3540075367712E-01  6.9139254571063E-01
    96  9.5000000000000E-01 -1.8865085385894E-01  6.5534122445540E-01
    97  9.6000000000000E-01 -1.4573197038220E-01  6.1886982956407E-01
    98  9.7000000000000E-01 -1.0688611149372E-01  5.8208021107661E-01
    99  9.8000000000000E-01 -7.2279530824244E-02  5.4508657809951E-01
   100  9.9000000000000E-01 -4.2002152906017E-02  5.0801514523878E-01
   101  1.0000000000000E+00 -1.6068413459796E-02  4.7100354779776E-01
   102  1.0100000000000E+00  5.5805033247151E-03  4.3420003070122E-01
   103  1.0200000000000E+00  2.3073075821954E-02  3.9776242054321E-01
   104  1.0300000000000E+00  3.6602576424840E-02  3.6185689445373E-01
   105  1.0400000000000E+00  4.6421021050798E-02  3.2665656355173E-01
   106  1.0500000000000E+00  5.2832058091940E-02  2.9233989252373E-01
   107  1.0600000000000E+00  5.6182939687378E-02  2.5908898025530E-01
   108  1.0700000000000E+00  5.6855736950558E-02  2.2708772937788E-01
   109  1.0800000000000E+00  5.5257976488671E-02  1.9651993502373E-01
   110  1.0900000000000E+00  5.1812887779177E-02  1.6756732494256E-01
   111  1.1000000000000E+00  4.6949459552902E-02  1.4040758439827E-01
   112  1.1100000000000E+00  4.1092508023647E-02  1.1521239989488E-01
   113  1.1200000000000E+00  3.4652968458316E-02  9.2145553885242E-02
   114  1.1300000000000E+00  2.8018541849475E-02  7.1361120395059E-02
   115  1.1400000000000E+00  2.1545019351970E-02  5.3001769600012E-02
   116  1.1500000000000E+00  1.5528795022897E-02  3.7201630045808E-02
   117  1.1600000000000E+00  1.0229986518971E-02  2.4076996158550E-02
   118  1.1700000000000E+00  5.8858240095516E-03  1.3722292359317E-02
   119  1.1800000000000E+00  2.6712646411345E-03  6.2185084943235E-03
   120  1.1900000000000E+00  6.9068581997934E-04  1.6178671798053E-03
   121  1.2000000000000E+00  6.2874329009652E-06  1.4983226827459E-05
   122  1.2100000000000E+00  4.4907388877344E-06  1.0608508887158E-05
   123  1.2200000000000E+00 -6.6203546629250E-07 -1.5562846049931E-06
   124  1.23  0.  0.
   125  1.24  0.  0.
   126  1.25  0.  0.
   127  1.26  0.  0.
   128  1.27  0.  0.
   129  1.28  0.  0.
   130  1.29  0.  0.
   131  1.30  0.  0.
   132  1.31  0.  0.
   133  1.32  0.  0.
   134  1.33  0.  0.
   135  1.34  0.  0.
   136  1.35  0.  0.
   137  1.36  0.  0.
   138  1.37  0.  0.
   139  1.38  0.  0.
   140  1.39  0.  0.
   141  1.40  0.  0.
   142  1.41  0.  0.
   143  1.42  0.  0.
   144  1.43  0.  0.
   145  1.44  0.  0.
   146  1.45  0.  0.
   147  1.46  0.  0.
   148  1.47  0.  0.
   149  1.48  0.  0.
   150  1.49  0.  0.
   151  1.50  0.  0.
   152  1.51  0.  0.
   153  1.52  0.  0.
   154  1.53  0.  0.
   155  1.54  0.  0.
   156  1.55  0.  0.
   157  1.56  0.  0.
   158  1.57  0.  0.
   159  1.58  0.  0.
   160  1.59  0.  0.
   161  1.60  0.  0.
   162  1.61  0.  0.
   163  1.62  0.  0.
   164  1.63  0.  0.
   165  1.64  0.  0.
   166  1.65  0.  0.
   167  1.66  0.  0.
   168  1.67  0.  0.
   169  1.68  0.  0.
   170  1.69  0.  0.
   171  1.70  0.  0.
   172  1.71  0.  0.
   173  1.72  0.  0.
   174  1.73  0.  0.
   175  1.74  0.  0.
   176  1.75  0.  0.
   177  1.76  0.  0.
   178  1.77  0.  0.
   179  1.78  0.  0.
   180  1.79  0.  0.
   181  1.80  0.  0.
   182  1.81  0.  0.
   183  1.82  0.  0.
   184  1.83  0.  0.
   185  1.84  0.  0.
   186  1.85  0.  0.
   187  1.86  0.  0.
   188  1.87  0.  0.
   189  1.88  0.  0.
   190  1.89  0.  0.
   191  1.90  0.  0.
   192  1.91  0.  0.
   193  1.92  0.  0.
   194  1.93  0.  0.
   195  1.94  0.  0.
   196  1.95  0.  0.
   197  1.96  0.  0.
   198  1.97  0.  0.
   199  1.98  0.  0.
   200  1.99  0.  0.
   201  2.00  0.  0.
   202  2.01  0.  0.
   203  2.02  0.  0.
   204  2.03  0.  0.
   205  2.04  0.  0.
   206  2.05  0.  0.
   207  2.06  0.  0.
   208  2.07  0.  0.
   209  2.08  0.  0.
   210  2.09  0.  0.
   211  2.10  0.  0.
   212  2.11  0.  0.
   213  2.12  0.  0.
   214  2.13  0.  0.
   215  2.14  0.  0.
   216  2.15  0.  0.
   217  2.16  0.  0.
   218  2.17  0.  0.
   219  2.18  0.  0.
   220  2.19  0.  0.
   221  2.20  0.  0.
   222  2.21  0.  0.
   223  2.22  0.  0.
   224  2.23  0.  0.
   225  2.24  0.  0.
   226  2.25  0.  0.
   227  2.26  0.  0.
   228  2.27  0.  0.
   229  2.28  0.  0.
   230  2.29  0.  0.
   231  2.30  0.  0.
   232  2.31  0.  0.
   233  2.32  0.  0.
   234  2.33  0.  0.
   235  2.34  0.  0.
   236  2.35  0.  0.
   237  2.36  0.  0.
   238  2.37  0.  0.
   239  2.38  0.  0.
   240  2.39  0.  0.
   241  2.40  0.  0.
   242  2.41  0.  0.
   243  2.42  0.  0.
   244  2.43  0.  0.
   245  2.44  0.  0.
   246  2.45  0.  0.
   247  2.46  0.  0.
   248  2.47  0.  0.
   249  2.48  0.  0.
   250  2.49  0.  0.
   251  2.50  0.  0.
   252  2.51  0.  0.
   253  2.52  0.  0.
   254  2.53  0.  0.
   255  2.54  0.  0.
   256  2.55  0.  0.
   257  2.56  0.  0.
   258  2.57  0.  0.
   259  2.58  0.  0.
   260  2.59  0.  0.
   261  2.60  0.  0.
   262  2.61  0.  0.
   263  2.62  0.  0.
   264  2.63  0.  0.
   265  2.64  0.  0.
   266  2.65  0.  0.
   267  2.66  0.  0.
   268  2.67  0.  0.
   269  2.68  0.  0.
   270  2.69  0.  0.
   271  2.70  0.  0.
   272  2.71  0.  0.
   273  2.72  0.  0.
   274  2.73  0.  0.
   275  2.74  0.  0.
   276  2.75  0.  0.
   277  2.76  0.  0.
   278  2.77  0.  0.
   279  2.78  0.  0.
   280  2.79  0.  0.
   281  2.80  0.  0.
   282  2.81  0.  0.
   283  2.82  0.  0.
   284  2.83  0.  0.
   285  2.84  0.  0.
   286  2.85  0.  0.
   287  2.86  0.  0.
   288  2.87  0.  0.
   289  2.88  0.  0.
   290  2.89  0.  0.
   291  2.90  0.  0.
   292  2.91  0.  0.
   293  2.92  0.  0.
   294  2.93  0.  0.
   295  2.94  0.  0.
   296  2.95  0.  0.
   297  2.96  0.  0.
   298  2.97  0.  0.
   299  2.98  0.  0.
   300  2.99  0.  0.
   301  3.00  0.  0.
   302  3.01  0.  0.
   303  3.02  0.  0.
   304  3.03  0.  0.
   305  3.04  0.  0.
   306  3.05  0.  0.
   307  3.06  0.  0.
   308  3.07  0.  0.
   309  3.08  0.  0.
   310  3.09  0.  0.
   311  3.10  0.  0.
   312  3.11  0.  0.
   313  3.12  0.  0.
   314  3.13  0.  0.
   315  3.14  0.  0.
   316  3.15  0.  0.
   317  3.16  0.  0.
   318  3.17  0.  0.
   319  3.18  0.  0.
   320  3.19  0.  0.
   321  3.20  0.  0.
   322  3.21  0.  0.
   323  3.22  0.  0.
   324  3.23  0.  0.
   325  3.24  0.  0.
   326  3.25  0.  0.
   327  3.26  0.  0.
   328  3.27  0.  0.
   329  3.28  0.  0.
   330  3.29  0.  0.
   331  3.30  0.  0.
   332  3.31  0.  0.
   333  3.32  0.  0.
   334  3.33  0.  0.
   335  3.34  0.  0.
   336  3.35  0.  0.
   337  3.36  0.  0.
   338  3.37  0.  0.
   339  3.38  0.  0.
   340  3.39  0.  0.
   341  3.40  0.  0.
   342  3.41  0.  0.
   343  3.42  0.  0.
   344  3.43  0.  0.
   345  3.44  0.  0.
   346  3.45  0.  0.
   347  3.46  0.  0.
   348  3.47  0.  0.
   349  3.48  0.  0.
   350  3.49  0.  0.
   351  3.50  0.  0.
   352  3.51  0.  0.
   353  3.52  0.  0.
   354  3.53  0.  0.
   355  3.54  0.  0.
   356  3.55  0.  0.
   357  3.56  0.  0.
   358  3.57  0.  0.
   359  3.58  0.  0.
   360  3.59  0.  0.
   361  3.60  0.  0.
   362  3.61  0.  0.
   363  3.62  0.  0.
   364  3.63  0.  0.
   365  3.64  0.  0.
   366  3.65  0.  0.
   367  3.66  0.  0.
   368  3.67  0.  0.
   369  3.68  0.  0.
   370  3.69  0.  0.
   371  3.70  0.  0.
   372  3.71  0.  0.
   373  3.72  0.  0.
   374  3.73  0.  0.
   375  3.74  0.  0.
   376  3.75  0.  0.
   377  3.76  0.  0.
   378  3.77  0.  0.
   379  3.78  0.  0.
   380  3.79  0.  0.
   381  3.80  0.  0.
   382  3.81  0.  0.
   383  3.82  0.  0.
   384  3.83  0.  0.
   385  3.84  0.  0.
   386  3.85  0.  0.
   387  3.86  0.  0.
   388  3.87  0.  0.
   389  3.88  0.  0.
   390  3.89  0.  0.
   391  3.90  0.  0.
   392  3.91  0.  0.
   393  3.92  0.  0.
   394  3.93  0.  0.
   395  3.94  0.  0.
   396  3.95  0.  0.
   397  3.96  0.  0.
   398  3.97  0.  0.
   399  3.98  0.  0.
   400  3.99  0.  0.
   1                        -6.4509754496769E+00 -2.0584128511134E+00
     1  0.0000000000000E+00  1.3567594270292E-09 -2.6661401142380E-09
     2  1.0000000000000E-02  2.0587837645528E-03 -1.0451388060586E-03
     3  2.0000000000000E-02  8.2240169224541E-03 -4.1688515460218E-03
     4  3.0000000000000E-02  1.8462421368292E-02 -9.3361481803190E-03
     5  4.0000000000000E-02  3.2718787178042E-02 -1.6489113795835E-02
     6  5.0000000000000E-02  5.0916350355465E-02 -2.5547506115268E-02
     7  6.0000000000000E-02  7.2957316449581E-02 -3.6409581645408E-02
     8  7.0000000000000E-02  9.8723524896286E-02 -4.8953140273373E-02
     9  8.0000000000000E-02  1.2807724758045E-01 -6.3036775453685E-02
    10  9.0000000000000E-02  1.6086211384112E-01 -7.8501314642121E-02
    11  1.0000000000000E-01  1.9690415296805E-01 -9.5171432359023E-02
    12  1.1000000000000E-01  2.3601294417690E-01 -1.1285741623659E-01
    13  1.2000000000000E-01  2.7798286311654E-01 -1.3135706464929E-01
    14  1.3000000000000E-01  3.2259441316612E-01 -1.5045769306778E-01
    15  1.4000000000000E-01  3.6961562913038E-01 -1.6993822513446E-01
    16  1.5000000000000E-01  4.1880354044779E-01 -1.8957134364704E-01
    17  1.6000000000000E-01  4.6990568069099E-01 -2.0912567616666E-01
    18  1.7000000000000E-01  5.2266162996617E-01 -2.2836798984308E-01
    19  1.8000000000000E-01  5.7680457680783E-01 -2.4706537027225E-01
    20  1.9000000000000E-01  6.3206288631589E-01 -2.6498735976583E-01
    21  2.0000000000000E-01  6.8816166158915E-01 -2.8190803130775E-01
    22  2.1000000000000E-01  7.4482428596660E-01 -2.9760797568614E-01
    23  2.2000000000000E-01  8.0177393418732E-01 -3.1187618079875E-01
    24  2.3000000000000E-01  8.5873504131082E-01 -3.2451178391449E-01
    25  2.4000000000000E-01  9.1543471908973E-01 -3.3532567970394E-01
    26  2.5000000000000E-01  9.7160411044293E-01 -3.4414196909717E-01
    27  2.6000000000000E-01  1.0269796737232E+00 -3.5079923645317E-01
    28  2.7000000000000E-01  1.0813043895940E+00 -3.5515164509518E-01
    29  2.8000000000000E-01  1.1343288845062E+00 -3.5706984394042E-01
    30  2.9000000000000E-01  1.1858124659821E+00 -3.5644168069203E-01
    31  3.0000000000000E-01  1.2355240661480E+00 -3.5317271982209E-01
    32  3.1000000000000E-01  1.2832430911946E+00 -3.4718656631843E-01
    33  3.2000000000000E-01  1.3287601756643E+00 -3.3842499885048E-01
    34  3.3000000000000E-01  1.3718778416498E+00 -3.2684791859308E-01
    35  3.4000000000000E-01  1.4124110641193E+00 -3.1243312239139E-01
    36  3.5000000000000E-01  1.4501877446522E+00 -2.9517591121952E-01
    37  3.6000000000000E-01  1.4850490968445E+00 -2.7508854694623E-01
    38  3.7000000000000E-01  1.5168499475294E+00 -2.5219957224265E-01
    39  3.8000000000000E-01  1.5454589587327E+00 -2.2655301002269E-01
    40  3.9000000000000E-01  1.5707587759344E+00 -1.9820746007477E-01
    41  4.0000000000000E-01  1.5926461087370E+00 -1.6723511150481E-01
    42  4.1000000000000E-01  1.6110317504311E+00 -1.3372069025267E-01
    43  4.2000000000000E-01  1.6258405432070E+00 -9.7760361259433E-02
    44  4.3000000000000E-01  1.6370112958751E+00 -5.9460604847109E-02
    45  4.4000000000000E-01  1.6444966609355E+00 -1.8937086529345E-02
    46  4.5000000000000E-01  1.6482629776826E+00  2.3686461192547E-02
    47  4.6000000000000E-01  1.6482900877402E+00  6.8279327465217E-02
    48  4.7000000000000E-01  1.6445711290163E+00  1.1470486582971E-01
    49  4.8000000000000E-01  1.6371123135439E+00  1.6282147628748E-01
    50  4.9000000000000E-01  1.6259326940505E+00  2.1248351366575E-01
    51  5.0000000000000E-01  1.6110639233919E+00  2.6354211124357E-01
    52  5.1000000000000E-01  1.5925500101992E+00  3.1584591075773E-01
    53  5.2000000000000E-01  1.5704470732500E+00  3.6924169220474E-01
    54  5.3000000000000E-01  1.5448230961955E+00  4.2357489925189E-01
    55  5.4000000000000E-01  1.5157576833720E+00  4.7869005852491E-01
    56  5.5000000000000E-01  1.4833418165232E+00  5.3443109351044E-01
    57  5.6000000000000E-01  1.4476776113678E+00  5.9064153625419E-01
    58  5.7000000000000E-01  1.4088780720935E+00  6.4716464240818E-01
    59  5.8000000000000E-01  1.3670668410512E+00  7.0384341744055E-01
    60  5.9000000000000E-01  1.3223779401899E+00  7.6052056392852E-01
    61  6.0000000000000E-01  1.2749555001202E+00  8.1703836177121E-01
    62  6.1000000000000E-01  1.2249534721432E+00  8.7323849484849E-01
    63  6.2000000000000E-01  1.1725353181444E+00  9.2896183908332E-01
    64  6.3000000000000E-01  1.1178736729338E+00  9.8404822800962E-01
    65  6.4000000000000E-01  1.0611499734378E+00  1.0383362127831E+00
    66  6.5000000000000E-01  1.0025540491029E+00  1.0916628340789E+00
    67  6.6000000000000E-01  9.4228366797864E-01  1.1438634234855E+00
    68  6.7000000000000E-01  8.8054403319959E-01  1.1947714518205E+00
    69  6.8000000000000E-01  8.1754722498309E-01  1.2442184412586E+00
    70  6.9000000000000E-01  7.5351158380500E-01  1.2920339572820E+00
    71  7.0000000000000E-01  6.8866103109618E-01  1.3380456952401E+00
    72  7.1000000000000E-01  6.2322432461432E-01  1.3820796747705E+00
    73  7.2000000000000E-01  5.5743424657780E-01  1.4239605534846E+00
    74  7.3000000000000E-01  4.9152672368615E-01  1.4635120692128E+00
    75  7.4000000000000E-01  4.2573987928138E-01  1.5005576177390E+00
    76  7.5000000000000E-01  3.6031301910924E-01  1.5349209703954E+00
    77  7.6000000000000E-01  2.9548555339887E-01  1.5664271331537E+00
    78  7.7000000000000E-01  2.3149585927493E-01  1.5949033459959E+00
    79  7.8000000000000E-01  1.6858008882601E-01  1.6201802184179E+00
    80  7.9000000000000E-01  1.0697092945390E-01  1.6420929939594E+00
    81  8.0000000000000E-01  4.6896324399578E-02  1.6604829337177E+00
    82  8.1000000000000E-01 -1.1421837441690E-02  1.6751988059363E+00
    83  8.2000000000000E-01 -6.7769052162380E-02  1.6860984660186E+00
    84  8.3000000000000E-01 -1.2193954064497E-01  1.6930505087446E+00
    85  8.4000000000000E-01 -1.7373758530320E-01  1.6959359721151E+00
    86  8.5000000000000E-01 -2.2297885075490E-01  1.6946500701601E+00
    87  8.6000000000000E-01 -2.6949167478923E-01  1.6891039302630E+00
    88  8.7000000000000E-01 -3.1311831553292E-01  1.6792263091097E+00
    89  8.8000000000000E-01 -3.5371614044829E-01  1.6649652603047E+00
    90  8.9000000000000E-01 -3.9115874271973E-01  1.6462897260289E+00
    91  9.0000000000000E-01 -4.2533697071448E-01  1.6231910248741E+00
    92  9.1000000000000E-01 -4.5615985654298E-01  1.5956842081827E+00
    93  9.2000000000000E-01 -4.8355543029481E-01  1.5638092578657E+00
    94  9.3000000000000E-01 -5.0747140728915E-01  1.5276320997622E+00
    95  9.4000000000000E-01 -5.2787573664733E-01  1.4872454081425E+00
    96  9.5000000000000E-01 -5.4475700066345E-01  1.4427691789161E+00
    97  9.6000000000000E-01 -5.5812465580526E-01  1.3943510514921E+00
    98  9.7000000000000E-01 -5.6800910770822E-01  1.3421663619947E+00
    99  9.8000000000000E-01 -5.7446161421361E-01  1.2864179136574E+00
   100  9.9000000000000E-01 -5.7755401232726E-01  1.2273354536476E+00
   101  1.0000000000000E+00 -5.7737826691697E-01  1.1651748492751E+00
   102  1.0100000000000E+00 -5.7404584099822E-01  1.1002169604550E+00
   103  1.0200000000000E+00 -5.6768688955527E-01  1.0327662093874E+00
   104  1.0300000000000E+00 -5.5844928097891E-01  9.6314885261133E-01
   105  1.0400000000000E+00 -5.4649745234259E-01  8.9171096483657E-01
   106  1.0500000000000E+00 -5.3201110685925E-01  8.1881614819446E-01
   107  1.0600000000000E+00 -5.1518376392960E-01  7.4484298470883E-01
   108  1.0700000000000E+00 -4.9622117417567E-01  6.7018225380720E-01
   109  1.0800000000000E+00 -4.7533961373166E-01  5.9523394052170E-01
   110  1.0900000000000E+00 -4.5276407379579E-01  5.2040406358690E-01
   111  1.1000000000000E+00 -4.2872636301710E-01  4.4610135589124E-01
   112  1.1100000000000E+00 -4.0346314166788E-01  3.7273383261507E-01
   113  1.1200000000000E+00 -3.7721390771447E-01  3.0070528484262E-01
   114  1.1300000000000E+00 -3.5021895582946E-01  2.3041173843224E-01
   115  1.1400000000000E+00 -3.2271733106427E-01  1.6223791941936E-01
   116  1.1500000000000E+00 -2.9494479931486E-01  9.6553768190296E-02
   117  1.1600000000000E+00 -2.6713185685030E-01  3.3711045071313E-02
   118  1.1700000000000E+00 -2.3950180102892E-01 -2.5959930187495E-02
   119  1.1800000000000E+00 -2.1226888390938E-01 -8.2153363259779E-02
   120  1.1900000000000E+00 -1.8563656984779E-01 -1.3459085365805E-01
   121  1.2000000000000E+00 -1.5979591586268E-01 -1.8302401216044E-01
   122  1.2100000000000E+00 -1.3492405897586E-01 -2.2723690655597E-01
   123  1.2200000000000E+00 -1.1118239923425E-01 -2.6704970843211E-01
   124  1.2300000000000E+00 -8.8714869578021E-02 -3.0232218374408E-01
   125  1.2400000000000E+00 -6.7646854624731E-02 -3.3295522062312E-01
   126  1.2500000000000E+00 -4.8084368900880E-02 -3.5889176908554E-01
   127  1.2600000000000E+00 -3.0113450882585E-02 -3.8011735428211E-01
   128  1.2700000000000E+00 -1.3799778788806E-02 -3.9666015296577E-01
   129  1.2800000000000E+00  8.1148797367234E-04 -4.0859062617236E-01
   130  1.2900000000000E+00  1.3695640380390E-02 -4.1602070622527E-01
   131  1.3000000000000E+00  2.4848125710072E-02 -4.1910254157723E-01
   132  1.3100000000000E+00  3.4284031792789E-02 -4.1802680833189E-01
   133  1.3200000000000E+00  4.2037356175408E-02 -4.1302060257491E-01
   134  1.3300000000000E+00  4.8160069366990E-02 -4.0434493286199E-01
   135  1.3400000000000E+00  5.2720983786851E-02 -3.9229183721012E-01
   136  1.3500000000000E+00  5.5804442382058E-02 -3.7718115371068E-01
   137  1.3600000000000E+00  5.7508843071652E-02 -3.5935697834987E-01
   138  1.3700000000000E+00  5.7945017180693E-02 -3.3918384771775E-01
   139  1.3800000000000E+00  5.7234481817942E-02 -3.1704268794844E-01
   140  1.3900000000000E+00  5.5507587709310E-02 -2.9332657442321E-01
   141  1.4000000000000E+00  5.2901585300108E-02 -2.6843634943265E-01
   142  1.4100000000000E+00  4.9558632966808E-02 -2.4277614709974E-01
   143  1.4200000000000E+00  4.5623771912398E-02 -2.1674887636791E-01
   144  1.4300000000000E+00  4.1242892755454E-02 -1.9075171374942E-01
   145  1.4400000000000E+00  3.6560718949440E-02 -1.6517165778354E-01
   146  1.4500000000000E+00  3.1718828701967E-02 -1.4038119003555E-01
   147  1.4600000000000E+00  2.6853772805939E-02 -1.1673416069674E-01
   148  1.4700000000000E+00  2.2095163292033E-02 -9.4561643194102E-02
   149  1.4800000000000E+00  1.7565588017870E-02 -7.4171559950167E-02
   150  1.4900000000000E+00  1.3382665118845E-02 -5.5852766479599E-02
   151  1.5000000000000E+00  9.6431461251382E-03 -3.9842298214393E-02
   152  1.5100000000000E+00  6.4300746350134E-03 -2.6339869546117E-02
   153  1.5200000000000E+00  3.8133026657160E-03 -1.5508862157323E-02
   154  1.5300000000000E+00  1.8493233220961E-03 -7.4773499914242E-03
   155  1.5400000000000E+00  5.7279316912732E-04 -2.3054579772841E-03
   156  1.5500000000000E+00  3.8656979490129E-05 -1.5493807924778E-04
   157  1.5600000000000E+00 -6.7186337605117E-06  2.6898153850844E-05
   158  1.5700000000000E+00  1.6831722951243E-06 -6.7486109236162E-06
   159  1.58 -0.  0.
   160  1.59 -0.  0.
   161  1.60  0.  0.
   162  1.61  0.  0.
   163  1.62  0.  0.
   164  1.63  0.  0.
   165  1.64  0.  0.
   166  1.65  0.  0.
   167  1.66  0.  0.
   168  1.67  0.  0.
   169  1.68  0.  0.
   170  1.69  0.  0.
   171  1.70  0.  0.
   172  1.71  0.  0.
   173  1.72  0.  0.
   174  1.73  0.  0.
   175  1.74  0.  0.
   176  1.75  0.  0.
   177  1.76  0.  0.
   178  1.77  0.  0.
   179  1.78  0.  0.
   180  1.79  0.  0.
   181  1.80  0.  0.
   182  1.81  0.  0.
   183  1.82  0.  0.
   184  1.83  0.  0.
   185  1.84  0.  0.
   186  1.85  0.  0.
   187  1.86  0.  0.
   188  1.87  0.  0.
   189  1.88  0.  0.
   190  1.89  0.  0.
   191  1.90  0.  0.
   192  1.91  0.  0.
   193  1.92  0.  0.
   194  1.93  0.  0.
   195  1.94  0.  0.
   196  1.95  0.  0.
   197  1.96  0.  0.
   198  1.97  0.  0.
   199  1.98  0.  0.
   200  1.99  0.  0.
   201  2.00  0.  0.
   202  2.01  0.  0.
   203  2.02  0.  0.
   204  2.03  0.  0.
   205  2.04  0.  0.
   206  2.05  0.  0.
   207  2.06  0.  0.
   208  2.07  0.  0.
   209  2.08  0.  0.
   210  2.09  0.  0.
   211  2.10  0.  0.
   212  2.11  0.  0.
   213  2.12  0.  0.
   214  2.13  0.  0.
   215  2.14  0.  0.
   216  2.15  0.  0.
   217  2.16  0.  0.
   218  2.17  0.  0.
   219  2.18  0.  0.
   220  2.19  0.  0.
   221  2.20  0.  0.
   222  2.21  0.  0.
   223  2.22  0.  0.
   224  2.23  0.  0.
   225  2.24  0.  0.
   226  2.25  0.  0.
   227  2.26  0.  0.
   228  2.27  0.  0.
   229  2.28  0.  0.
   230  2.29  0.  0.
   231  2.30  0.  0.
   232  2.31  0.  0.
   233  2.32  0.  0.
   234  2.33  0.  0.
   235  2.34  0.  0.
   236  2.35  0.  0.
   237  2.36  0.  0.
   238  2.37  0.  0.
   239  2.38  0.  0.
   240  2.39  0.  0.
   241  2.40  0.  0.
   242  2.41  0.  0.
   243  2.42  0.  0.
   244  2.43  0.  0.
   245  2.44  0.  0.
   246  2.45  0.  0.
   247  2.46  0.  0.
   248  2.47  0.  0.
   249  2.48  0.  0.
   250  2.49  0.  0.
   251  2.50  0.  0.
   252  2.51  0.  0.
   253  2.52  0.  0.
   254  2.53  0.  0.
   255  2.54  0.  0.
   256  2.55  0.  0.
   257  2.56  0.  0.
   258  2.57  0.  0.
   259  2.58  0.  0.
   260  2.59  0.  0.
   261  2.60  0.  0.
   262  2.61  0.  0.
   263  2.62  0.  0.
   264  2.63  0.  0.
   265  2.64  0.  0.
   266  2.65  0.  0.
   267  2.66  0.  0.
   268  2.67  0.  0.
   269  2.68  0.  0.
   270  2.69  0.  0.
   271  2.70  0.  0.
   272  2.71  0.  0.
   273  2.72  0.  0.
   274  2.73  0.  0.
   275  2.74  0.  0.
   276  2.75  0.  0.
   277  2.76  0.  0.
   278  2.77  0.  0.
   279  2.78  0.  0.
   280  2.79  0.  0.
   281  2.80  0.  0.
   282  2.81  0.  0.
   283  2.82  0.  0.
   284  2.83  0.  0.
   285  2.84  0.  0.
   286  2.85  0.  0.
   287  2.86  0.  0.
   288  2.87  0.  0.
   289  2.88  0.  0.
   290  2.89  0.  0.
   291  2.90  0.  0.
   292  2.91  0.  0.
   293  2.92  0.  0.
   294  2.93  0.  0.
   295  2.94  0.  0.
   296  2.95  0.  0.
   297  2.96  0.  0.
   298  2.97  0.  0.
   299  2.98  0.  0.
   300  2.99  0.  0.
   301  3.00  0.  0.
   302  3.01  0.  0.
   303  3.02  0.  0.
   304  3.03  0.  0.
   305  3.04  0.  0.
   306  3.05  0.  0.
   307  3.06  0.  0.
   308  3.07  0.  0.
   309  3.08  0.  0.
   310  3.09  0.  0.
   311  3.10  0.  0.
   312  3.11  0.  0.
   313  3.12  0.  0.
   314  3.13  0.  0.
   315  3.14  0.  0.
   316  3.15  0.  0.
   317  3.16  0.  0.
   318  3.17  0.  0.
   319  3.18  0.  0.
   320  3.19  0.  0.
   321  3.20  0.  0.
   322  3.21  0.  0.
   323  3.22  0.  0.
   324  3.23  0.  0.
   325  3.24  0.  0.
   326  3.25  0.  0.
   327  3.26  0.  0.
   328  3.27  0.  0.
   329  3.28  0.  0.
   330  3.29  0.  0.
   331  3.30  0.  0.
   332  3.31  0.  0.
   333  3.32  0.  0.
   334  3.33  0.  0.
   335  3.34  0.  0.
   336  3.35  0.  0.
   337  3.36  0.  0.
   338  3.37  0.  0.
   339  3.38  0.  0.
   340  3.39  0.  0.
   341  3.40  0.  0.
   342  3.41  0.  0.
   343  3.42  0.  0.
   344  3.43  0.  0.
   345  3.44  0.  0.
   346  3.45  0.  0.
   347  3.46  0.  0.
   348  3.47  0.  0.
   349  3.48  0.  0.
   350  3.49  0.  0.
   351  3.50  0.  0.