Na    ONCVPSP-4.0.1  r_core=   1.20044   1.55258
     11.0000      9.0000      250217    zatom,zion,pspd
     8       2   1     4   400     0    pspcod,pspxc,lmax,lloc,mmax,r2well
  3.99000000  0.00000000  0.00000000    rchrg fchrg qchrg
     2     2     0     0    nproj
     3     1           extension_switch
     3     0     0    nprojso
   0                         2.4974668490792E+00 -6.5167448180254E-01
     1  0.0000000000000E+00 -1.0712482123587E-08 -1.3005732879545E-09
     2  1.0000000000000E-02  1.1542306784202E-01  2.2617779508376E-02
     3  2.0000000000000E-02  2.3018031629749E-01  4.5263109752065E-02
     4  3.0000000000000E-02  3.4361345114165E-01  6.7963710439107E-02
     5  4.0000000000000E-02  4.5507909277531E-01  9.0747626754735E-02
     6  5.0000000000000E-02  5.6395589711929E-01  1.1364336127447E-01
     7  6.0000000000000E-02  6.6965128066050E-01  1.3667996984488E-01
     8  7.0000000000000E-02  7.7160763061148E-01  1.5988711099426E-01
     9  8.0000000000000E-02  8.6930789185722E-01  1.8329503973591E-01
    10  9.0000000000000E-02  9.6228043532018E-01  2.0693453819414E-01
    11  1.0000000000000E-01  1.0501031272999E+00  2.3083677727984E-01
    12  1.1000000000000E-01  1.1324065359207E+00  2.5503310562660E-01
    13  1.2000000000000E-01  1.2088762286949E+00  2.7955476412215E-01
    14  1.3000000000000E-01  1.2792541340024E+00  3.0443252658284E-01
    15  1.4000000000000E-01  1.3433389585961E+00  3.2969626936760E-01
    16  1.5000000000000E-01  1.4009856726554E+00  3.5537447495814E-01
    17  1.6000000000000E-01  1.4521040930164E+00  3.8149367668913E-01
    18  1.7000000000000E-01  1.4966566135939E+00  4.0807785384301E-01
    19  1.8000000000000E-01  1.5346551492842E+00  4.3514778817756E-01
    20  1.9000000000000E-01  1.5661573754352E+00  4.6272039458327E-01
    21  2.0000000000000E-01  1.5912623589432E+00  4.9080803992957E-01
    22  2.1000000000000E-01  1.6101056888923E+00  5.1941786521647E-01
    23  2.2000000000000E-01  1.6228542241309E+00  5.4855112687108E-01
    24  2.3000000000000E-01  1.6297005820796E+00  5.7820257339342E-01
    25  2.4000000000000E-01  1.6308574972323E+00  6.0835987354793E-01
    26  2.5000000000000E-01  1.6265521791624E+00  6.3900311190780E-01
    27  2.6000000000000E-01  1.6170207983369E+00  6.7010436679175E-01
    28  2.7000000000000E-01  1.6025032237155E+00  7.0162738449577E-01
    29  2.8000000000000E-01  1.5832381290490E+00  7.3352736223415E-01
    30  2.9000000000000E-01  1.5594585751511E+00  7.6575085039210E-01
    31  3.0000000000000E-01  1.5313881634002E+00  7.9823578258926E-01
    32  3.1000000000000E-01  1.4992378415896E+00  8.3091163970157E-01
    33  3.2000000000000E-01  1.4632034273003E+00  8.6369975143450E-01
    34  3.3000000000000E-01  1.4234638965526E+00  8.9651373633663E-01
    35  3.4000000000000E-01  1.3801804669856E+00  9.2926007834472E-01
    36  3.5000000000000E-01  1.3334964856249E+00  9.6183883512005E-01
    37  3.6000000000000E-01  1.2835381118338E+00  9.9414447063032E-01
    38  3.7000000000000E-01  1.2304157667503E+00  1.0260668017152E+00
    39  3.8000000000000E-01  1.1742263017938E+00  1.0574920458052E+00
    40  3.9000000000000E-01  1.1150558211224E+00  1.0883039546029E+00
    41  4.0000000000000E-01  1.0529830766049E+00  1.1183850164336E+00
    42  4.1000000000000E-01  9.8808333933283E-01  1.1476177081868E+00
    43  4.2000000000000E-01  9.2043263925183E-01  1.1758857763314E+00
    44  4.3000000000000E-01  8.5011225443612E-01  1.2030755254504E+00
    45  4.4000000000000E-01  7.7721332410338E-01  1.2290770921152E+00
    46  4.5000000000000E-01  7.0184145484973E-01  1.2537856817428E+00
    47  4.6000000000000E-01  6.2412118790442E-01  1.2771027463530E+00
    48  4.7000000000000E-01  5.4420019652108E-01  1.2989370818701E+00
    49  4.8000000000000E-01  4.6225308693446E-01  1.3192058247931E+00
    50  4.9000000000000E-01  3.7848468355157E-01  1.3378353296630E+00
    51  5.0000000000000E-01  2.9313268908334E-01  1.3547619107727E+00
    52  5.1000000000000E-01  2.0646962296386E-01  1.3699324339416E+00
    53  5.2000000000000E-01  1.1880395640036E-01  1.3833047468874E+00
    54  5.3000000000000E-01  3.0480379443266E-02  1.3948479397089E+00
    55  5.4000000000000E-01 -5.8120845785878E-02  1.4045424301914E+00
    56  5.5000000000000E-01 -1.4658547151184E-01  1.4123798720020E+00
    57  5.6000000000000E-01 -2.3446779522174E-01  1.4183628872806E+00
    58  5.7000000000000E-01 -3.2129411853808E-01  1.4225046285943E+00
    59  5.8000000000000E-01 -4.0656709612472E-01  1.4248281786267E+00
    60  5.9000000000000E-01 -4.8977091579475E-01  1.4253657992569E+00
    61  6.0000000000000E-01 -5.7037723101416E-01  1.4241580447723E+00
    62  6.1000000000000E-01 -6.4785174839495E-01  1.4212527567888E+00
    63  6.2000000000000E-01 -7.2166135595975E-01  1.4167039609618E+00
    64  6.3000000000000E-01 -7.9128166332423E-01  1.4105706877049E+00
    65  6.4000000000000E-01 -8.5620481282020E-01  1.4029157408404E+00
    66  6.5000000000000E-01 -9.1594741126423E-01  1.3938044393476E+00
    67  6.6000000000000E-01 -9.7005842579839E-01  1.3833033581216E+00
    68  6.7000000000000E-01 -1.0181268841619E+00  1.3714790938798E+00
    69  6.8000000000000E-01 -1.0597892200042E+00  1.3583970820522E+00
    70  6.9000000000000E-01 -1.0947361074555E+00  1.3441204896553E+00
    71  7.0000000000000E-01 -1.1227186361015E+00  1.3287092077990E+00
    72  7.1000000000000E-01 -1.1435536876550E+00  1.3122189656232E+00
    73  7.2000000000000E-01 -1.1571283888174E+00  1.2947005851407E+00
    74  7.3000000000000E-01 -1.1634035308267E+00  1.2761993937242E+00
    75  7.4000000000000E-01 -1.1624158647089E+00  1.2567548078534E+00
    76  7.5000000000000E-01 -1.1542792019248E+00  1.2364000983093E+00
    77  7.6000000000000E-01 -1.1391842725323E+00  1.2151623433219E+00
    78  7.7000000000000E-01 -1.1173973167275E+00  1.1930625723191E+00
    79  7.8000000000000E-01 -1.0892574101980E+00  1.1701160989694E+00
    80  7.9000000000000E-01 -1.0551725486360E+00  1.1463330382326E+00
    81  8.0000000000000E-01 -1.0156145414983E+00  1.1217189982141E+00
    82  8.1000000000000E-01 -9.7111278915445E-01  1.0962759338429E+00
    83  8.2000000000000E-01 -9.2224704043665E-01  1.0700031458331E+00
    84  8.3000000000000E-01 -8.6963924880922E-01  1.0428984051223E+00
    85  8.4000000000000E-01 -8.1394466446081E-01  1.0149591800793E+00
    86  8.5000000000000E-01 -7.5584231617716E-01  9.8618394129238E-01
    87  8.6000000000000E-01 -6.9602505051214E-01  9.5657351675321E-01
    88  8.7000000000000E-01 -6.3518930623160E-01  9.2613246877919E-01
    89  8.8000000000000E-01 -5.7402480901486E-01  8.9487046310369E-01
    90  8.9000000000000E-01 -5.1320437478668E-01  8.6280360023876E-01
    91  9.0000000000000E-01 -4.5337400971463E-01  8.2995567948545E-01
    92  9.1000000000000E-01 -3.9514349081679E-01  7.9635936683747E-01
    93  9.2000000000000E-01 -3.3907760333226E-01  7.6205723948071E-01
    94  9.3000000000000E-01 -2.8568819963525E-01  7.2710268161299E-01
    95  9.4000000000000E-01 -2.3542722972599E-01  6.9156060885840E-01
    96  9.5000000000000E-01 -1.8868087547515E-01  6.5550800158447E-01
    97  9.6000000000000E-01 -1.4576490016914E-01  6.1903423089148E-01
    98  9.7000000000000E-01 -1.0692130189868E-01  5.8224116486632E-01
    99  9.8000000000000E-01 -7.2316334394924E-02  5.4524304680619E-01
   100  9.9000000000000E-01 -4.2039932531459E-02  5.0816614144122E-01
   101  1.0000000000000E+00 -1.6106552401759E-02  4.7114814963501E-01
   102  1.0100000000000E+00  5.5425918007247E-03  4.3433739653008E-01
   103  1.0200000000000E+00  2.3035939400218E-02  3.9789180254667E-01
   104  1.0300000000000E+00  3.6566715451080E-02  3.6197765094622E-01
   105  1.0400000000000E+00  4.6386881161429E-02  3.2676816974868E-01
   106  1.0500000000000E+00  5.2800023902959E-02  2.9244194956870E-01
   107  1.0600000000000E+00  5.6153329664546E-02  2.5918122232855E-01
   108  1.0700000000000E+00  5.6828799559501E-02  2.2717002874416E-01
   109  1.0800000000000E+00  5.5233887698446E-02  1.9659230491410E-01
   110  1.0900000000000E+00  5.1791749966088E-02  1.6762992020463E-01
   111  1.1000000000000E+00  4.6931301823359E-02  1.4046069989005E-01
   112  1.1100000000000E+00  4.1077287946633E-02  1.1525646663962E-01
   113  1.1200000000000E+00  3.4640575168013E-02  9.2181133046827E-02
   114  1.1300000000000E+00  2.8008800462251E-02  7.1388895171091E-02
   115  1.1400000000000E+00  2.1537696594449E-02  5.3022535178091E-02
   116  1.1500000000000E+00  1.5523609119745E-02  3.7216280691178E-02
   117  1.1600000000000E+00  1.0226613056612E-02  2.4086512166826E-02
   118  1.1700000000000E+00  5.8838996449733E-03  1.3727727144222E-02
   119  1.1800000000000E+00  2.6703970954000E-03  6.2209731232277E-03
   120  1.1900000000000E+00  6.9046589241810E-04  1.6185085580256E-03
   121  1.2000000000000E+00  6.2920605052415E-06  1.4990327785890E-05
   122  1.2100000000000E+00  4.4886199304564E-06  1.0612585999783E-05
   123  1.2200000000000E+00 -6.6170737561305E-07 -1.5568803453914E-06
   124  1.23  0.  0.
   125  1.24  0.  0.
   126  1.25  0.  0.
   127  1.26  0.  0.
   128  1.27  0.  0.
   129  1.28  0.  0.
   130  1.29  0.  0.
   131  1.30  0.  0.
   132  1.31  0.  0.
   133  1.32  0.  0.
   134  1.33  0.  0.
   135  1.34  0.  0.
   136  1.35  0.  0.
   137  1.36  0.  0.
   138  1.37  0.  0.
   139  1.38  0.  0.
   140  1.39  0.  0.
   141  1.40  0.  0.
   142  1.41  0.  0.
   143  1.42  0.  0.
   144  1.43  0.  0.
   145  1.44  0.  0.
   146  1.45  0.  0.
   147  1.46  0.  0.
   148  1.47  0.  0.
   149  1.48  0.  0.
   150  1.49  0.  0.
   151  1.50  0.  0.
   152  1.51  0.  0.
   153  1.52  0.  0.
   154  1.53  0.  0.
   155  1.54  0.  0.
   156  1.55  0.  0.
   157  1.56  0.  0.
   158  1.57  0.  0.
   159  1.58  0.  0.
   160  1.59  0.  0.
   161  1.60  0.  0.
   162  1.61  0.  0.
   163  1.62  0.  0.
   164  1.63  0.  0.
   165  1.64  0.  0.
   166  1.65  0.  0.
   167  1.66  0.  0.
   168  1.67  0.  0.
   169  1.68  0.  0.
   170  1.69  0.  0.
   171  1.70  0.  0.
   172  1.71  0.  0.
   173  1.72  0.  0.
   174  1.73  0.  0.
   175  1.74  0.  0.
   176  1.75  0.  0.
   177  1.76  0.  0.
   178  1.77  0.  0.
   179  1.78  0.  0.
   180  1.79  0.  0.
   181  1.80  0.  0.
   182  1.81  0.  0.
   183  1.82  0.  0.
   184  1.83  0.  0.
   185  1.84  0.  0.
   186  1.85  0.  0.
   187  1.86  0.  0.
   188  1.87  0.  0.
   189  1.88  0.  0.
   190  1.89  0.  0.
   191  1.90  0.  0.
   192  1.91  0.  0.
   193  1.92  0.  0.
   194  1.93  0.  0.
   195  1.94  0.  0.
   196  1.95  0.  0.
   197  1.96  0.  0.
   198  1.97  0.  0.
   199  1.98  0.  0.
   200  1.99  0.  0.
   201  2.00  0.  0.
   202  2.01  0.  0.
   203  2.02  0.  0.
   204  2.03  0.  0.
   205  2.04  0.  0.
   206  2.05  0.  0.
   207  2.06  0.  0.
   208  2.07  0.  0.
   209  2.08  0.  0.
   210  2.09  0.  0.
   211  2.10  0.  0.
   212  2.11  0.  0.
   213  2.12  0.  0.
   214  2.13  0.  0.
   215  2.14  0.  0.
   216  2.15  0.  0.
   217  2.16  0.  0.
   218  2.17  0.  0.
   219  2.18  0.  0.
   220  2.19  0.  0.
   221  2.20  0.  0.
   222  2.21  0.  0.
   223  2.22  0.  0.
   224  2.23  0.  0.
   225  2.24  0.  0.
   226  2.25  0.  0.
   227  2.26  0.  0.
   228  2.27  0.  0.
   229  2.28  0.  0.
   230  2.29  0.  0.
   231  2.30  0.  0.
   232  2.31  0.  0.
   233  2.32  0.  0.
   234  2.33  0.  0.
   235  2.34  0.  0.
   236  2.35  0.  0.
   237  2.36  0.  0.
   238  2.37  0.  0.
   239  2.38  0.  0.
   240  2.39  0.  0.
   241  2.40  0.  0.
   242  2.41  0.  0.
   243  2.42  0.  0.
   244  2.43  0.  0.
   245  2.44  0.  0.
   246  2.45  0.  0.
   247  2.46  0.  0.
   248  2.47  0.  0.
   249  2.48  0.  0.
   250  2.49  0.  0.
   251  2.50  0.  0.
   252  2.51  0.  0.
   253  2.52  0.  0.
   254  2.53  0.  0.
   255  2.54  0.  0.
   256  2.55  0.  0.
   257  2.56  0.  0.
   258  2.57  0.  0.
   259  2.58  0.  0.
   260  2.59  0.  0.
   261  2.60  0.  0.
   262  2.61  0.  0.
   263  2.62  0.  0.
   264  2.63  0.  0.
   265  2.64  0.  0.
   266  2.65  0.  0.
   267  2.66  0.  0.
   268  2.67  0.  0.
   269  2.68  0.  0.
   270  2.69  0.  0.
   271  2.70  0.  0.
   272  2.71  0.  0.
   273  2.72  0.  0.
   274  2.73  0.  0.
   275  2.74  0.  0.
   276  2.75  0.  0.
   277  2.76  0.  0.
   278  2.77  0.  0.
   279  2.78  0.  0.
   280  2.79  0.  0.
   281  2.80  0.  0.
   282  2.81  0.  0.
   283  2.82  0.  0.
   284  2.83  0.  0.
   285  2.84  0.  0.
   286  2.85  0.  0.
   287  2.86  0.  0.
   288  2.87  0.  0.
   289  2.88  0.  0.
   290  2.89  0.  0.
   291  2.90  0.  0.
   292  2.91  0.  0.
   293  2.92  0.  0.
   294  2.93  0.  0.
   295  2.94  0.  0.
   296  2.95  0.  0.
   297  2.96  0.  0.
   298  2.97  0.  0.
   299  2.98  0.  0.
   300  2.99  0.  0.
   301  3.00  0.  0.
   302  3.01  0.  0.
   303  3.02  0.  0.
   304  3.03  0.  0.
   305  3.04  0.  0.
   306  3.05  0.  0.
   307  3.06  0.  0.
   308  3.07  0.  0.
   309  3.08  0.  0.
   310  3.09  0.  0.
   311  3.10  0.  0.
   312  3.11  0.  0.
   313  3.12  0.  0.
   314  3.13  0.  0.
   315  3.14  0.  0.
   316  3.15  0.  0.
   317  3.16  0.  0.
   318  3.17  0.  0.
   319  3.18  0.  0.
   320  3.19  0.  0.
   321  3.20  0.  0.
   322  3.21  0.  0.
   323  3.22  0.  0.
   324  3.23  0.  0.
   325  3.24  0.  0.
   326  3.25  0.  0.
   327  3.26  0.  0.
   328  3.27  0.  0.
   329  3.28  0.  0.
   330  3.29  0.  0.
   331  3.30  0.  0.
   332  3.31  0.  0.
   333  3.32  0.  0.
   334  3.33  0.  0.
   335  3.34  0.  0.
   336  3.35  0.  0.
   337  3.36  0.  0.
   338  3.37  0.  0.
   339  3.38  0.  0.
   340  3.39  0.  0.
   341  3.40  0.  0.
   342  3.41  0.  0.
   343  3.42  0.  0.
   344  3.43  0.  0.
   345  3.44  0.  0.
   346  3.45  0.  0.
   347  3.46  0.  0.
   348  3.47  0.  0.
   349  3.48  0.  0.
   350  3.49  0.  0.
   351  3.50  0.  0.
   352  3.51  0.  0.
   353  3.52  0.  0.
   354  3.53  0.  0.
   355  3.54  0.  0.
   356  3.55  0.  0.
   357  3.56  0.  0.
   358  3.57  0.  0.
   359  3.58  0.  0.
   360  3.59  0.  0.
   361  3.60  0.  0.
   362  3.61  0.  0.
   363  3.62  0.  0.
   364  3.63  0.  0.
   365  3.64  0.  0.
   366  3.65  0.  0.
   367  3.66  0.  0.
   368  3.67  0.  0.
   369  3.68  0.  0.
   370  3.69  0.  0.
   371  3.70  0.  0.
   372  3.71  0.  0.
   373  3.72  0.  0.
   374  3.73  0.  0.
   375  3.74  0.  0.
   376  3.75  0.  0.
   377  3.76  0.  0.
   378  3.77  0.  0.
   379  3.78  0.  0.
   380  3.79  0.  0.
   381  3.80  0.  0.
   382  3.81  0.  0.
   383  3.82  0.  0.
   384  3.83  0.  0.
   385  3.84  0.  0.
   386  3.85  0.  0.
   387  3.86  0.  0.
   388  3.87  0.  0.
   389  3.88  0.  0.
   390  3.89  0.  0.
   391  3.90  0.  0.
   392  3.91  0.  0.
   393  3.92  0.  0.
   394  3.93  0.  0.
   395  3.94  0.  0.
   396  3.95  0.  0.
   397  3.96  0.  0.
   398  3.97  0.  0.
   399  3.98  0.  0.
   400  3.99  0.  0.
   1                        -6.4507743775013E+00 -2.0583421227646E+00
     1  0.0000000000000E+00  1.3569146084524E-09 -2.6662071023198E-09
     2  1.0000000000000E-02  2.0588120099748E-03 -1.0450766541902E-03
     3  2.0000000000000E-02  8.2241294933410E-03 -4.1686031031631E-03
     4  3.0000000000000E-02  1.8462673118066E-02 -9.3355898037227E-03
     5  4.0000000000000E-02  3.2719230934957E-02 -1.6488122678399E-02
     6  5.0000000000000E-02  5.0917036152538E-02 -2.5545960637069E-02
     7  6.0000000000000E-02  7.2958290793784E-02 -3.6407361741938E-02
     8  7.0000000000000E-02  9.8724830087182E-02 -4.8950127824375E-02
     9  8.0000000000000E-02  1.2807892108766E-01 -6.3032854695905E-02
    10  9.0000000000000E-02  1.6086418774917E-01 -7.8496372608569E-02
    11  1.0000000000000E-01  1.9690665349600E-01 -9.5165359346486E-02
    12  1.1000000000000E-01  2.3601589127915E-01 -1.1285010630227E-01
    13  1.2000000000000E-01  2.7798627016986E-01 -1.3134841613642E-01
    14  1.3000000000000E-01  3.2259828674662E-01 -1.5044760915910E-01
    15  1.4000000000000E-01  3.6961996888283E-01 -1.6992661443132E-01
    16  1.5000000000000E-01  4.1880833904824E-01 -1.8955812077090E-01
    17  1.6000000000000E-01  4.6991092390225E-01 -2.0911076237863E-01
    18  1.7000000000000E-01  5.2266729678416E-01 -2.2835131367619E-01
    19  1.8000000000000E-01  5.7681063969564E-01 -2.4704686817026E-01
    20  1.9000000000000E-01  6.3206931152095E-01 -2.6496697672117E-01
    21  2.0000000000000E-01  6.8816840953756E-01 -2.8188572149085E-01
    22  2.1000000000000E-01  7.4483131172771E-01 -2.9758370305736E-01
    23  2.2000000000000E-01  8.0178118800048E-01 -3.1184991969371E-01
    24  2.3000000000000E-01  8.5874246916530E-01 -3.2448351959321E-01
    25  2.4000000000000E-01  9.1544226334815E-01 -3.3529540885381E-01
    26  2.5000000000000E-01  9.7161171049777E-01 -3.4410970027988E-01
    27  2.6000000000000E-01  1.0269872666757E+00 -3.5076499048556E-01
    28  2.7000000000000E-01  1.0813119109444E+00 -3.5511545535437E-01
    29  2.8000000000000E-01  1.1343362688442E+00 -3.5703175658416E-01
    30  2.9000000000000E-01  1.1858196476663E+00 -3.5640175478530E-01
    31  3.0000000000000E-01  1.2355309799641E+00 -3.5313102736252E-01
    32  3.1000000000000E-01  1.2832496729815E+00 -3.4714319215328E-01
    33  3.2000000000000E-01  1.3287663628988E+00 -3.3838004047968E-01
    34  3.3000000000000E-01  1.3718835739809E+00 -3.2680148585366E-01
    35  3.4000000000000E-01  1.4124162838447E+00 -3.1238533702017E-01
    36  3.5000000000000E-01  1.4501923971292E+00 -2.9512690629247E-01
    37  3.6000000000000E-01  1.4850531308304E+00 -2.7503846619441E-01
    38  3.7000000000000E-01  1.5168533154470E+00 -2.5214856924634E-01
    39  3.8000000000000E-01  1.5454616168578E+00 -2.2650124728701E-01
    40  3.9000000000000E-01  1.5707606845039E+00 -1.9815510799187E-01
    41  4.0000000000000E-01  1.5926472319771E+00 -1.6718234720930E-01
    42  4.1000000000000E-01  1.6110320565078E+00 -1.3366769637891E-01
    43  4.2000000000000E-01  1.6258400041013E+00 -9.7707324610592E-02
    44  4.3000000000000E-01  1.6370098871866E+00 -5.9407714987835E-02
    45  4.4000000000000E-01  1.6444943616215E+00 -1.8884534314933E-02
    46  4.5000000000000E-01  1.6482597697385E+00  2.3738485135870E-02
    47  4.6000000000000E-01  1.6482859558292E+00  6.8330634293501E-02
    48  4.7000000000000E-01  1.6445660600583E+00  1.1475527005134E-01
    49  4.8000000000000E-01  1.6371062962727E+00  1.6287079733284E-01
    50  4.9000000000000E-01  1.6259257185508E+00  2.1253157743862E-01
    51  5.0000000000000E-01  1.6110559806263E+00  2.6358875163603E-01
    52  5.1000000000000E-01  1.5925410915381E+00  3.1589097111034E-01
    53  5.2000000000000E-01  1.5704371700149E+00  3.6928502669388E-01
    54  5.3000000000000E-01  1.5448121992277E+00  4.2361637418649E-01
    55  5.4000000000000E-01  1.5157457826383E+00  4.7872955353570E-01
    56  5.5000000000000E-01  1.4833289007694E+00  5.3446850261542E-01
    57  5.6000000000000E-01  1.4476636678303E+00  5.9067676878559E-01
    58  5.7000000000000E-01  1.4088630862776E+00  6.4719762378720E-01
    59  5.8000000000000E-01  1.3670507965856E+00  7.0387408978814E-01
    60  5.9000000000000E-01  1.3223608187633E+00  7.6054888650195E-01
    61  6.0000000000000E-01  1.2749372815067E+00  8.1706431121844E-01
    62  6.1000000000000E-01  1.2249341343197E+00  8.7326206527442E-01
    63  6.2000000000000E-01  1.1725148375032E+00  9.2898304192426E-01
    64  6.3000000000000E-01  1.1178520245912E+00  9.8406709171474E-01
    65  6.4000000000000E-01  1.0611271316370E+00  1.0383527823041E+00
    66  6.5000000000000E-01  1.0025299877098E+00  1.0916771701717E+00
    67  6.6000000000000E-01  9.4225836106513E-01  1.1438756018297E+00
    68  6.7000000000000E-01  8.8051745570767E-01  1.1947815619661E+00
    69  6.8000000000000E-01  8.1751935346295E-01  1.2442265854106E+00
    70  6.9000000000000E-01  7.5348239721646E-01  1.2920402489359E+00
    71  7.0000000000000E-01  6.8863051166268E-01  1.3380502576845E+00
    72  7.1000000000000E-01  6.2319245871685E-01  1.3820826394739E+00
    73  7.2000000000000E-01  5.5740102567497E-01  1.4239620583859E+00
    74  7.3000000000000E-01  4.9149214524552E-01  1.4635122569360E+00
    75  7.4000000000000E-01  4.2570394770658E-01  1.5005566337549E+00
    76  7.5000000000000E-01  3.6027574664647E-01  1.5349189611529E+00
    77  7.6000000000000E-01  2.9544696100624E-01  1.5664242442047E+00
    78  7.7000000000000E-01  2.3145597743811E-01  1.5948997201382E+00
    79  7.8000000000000E-01  1.6853895830337E-01  1.6201759938807E+00
    80  7.9000000000000E-01  1.0692860193534E-01  1.6420883026556E+00
    81  8.0000000000000E-01  4.6852863063417E-02  1.6604778995856E+00
    82  8.1000000000000E-01 -1.1466357488104E-02  1.6751935433947E+00
    83  8.2000000000000E-01 -6.7814543571626E-02  1.6860930785564E+00
    84  8.3000000000000E-01 -1.2198590365991E-01  1.6930450876640E+00
    85  8.4000000000000E-01 -1.7378470773884E-01  1.6959305954475E+00
    86  8.5000000000000E-01 -2.2302660814013E-01  1.6946448017704E+00
    87  8.6000000000000E-01 -2.6953993067450E-01  1.6890988191555E+00
    88  8.7000000000000E-01 -3.1316692196806E-01  1.6792213889474E+00
    89  8.8000000000000E-01 -3.5376493863206E-01  1.6649605491491E+00
    90  8.9000000000000E-01 -3.9120756382032E-01  1.6462852263073E+00
    91  9.0000000000000E-01 -4.2538563685792E-01  1.6231867235753E+00
    92  9.1000000000000E-01 -4.5620818196351E-01  1.5956800772813E+00
    93  9.2000000000000E-01 -4.8360322263916E-01  1.5638052549697E+00
    94  9.3000000000000E-01 -5.0751846906394E-01  1.5276281689793E+00
    95  9.4000000000000E-01 -5.2792186679661E-01  1.4872414811520E+00
    96  9.5000000000000E-01 -5.4480199626105E-01  1.4427651762356E+00
    97  9.6000000000000E-01 -5.5816831384456E-01  1.3943468839217E+00
    98  9.7000000000000E-01 -5.6805122697009E-01  1.3421619322204E+00
    99  9.8000000000000E-01 -5.7450199719144E-01  1.2864131179925E+00
   100  9.9000000000000E-01 -5.7759246718673E-01  1.2273301838886E+00
   101  1.0000000000000E+00 -5.7741460946696E-01  1.1651689946467E+00
   102  1.0100000000000E+00 -5.7407989664826E-01  1.1002104096174E+00
   103  1.0200000000000E+00 -5.6771849523460E-01  1.0327588524769E+00
   104  1.0300000000000E+00 -5.5847828699172E-01  9.6314058328517E-01
   105  1.0400000000000E+00 -5.4652372413424E-01  8.9170168229247E-01
   106  1.0500000000000E+00 -5.3203452666866E-01  8.1880575913354E-01
   107  1.0600000000000E+00 -5.1520423230356E-01  7.4483140521255E-01
   108  1.0700000000000E+00 -4.9623861132222E-01  6.7016941109827E-01
   109  1.0800000000000E+00 -4.7535396069076E-01  5.9521977458013E-01
   110  1.0900000000000E+00 -4.5277529340731E-01  5.2038852859359E-01
   111  1.1000000000000E+00 -4.2873444066813E-01  4.4608442147293E-01
   112  1.1100000000000E+00 -4.0346808580347E-01  3.7271548486634E-01
   113  1.1200000000000E+00 -3.7721575009855E-01  3.0068552710279E-01
   114  1.1300000000000E+00 -3.5021775154504E-01  2.3039059179745E-01
   115  1.1400000000000E+00 -3.2271315824506E-01  1.6221542297253E-01
   116  1.1500000000000E+00 -2.9493775860326E-01  9.6529978934671E-02
   117  1.1600000000000E+00 -2.6712207057957E-01  3.3686037556074E-02
   118  1.1700000000000E+00 -2.3948941213070E-01 -2.5986064558015E-02
   119  1.1800000000000E+00 -2.1225405455038E-01 -8.2180517238625E-02
   120  1.1900000000000E+00 -1.8561947980268E-01 -1.3461890549234E-01
   121  1.2000000000000E+00 -1.5977676063331E-01 -1.8305282725077E-01
   122  1.2100000000000E+00 -1.3490304767753E-01 -2.2726633941360E-01
   123  1.2200000000000E+00 -1.1115975237713E-01 -2.6707960463594E-01
   124  1.2300000000000E+00 -8.8690816808720E-02 -3.0235238177522E-01
   125  1.2400000000000E+00 -6.7621632362601E-02 -3.3298555379556E-01
   126  1.2500000000000E+00 -4.8058217884730E-02 -3.5892206757732E-01
   127  1.2600000000000E+00 -3.0086613656589E-02 -3.8014744723948E-01
   128  1.2700000000000E+00 -1.3772497157491E-02 -3.9668987065129E-01
   129  1.2800000000000E+00  8.3897549055452E-04 -4.0861980212673E-01
   130  1.2900000000000E+00  1.3723101061851E-02 -4.1604917941178E-01
   131  1.3000000000000E+00  2.4875335085474E-02 -4.1913015847753E-01
   132  1.3100000000000E+00  3.4310775999979E-02 -4.1805342496156E-01
   133  1.3200000000000E+00  4.2063434195184E-02 -4.1304608638820E-01
   134  1.3300000000000E+00  4.8185295104698E-02 -4.0436916451539E-01
   135  1.3400000000000E+00  5.2745187973465E-02 -3.9231471215616E-01
   136  1.3500000000000E+00  5.5827474268863E-02 -3.7720258359475E-01
   137  1.3600000000000E+00  5.7530571894940E-02 -3.5937689218504E-01
   138  1.3700000000000E+00  5.7965333375302E-02 -3.3920219281473E-01
   139  1.3800000000000E+00  5.7253297961338E-02 -3.1705943058080E-01
   140  1.3900000000000E+00  5.5524839180921E-02 -2.9334170021074E-01
   141  1.4000000000000E+00  5.2917230643933E-02 -2.6844986342912E-01
   142  1.4100000000000E+00  4.9572653948768E-02 -2.4278807357468E-01
   143  1.4200000000000E+00  4.5636173267506E-02 -2.1675925827586E-01
   144  1.4300000000000E+00  4.1253701623541E-02 -1.9076061188352E-01
   145  1.4400000000000E+00  3.6569984001972E-02 -1.6517914961454E-01
   146  1.4500000000000E+00  3.1726618963384E-02 -1.4038736823555E-01
   147  1.4600000000000E+00  2.6860176204733E-02 -1.1673913140519E-01
   148  1.4700000000000E+00  2.2100284852869E-02 -9.4565523840529E-02
   149  1.4800000000000E+00  1.7569549166667E-02 -7.4174479462664E-02
   150  1.4900000000000E+00  1.3385605696163E-02 -5.5854870911583E-02
   151  1.5000000000000E+00  9.6452139583988E-03 -3.9843732527545E-02
   152  1.5100000000000E+00  6.4314222408739E-03 -2.6340773393378E-02
   153  1.5200000000000E+00  3.8140851180309E-03 -1.5509368057183E-02
   154  1.5300000000000E+00  1.8496960827704E-03 -7.4775813379538E-03
   155  1.5400000000000E+00  5.7290823622495E-04 -2.3055260574989E-03
   156  1.5500000000000E+00  3.8667498543927E-05 -1.5494341685484E-04
   157  1.5600000000000E+00 -6.7193972158893E-06  2.6898682012673E-05
   158  1.5700000000000E+00  1.6833988441283E-06 -6.7487608905722E-06
   159  1.58  0.  0.
   160  1.59  0.  0.
   161  1.60  0.  0.
   162  1.61  0.  0.
   163  1.62  0.  0.
   164  1.63  0.  0.
   165  1.64  0.  0.
   166  1.65  0.  0.
   167  1.66  0.  0.
   168  1.67  0.  0.
   169  1.68  0.  0.
   170  1.69  0.  0.
   171  1.70  0.  0.
   172  1.71  0.  0.
   173  1.72  0.  0.
   174  1.73  0.  0.
   175  1.74  0.  0.
   176  1.75  0.  0.
   177  1.76  0.  0.
   178  1.77  0.  0.
   179  1.78  0.  0.
   180  1.79  0.  0.
   181  1.80  0.  0.
   182  1.81  0.  0.
   183  1.82  0.  0.
   184  1.83  0.  0.
   185  1.84  0.  0.
   186  1.85  0.  0.
   187  1.86  0.  0.
   188  1.87  0.  0.
   189  1.88  0.  0.
   190  1.89  0.  0.
   191  1.90  0.  0.
   192  1.91  0.  0.
   193  1.92  0.  0.
   194  1.93  0.  0.
   195  1.94  0.  0.
   196  1.95  0.  0.
   197  1.96  0.  0.
   198  1.97  0.  0.
   199  1.98  0.  0.
   200  1.99  0.  0.
   201  2.00  0.  0.
   202  2.01  0.  0.
   203  2.02  0.  0.
   204  2.03  0.  0.
   205  2.04  0.  0.
   206  2.05  0.  0.
   207  2.06  0.  0.
   208  2.07  0.  0.
   209  2.08  0.  0.
   210  2.09  0.  0.
   211  2.10  0.  0.
   212  2.11  0.  0.
   213  2.12  0.  0.
   214  2.13  0.  0.
   215  2.14  0.  0.
   216  2.15  0.  0.
   217  2.16  0.  0.
   218  2.17  0.  0.
   219  2.18  0.  0.
   220  2.19  0.  0.
   221  2.20  0.  0.
   222  2.21  0.  0.
   223  2.22  0.  0.
   224  2.23  0.  0.
   225  2.24  0.  0.
   226  2.25  0.  0.
   227  2.26  0.  0.
   228  2.27  0.  0.
   229  2.28  0.  0.
   230  2.29  0.  0.
   231  2.30  0.  0.
   232  2.31  0.  0.
   233  2.32  0.  0.
   234  2.33  0.  0.
   235  2.34  0.  0.
   236  2.35  0.  0.
   237  2.36  0.  0.
   238  2.37  0.  0.
   239  2.38  0.  0.
   240  2.39  0.  0.
   241  2.40  0.  0.
   242  2.41  0.  0.
   243  2.42  0.  0.
   244  2.43  0.  0.
   245  2.44  0.  0.
   246  2.45  0.  0.
   247  2.46  0.  0.
   248  2.47  0.  0.
   249  2.48  0.  0.
   250  2.49  0.  0.
   251  2.50  0.  0.
   252  2.51  0.  0.
   253  2.52  0.  0.
   254  2.53  0.  0.
   255  2.54  0.  0.
   256  2.55  0.  0.
   257  2.56  0.  0.
   258  2.57  0.  0.
   259  2.58  0.  0.
   260  2.59  0.  0.
   261  2.60  0.  0.
   262  2.61  0.  0.
   263  2.62  0.  0.
   264  2.63  0.  0.
   265  2.64  0.  0.
   266  2.65  0.  0.
   267  2.66  0.  0.
   268  2.67  0.  0.
   269  2.68  0.  0.
   270  2.69  0.  0.
   271  2.70  0.  0.
   272  2.71  0.  0.
   273  2.72  0.  0.
   274  2.73  0.  0.
   275  2.74  0.  0.
   276  2.75  0.  0.
   277  2.76  0.  0.
   278  2.77  0.  0.
   279  2.78  0.  0.
   280  2.79  0.  0.
   281  2.80  0.  0.
   282  2.81  0.  0.
   283  2.82  0.  0.
   284  2.83  0.  0.
   285  2.84  0.  0.
   286  2.85  0.  0.
   287  2.86  0.  0.
   288  2.87  0.  0.
   289  2.88  0.  0.
   290  2.89  0.  0.
   291  2.90  0.  0.
   292  2.91  0.  0.
   293  2.92  0.  0.
   294  2.93  0.  0.
   295  2.94  0.  0.
   296  2.95  0.  0.
   297  2.96  0.  0.
   298  2.97  0.  0.
   299  2.98  0.  0.
   300  2.99  0.  0.
   301  3.00  0.  0.
   302  3.01  0.  0.
   303  3.02  0.  0.
   304  3.03  0.  0.
   305  3.04  0.  0.
   306  3.05  0.  0.
   307  3.06  0.  0.
   308  3.07  0.  0.
   309  3.08  0.  0.
   310  3.09  0.  0.
   311  3.10  0.  0.
   312  3.11  0.  0.
   313  3.12  0.  0.
   314  3.13  0.  0.
   315  3.14  0.  0.
   316  3.15  0.  0.
   317  3.16  0.  0.
   318  3.17  0.  0.
   319  3.18  0.  0.
   320  3.19  0.  0.
   321  3.20  0.  0.
   322  3.21  0.  0.
   323  3.22  0.  0.
   324  3.23  0.  0.
   325  3.24  0.  0.
   326  3.25  0.  0.
   327  3.26  0.  0.
   328  3.27  0.  0.
   329  3.28  0.  0.
   330  3.29  0.  0.
   331  3.30  0.  0.
   332  3.31  0.  0.
   333  3.32  0.  0.
   334  3.33  0.  0.
   335  3.34  0.  0.
   336  3.35  0.  0.
   337  3.36  0.  0.
   338  3.37  0.  0.
   339  3.38  0.  0.
   340  3.39  0.  0.
   341  3.40  0.  0.
   342  3.41  0.  0.
   343  3.42  0.  0.
   344  3.43  0.  0.
   345  3.44  0.  0.
   346  3.45  0.  0.
   347  3.46  0.  0.
   348  3.47  0.  0.
   349  3.48  0.  0.