Sn    ONCVPSP-4.0.1  r_core=   2.26172   2.61090   1.85654
     50.0000     14.0000      231019    zatom,zion,pspd
     8       2   2     4   600     0    pspcod,pspxc,lmax,lloc,mmax,r2well
  5.99000000  6.50000000  0.00000000    rchrg fchrg qchrg
     2     2     2     0     0    nproj
     1     1           extension_switch
   0                         5.5409151833646E+00  7.1183361960597E-01
     1  0.0000000000000E+00 -6.0654814504346E-12  1.2296198781403E-11
     2  1.0000000000000E-02  1.6786900960911E-02 -9.9592555787914E-04
     3  2.0000000000000E-02  3.3570755953959E-02 -2.0029615791708E-03
     4  3.0000000000000E-02  5.0348545405549E-02 -3.0322185503103E-03
     5  4.0000000000000E-02  6.7117302281468E-02 -4.0948066465263E-03
     6  5.0000000000000E-02  8.3874137735252E-02 -5.2018346862267E-03
     7  6.0000000000000E-02  1.0061626601525E-01 -6.3644080260952E-03
     8  7.0000000000000E-02  1.1734102839043E-01 -7.5936250582892E-03
     9  8.0000000000000E-02  1.3404591586097E-01 -8.9005719834284E-03
    10  9.0000000000000E-02  1.5072859042742E-01 -1.0296315548289E-02
    11  1.0000000000000E-01  1.6738690470077E-01 -1.1791893455177E-02
    12  1.1000000000000E-01  1.8401891964651E-01 -1.3398302170768E-02
    13  1.2000000000000E-01  2.0062292026723E-01 -1.5126481885581E-02
    14  1.3000000000000E-01  2.1719742904101E-01 -1.6987298401005E-02
    15  1.4000000000000E-01  2.3374121694743E-01 -1.8991521749076E-02
    16  1.5000000000000E-01  2.5025331192775E-01 -2.1149801380192E-02
    17  1.6000000000000E-01  2.6673300464250E-01 -2.3472637786324E-02
    18  1.7000000000000E-01  2.8317985140663E-01 -2.5970350460890E-02
    19  1.8000000000000E-01  2.9959367420080E-01 -2.8653042132016E-02
    20  1.9000000000000E-01  3.1597455767586E-01 -3.1530559242219E-02
    21  2.0000000000000E-01  3.3232284308768E-01 -3.4612448685500E-02
    22  2.1000000000000E-01  3.4863911911906E-01 -3.7907910850878E-02
    23  2.2000000000000E-01  3.6492420956651E-01 -4.1425749060554E-02
    24  2.3000000000000E-01  3.8117915789033E-01 -4.5174315530003E-02
    25  2.4000000000000E-01  3.9740520864793E-01 -4.9161454016347E-02
    26  2.5000000000000E-01  4.1360378585136E-01 -5.3394439360459E-02
    27  2.6000000000000E-01  4.2977646831159E-01 -5.7879914166440E-02
    28  2.7000000000000E-01  4.4592496205336E-01 -6.2623822899805E-02
    29  2.8000000000000E-01  4.6205106990517E-01 -6.7631343722076E-02
    30  2.9000000000000E-01  4.7815665839003E-01 -7.2906818414643E-02
    31  3.0000000000000E-01  4.9424362206257E-01 -7.8453680778449E-02
    32  3.1000000000000E-01  5.1031384545787E-01 -8.4274383927473E-02
    33  3.2000000000000E-01  5.2636916283629E-01 -9.0370326923819E-02
    34  3.3000000000000E-01  5.4241131592681E-01 -9.6741781229341E-02
    35  3.4000000000000E-01  5.5844190988869E-01 -1.0338781747352E-01
    36  3.5000000000000E-01  5.7446236772724E-01 -1.1030623305895E-01
    37  3.6000000000000E-01  5.9047388341501E-01 -1.1749348114529E-01
    38  3.7000000000000E-01  6.0647737398339E-01 -1.2494460156764E-01
    39  3.8000000000000E-01  6.2247343086218E-01 -1.3265315425828E-01
    40  3.9000000000000E-01  6.3846227075609E-01 -1.4061115574920E-01
    41  4.0000000000000E-01  6.5444368635671E-01 -1.4880901933878E-01
    42  4.1000000000000E-01  6.7041699719685E-01 -1.5723549950688E-01
    43  4.2000000000000E-01  6.8638100096063E-01 -1.6587764116090E-01
    44  4.3000000000000E-01  7.0233392556759E-01 -1.7472073428906E-01
    45  4.4000000000000E-01  7.1827338235253E-01 -1.8374827458692E-01
    46  4.5000000000000E-01  7.3419632066398E-01 -1.9294193060938E-01
    47  4.6000000000000E-01  7.5009898420396E-01 -2.0228151798225E-01
    48  4.7000000000000E-01  7.6597686942961E-01 -2.1174498118510E-01
    49  4.8000000000000E-01  7.8182468633316E-01 -2.2130838339200E-01
    50  4.9000000000000E-01  7.9763632191091E-01 -2.3094590482610E-01
    51  5.0000000000000E-01  8.1340480662433E-01 -2.4062985005094E-01
    52  5.1000000000000E-01  8.2912228414675E-01 -2.5033066458417E-01
    53  5.2000000000000E-01  8.4477998467793E-01 -2.6001696117842E-01
    54  5.3000000000000E-01  8.6036820209586E-01 -2.6965555607054E-01
    55  5.4000000000000E-01  8.7587627520014E-01 -2.7921151545245E-01
    56  5.5000000000000E-01  8.9129257328509E-01 -2.8864821236766E-01
    57  5.6000000000000E-01  9.0660448626275E-01 -2.9792739418395E-01
    58  5.7000000000000E-01  9.2179841953610E-01 -3.0700926073784E-01
    59  5.8000000000000E-01  9.3685979380228E-01 -3.1585255318890E-01
    60  5.9000000000000E-01  9.5177304994281E-01 -3.2441465356246E-01
    61  6.0000000000000E-01  9.6652165913457E-01 -3.3265169489873E-01
    62  6.1000000000000E-01  9.8108813829032E-01 -3.4051868186364E-01
    63  6.2000000000000E-01  9.9545407091179E-01 -3.4796962161395E-01
    64  6.3000000000000E-01  1.0096001334120E+00 -3.5495766464537E-01
    65  6.4000000000000E-01  1.0235061269352E+00 -3.6143525528861E-01
    66  6.5000000000000E-01  1.0371510146762E+00 -3.6735429145427E-01
    67  6.6000000000000E-01  1.0505129646698E+00 -3.7266629316457E-01
    68  6.7000000000000E-01  1.0635693979951E+00 -3.7732257934754E-01
    69  6.8000000000000E-01  1.0762970423079E+00 -3.8127445230807E-01
    70  6.9000000000000E-01  1.0886719905854E+00 -3.8447338923115E-01
    71  7.0000000000000E-01  1.1006697649404E+00 -3.8687124001535E-01
    72  7.1000000000000E-01  1.1122653853299E+00 -3.8842043067945E-01
    73  7.2000000000000E-01  1.1234334429574E+00 -3.8907417153343E-01
    74  7.3000000000000E-01  1.1341481781392E+00 -3.8878666925630E-01
    75  7.4000000000000E-01  1.1443835623774E+00 -3.8751334197705E-01
    76  7.5000000000000E-01  1.1541133843556E+00 -3.8521103641498E-01
    77  7.6000000000000E-01  1.1633113395513E+00 -3.8183824609670E-01
    78  7.7000000000000E-01  1.1719511231292E+00 -3.7735532963573E-01
    79  7.8000000000000E-01  1.1800065257623E+00 -3.7172472803156E-01
    80  7.9000000000000E-01  1.1874515320032E+00 -3.6491117992246E-01
    81  8.0000000000000E-01  1.1942604208095E+00 -3.5688193370842E-01
    82  8.1000000000000E-01  1.2004078678084E+00 -3.4760695544843E-01
    83  8.2000000000000E-01  1.2058690488703E+00 -3.3705913142942E-01
    84  8.3000000000000E-01  1.2106197445472E+00 -3.2521446430354E-01
    85  8.4000000000000E-01  1.2146364449179E+00 -3.1205226169549E-01
    86  8.5000000000000E-01  1.2178964543745E+00 -2.9755531619283E-01
    87  8.6000000000000E-01  1.2203779958739E+00 -2.8171007564922E-01
    88  8.7000000000000E-01  1.2220603141766E+00 -2.6450680275410E-01
    89  8.8000000000000E-01  1.2229237775871E+00 -2.4593972285160E-01
    90  8.9000000000000E-01  1.2229499777144E+00 -2.2600715902705E-01
    91  9.0000000000000E-01  1.2221218267681E+00 -2.0471165352080E-01
    92  9.1000000000000E-01  1.2204236519149E+00 -1.8206007457673E-01
    93  9.2000000000000E-01  1.2178412862215E+00 -1.5806370788529E-01
    94  9.3000000000000E-01  1.2143621557237E+00 -1.3273833184024E-01
    95  9.4000000000000E-01  1.2099753621701E+00 -1.0610427589137E-01
    96  9.5000000000000E-01  1.2046717610036E+00 -7.8186461345025E-02
    97  9.6000000000000E-01  1.1984440341612E+00 -4.9014424037472E-02
    98  9.7000000000000E-01  1.1912867572892E+00 -1.8622318384549E-02
    99  9.8000000000000E-01  1.1831964609936E+00  1.2951097606795E-02
   100  9.9000000000000E-01  1.1741716857664E+00  4.5662496693959E-02
   101  1.0000000000000E+00  1.1642130302573E+00  7.9464036360129E-02
   102  1.0100000000000E+00  1.1533231925814E+00  1.1430343252948E-01
   103  1.0200000000000E+00  1.1415070043875E+00  1.5012405308875E-01
   104  1.0300000000000E+00  1.1287714574405E+00  1.8686503117214E-01
   105  1.0400000000000E+00  1.1151257225003E+00  2.2446139806790E-01
   106  1.0500000000000E+00  1.1005811603182E+00  2.6284423550724E-01
   107  1.0600000000000E+00  1.0851513246021E+00  3.0194084699633E-01
   108  1.0700000000000E+00  1.0688519568384E+00  3.4167494775366E-01
   109  1.0800000000000E+00  1.0517009728964E+00  3.8196687271667E-01
   110  1.0900000000000E+00  1.0337184413774E+00  4.2273380198490E-01
   111  1.1000000000000E+00  1.0149265537056E+00  4.6389000297095E-01
   112  1.1100000000000E+00  9.9534958600113E-01  5.0534708843879E-01
   113  1.1200000000000E+00  9.7501385280896E-01  5.4701428951808E-01
   114  1.1300000000000E+00  9.5394765279710E-01  5.8879874269694E-01
   115  1.1400000000000E+00  9.3218120657583E-01  6.3060578971300E-01
   116  1.1500000000000E+00  9.0974658682550E-01  6.7233928918444E-01
   117  1.1600000000000E+00  8.8667764095790E-01  7.1390193874890E-01
   118  1.1700000000000E+00  8.6300990657138E-01  7.5519560641084E-01
   119  1.1800000000000E+00  8.3878051999456E-01  7.9612166973543E-01
   120  1.1900000000000E+00  8.1402811824665E-01  8.3658136147104E-01
   121  1.2000000000000E+00  7.8879273477459E-01  8.7647612013343E-01
   122  1.2100000000000E+00  7.6311568935703E-01  9.1570794404184E-01
   123  1.2200000000000E+00  7.3703947259396E-01  9.5417974726249E-01
   124  1.2300000000000E+00  7.1060762542744E-01  9.9179571588694E-01
   125  1.2400000000000E+00  6.8386461416289E-01  1.0284616630535E+00
   126  1.2500000000000E+00  6.5685570148364E-01  1.0640853811067E+00
   127  1.2600000000000E+00  6.2962681397023E-01  1.0985769892875E+00
   128  1.2700000000000E+00  6.0222440665459E-01  1.1318492753502E+00
   129  1.2800000000000E+00  5.7469532515361E-01  1.1638180295148E+00
   130  1.2900000000000E+00  5.4708666593915E-01  1.1944023691839E+00
   131  1.3000000000000E+00  5.1944563531152E-01  1.2235250528835E+00
   132  1.3100000000000E+00  4.9181940765009E-01  1.2511127819232E+00
   133  1.3200000000000E+00  4.6425498351919E-01  1.2770964883163E+00
   134  1.3300000000000E+00  4.3679904820871E-01  1.3014116075527E+00
   135  1.3400000000000E+00  4.0949783128780E-01  1.3239983348815E+00
   136  1.3500000000000E+00  3.8239696774521E-01  1.3448018638219E+00
   137  1.3600000000000E+00  3.5554136128368E-01  1.3637726057019E+00
   138  1.3700000000000E+00  3.2897505032562E-01  1.3808663891019E+00
   139  1.3800000000000E+00  3.0274107727509E-01  1.3960446381689E+00
   140  1.3900000000000E+00  2.7688136156624E-01  1.4092745288622E+00
   141  1.4000000000000E+00  2.5143657701075E-01  1.4205291222867E+00
   142  1.4100000000000E+00  2.2644603393720E-01  1.4297874743777E+00
   143  1.4200000000000E+00  2.0194756659266E-01  1.4370347213055E+00
   144  1.4300000000000E+00  1.7797742625290E-01  1.4422621400821E+00
   145  1.4400000000000E+00  1.5457018046083E-01  1.4454671839643E+00
   146  1.4500000000000E+00  1.3175861878457E-01  1.4466534923691E+00
   147  1.4600000000000E+00  1.0957366545659E-01  1.4458308751300E+00
   148  1.4700000000000E+00  8.8044299223432E-02  1.4430152710502E+00
   149  1.4800000000000E+00  6.7197480702855E-02  1.4382286808227E+00
   150  1.4900000000000E+00  4.7058087510632E-02  1.4314990745131E+00
   151  1.5000000000000E+00  2.7648857384191E-02  1.4228602739182E+00
   152  1.5100000000000E+00  8.9903394941382E-03  1.4123518102317E+00
   153  1.5200000000000E+00 -8.8991459021670E-03  1.4000187575673E+00
   154  1.5300000000000E+00 -2.6003539347778E-02  1.3859115429989E+00
   155  1.5400000000000E+00 -4.2309065534380E-02  1.3700857338920E+00
   156  1.5500000000000E+00 -5.7804248069227E-02  1.3526018034035E+00
   157  1.5600000000000E+00 -7.2479915655789E-02  1.3335248751299E+00
   158  1.5700000000000E+00 -8.6329199719710E-02  1.3129244479809E+00
   159  1.5800000000000E+00 -9.9347523548277E-02  1.2908741024439E+00
   160  1.5900000000000E+00 -1.1153258304690E-01  1.2674511894920E+00
   161  1.6000000000000E+00 -1.2288431925066E-01  1.2427365034639E+00
   162  1.6100000000000E+00 -1.3340488276249E-01  1.2168139403139E+00
   163  1.6200000000000E+00 -1.4309859032176E-01  1.1897701426979E+00
   164  1.6300000000000E+00 -1.5197187373748E-01  1.1616941334084E+00
   165  1.6400000000000E+00 -1.6003322144961E-01  1.1326769387266E+00
   166  1.6500000000000E+00 -1.6729311300924E-01  1.1028112032931E+00
   167  1.6600000000000E+00 -1.7376394679372E-01  1.0721907981293E+00
   168  1.6700000000000E+00 -1.7945996129657E-01  1.0409104234641E+00
   169  1.6800000000000E+00 -1.8439715035283E-01  1.0090652080310E+00
   170  1.6900000000000E+00 -1.8859317268043E-01  9.7675030650460E-01
   171  1.7000000000000E+00 -1.9206725613433E-01  9.4406049673934E-01
   172  1.7100000000000E+00 -1.9484009708533E-01  9.1108977845794E-01
   173  1.7200000000000E+00 -1.9693375534733E-01  8.7793097501483E-01
   174  1.7300000000000E+00 -1.9837154508709E-01  8.4467533982638E-01
   175  1.7400000000000E+00 -1.9917792215752E-01  8.1141216901960E-01
   176  1.7500000000000E+00 -1.9937836830089E-01  7.7822842180237E-01
   177  1.7600000000000E+00 -1.9899927267109E-01  7.4520835000142E-01
   178  1.7700000000000E+00 -1.9806781112404E-01  7.1243313815039E-01
   179  1.7800000000000E+00 -1.9661182372364E-01  6.7998055543952E-01
   180  1.7900000000000E+00 -1.9465969090633E-01  6.4792462076008E-01
   181  1.8000000000000E+00 -1.9224020874089E-01  6.1633528199408E-01
   182  1.8100000000000E+00 -1.8938246371143E-01  5.8527811060930E-01
   183  1.8200000000000E+00 -1.8611570744128E-01  5.5481401252632E-01
   184  1.8300000000000E+00 -1.8246923172564E-01  5.2499895583885E-01
   185  1.8400000000000E+00 -1.7847224426379E-01  4.9588371628188E-01
   186  1.8500000000000E+00 -1.7415374748627E-01  4.6751365577779E-01
   187  1.8600000000000E+00 -1.6954240910018E-01  4.3992844641460E-01
   188  1.8700000000000E+00 -1.6466649390112E-01  4.1316227000502E-01
   189  1.8800000000000E+00 -1.5955389131569E-01  3.8724468443271E-01
   190  1.8900000000000E+00 -1.5423213005922E-01  3.6220126143617E-01
   191  1.9000000000000E+00 -1.4872831386766E-01  3.3805356381803E-01
   192  1.9100000000000E+00 -1.4306906697192E-01  3.1481919338610E-01
   193  1.9200000000000E+00 -1.3728048181015E-01  2.9251184560917E-01
   194  1.9300000000000E+00 -1.3138807059569E-01  2.7114138386014E-01
   195  1.9400000000000E+00 -1.2541672069832E-01  2.5071393190773E-01
   196  1.9500000000000E+00 -1.1939065383937E-01  2.3123198387409E-01
   197  1.9600000000000E+00 -1.1333338907841E-01  2.1269453079004E-01
   198  1.9700000000000E+00 -1.0726770954782E-01  1.9509720280552E-01
   199  1.9800000000000E+00 -1.0121563286899E-01  1.7843242602983E-01
   200  1.9900000000000E+00 -9.5198385163089E-02  1.6268959290250E-01
   201  2.0000000000000E+00 -8.9236378548938E-02  1.4785524492422E-01
   202  2.0100000000000E+00 -8.3349192001790E-02  1.3391326651420E-01
   203  2.0200000000000E+00 -7.7555555429366E-02  1.2084508870579E-01
   204  2.0300000000000E+00 -7.1873336805576E-02  1.0862990134268E-01
   205  2.0400000000000E+00 -6.6319532187716E-02  9.7244872397242E-02
   206  2.0500000000000E+00 -6.0910258430391E-02  8.6665373000199E-02
   207  2.0600000000000E+00 -5.5660748398173E-02  7.6865206744911E-02
   208  2.0700000000000E+00 -5.0585348469397E-02  6.7816841812789E-02
   209  2.0800000000000E+00 -4.5697518116263E-02  5.9491644458174E-02
   210  2.0900000000000E+00 -4.1009831340469E-02  5.1860112389999E-02
   211  2.1000000000000E+00 -3.6533979739786E-02  4.4892106597087E-02
   212  2.1100000000000E+00 -3.2280775666538E-02  3.8557076767223E-02
   213  2.1200000000000E+00 -2.8260166338628E-02  3.2824307698477E-02
   214  2.1300000000000E+00 -2.4481218411243E-02  2.7663080671486E-02
   215  2.1400000000000E+00 -2.0952152712857E-02  2.3042956134262E-02
   216  2.1500000000000E+00 -1.7680421482359E-02  1.8934157545790E-02
   217  2.1600000000000E+00 -1.4673741558067E-02  1.5310425282599E-02
   218  2.1700000000000E+00 -1.1938631754853E-02  1.2145379020434E-02
   219  2.1800000000000E+00 -9.4794323818749E-03  9.4101229870128E-03
   220  2.1900000000000E+00 -7.2997826422664E-03  7.0772233928714E-03
   221  2.2000000000000E+00 -5.4024670503124E-03  5.1204309056111E-03
   222  2.2100000000000E+00 -3.7894633309076E-03  3.5149145944336E-03
   223  2.2200000000000E+00 -2.4619596028923E-03  2.2374028475633E-03
   224  2.2300000000000E+00 -1.4209307091774E-03  1.2667867452143E-03
   225  2.2400000000000E+00 -6.6127663490506E-04  5.7931222522566E-04
   226  2.2500000000000E+00 -1.9636565246951E-04  1.6929272784364E-04
   227  2.2600000000000E+00 -1.1556117309999E-05  9.9869166823792E-06
   228  2.2700000000000E+00  9.9593882832547E-06 -8.2920934508649E-06
   229  2.2800000000000E+00 -3.5972089493852E-06  3.0361818221961E-06
   230  2.29  0. -0.
   231  2.30  0. -0.
   232  2.31  0. -0.
   233  2.32  0.  0.
   234  2.33  0.  0.
   235  2.34  0.  0.
   236  2.35  0.  0.
   237  2.36  0.  0.
   238  2.37  0.  0.
   239  2.38  0.  0.
   240  2.39  0.  0.
   241  2.40  0.  0.
   242  2.41  0.  0.
   243  2.42  0.  0.
   244  2.43  0.  0.
   245  2.44  0.  0.
   246  2.45  0.  0.
   247  2.46  0.  0.
   248  2.47  0.  0.
   249  2.48  0.  0.
   250  2.49  0.  0.
   251  2.50  0.  0.
   252  2.51  0.  0.
   253  2.52  0.  0.
   254  2.53  0.  0.
   255  2.54  0.  0.
   256  2.55  0.  0.
   257  2.56  0.  0.
   258  2.57  0.  0.
   259  2.58  0.  0.
   260  2.59  0.  0.
   261  2.60  0.  0.
   262  2.61  0.  0.
   263  2.62  0.  0.
   264  2.63  0.  0.
   265  2.64  0.  0.
   266  2.65  0.  0.
   267  2.66  0.  0.
   268  2.67  0.  0.
   269  2.68  0.  0.
   270  2.69  0.  0.
   271  2.70  0.  0.
   272  2.71  0.  0.
   273  2.72  0.  0.
   274  2.73  0.  0.
   275  2.74  0.  0.
   276  2.75  0.  0.
   277  2.76  0.  0.
   278  2.77  0.  0.
   279  2.78  0.  0.
   280  2.79  0.  0.
   281  2.80  0.  0.
   282  2.81  0.  0.
   283  2.82  0.  0.
   284  2.83  0.  0.
   285  2.84  0.  0.
   286  2.85  0.  0.
   287  2.86  0.  0.
   288  2.87  0.  0.
   289  2.88  0.  0.
   290  2.89  0.  0.
   291  2.90  0.  0.
   292  2.91  0.  0.
   293  2.92  0.  0.
   294  2.93  0.  0.
   295  2.94  0.  0.
   296  2.95  0.  0.
   297  2.96  0.  0.
   298  2.97  0.  0.
   299  2.98  0.  0.
   300  2.99  0.  0.
   301  3.00  0.  0.
   302  3.01  0.  0.
   303  3.02  0.  0.
   304  3.03  0.  0.
   305  3.04  0.  0.
   306  3.05  0.  0.
   307  3.06  0.  0.
   308  3.07  0.  0.
   309  3.08  0.  0.
   310  3.09  0.  0.
   311  3.10  0.  0.
   312  3.11  0.  0.
   313  3.12  0.  0.
   314  3.13  0.  0.
   315  3.14  0.  0.
   316  3.15  0.  0.
   317  3.16  0.  0.
   318  3.17  0.  0.
   319  3.18  0.  0.
   320  3.19  0.  0.
   321  3.20  0.  0.
   322  3.21  0.  0.
   323  3.22  0.  0.
   324  3.23  0.  0.
   325  3.24  0.  0.
   326  3.25  0.  0.
   327  3.26  0.  0.
   328  3.27  0.  0.
   329  3.28  0.  0.
   330  3.29  0.  0.
   331  3.30  0.  0.
   332  3.31  0.  0.
   333  3.32  0.  0.
   334  3.33  0.  0.
   335  3.34  0.  0.
   336  3.35  0.  0.
   337  3.36  0.  0.
   338  3.37  0.  0.
   339  3.38  0.  0.
   340  3.39  0.  0.
   341  3.40  0.  0.
   342  3.41  0.  0.
   343  3.42  0.  0.
   344  3.43  0.  0.
   345  3.44  0.  0.
   346  3.45  0.  0.
   347  3.46  0.  0.
   348  3.47  0.  0.
   349  3.48  0.  0.
   350  3.49  0.  0.
   351  3.50  0.  0.
   352  3.51  0.  0.
   353  3.52  0.  0.
   354  3.53  0.  0.
   355  3.54  0.  0.
   356  3.55  0.  0.
   357  3.56  0.  0.
   358  3.57  0.  0.
   359  3.58  0.  0.
   360  3.59  0.  0.
   361  3.60  0.  0.
   362  3.61  0.  0.
   363  3.62  0.  0.
   364  3.63  0.  0.
   365  3.64  0.  0.
   366  3.65  0.  0.
   367  3.66  0.  0.
   368  3.67  0.  0.
   369  3.68  0.  0.
   370  3.69  0.  0.
   371  3.70  0.  0.
   372  3.71  0.  0.
   373  3.72  0.  0.
   374  3.73  0.  0.
   375  3.74  0.  0.
   376  3.75  0.  0.
   377  3.76  0.  0.
   378  3.77  0.  0.
   379  3.78  0.  0.
   380  3.79  0.  0.
   381  3.80  0.  0.
   382  3.81  0.  0.
   383  3.82  0.  0.
   384  3.83  0.  0.
   385  3.84  0.  0.
   386  3.85  0.  0.
   387  3.86  0.  0.
   388  3.87  0.  0.
   389  3.88  0.  0.
   390  3.89  0.  0.
   391  3.90  0.  0.
   392  3.91  0.  0.
   393  3.92  0.  0.
   394  3.93  0.  0.
   395  3.94  0.  0.
   396  3.95  0.  0.
   397  3.96  0.  0.
   398  3.97  0.  0.
   399  3.98  0.  0.
   400  3.99  0.  0.
   401  4.00  0.  0.
   402  4.01  0.  0.
   403  4.02  0.  0.
   404  4.03  0.  0.
   405  4.04  0.  0.
   406  4.05  0.  0.
   407  4.06  0.  0.
   408  4.07  0.  0.
   409  4.08  0.  0.
   410  4.09  0.  0.
   411  4.10  0.  0.
   412  4.11  0.  0.
   413  4.12  0.  0.
   414  4.13  0.  0.
   415  4.14  0.  0.
   416  4.15  0.  0.
   417  4.16  0.  0.
   418  4.17  0.  0.
   419  4.18  0.  0.
   420  4.19  0.  0.
   421  4.20  0.  0.
   422  4.21  0.  0.
   423  4.22  0.  0.
   424  4.23  0.  0.
   425  4.24  0.  0.
   426  4.25  0.  0.
   427  4.26  0.  0.
   428  4.27  0.  0.
   429  4.28  0.  0.
   430  4.29  0.  0.
   431  4.30  0.  0.
   432  4.31  0.  0.
   433  4.32  0.  0.
   434  4.33  0.  0.
   435  4.34  0.  0.
   436  4.35  0.  0.
   437  4.36  0.  0.
   438  4.37  0.  0.
   439  4.38  0.  0.
   440  4.39  0.  0.
   441  4.40  0.  0.
   442  4.41  0.  0.
   443  4.42  0.  0.
   444  4.43  0.  0.
   445  4.44  0.  0.
   446  4.45  0.  0.
   447  4.46  0.  0.
   448  4.47  0.  0.
   449  4.48  0.  0.
   450  4.49  0.  0.
   451  4.50  0.  0.
   452  4.51  0.  0.
   453  4.52  0.  0.
   454  4.53  0.  0.
   455  4.54  0.  0.
   456  4.55  0.  0.
   457  4.56  0.  0.
   458  4.57  0.  0.
   459  4.58  0.  0.
   460  4.59  0.  0.
   461  4.60  0.  0.
   462  4.61  0.  0.
   463  4.62  0.  0.
   464  4.63  0.  0.
   465  4.64  0.  0.
   466  4.65  0.  0.
   467  4.66  0.  0.
   468  4.67  0.  0.
   469  4.68  0.  0.
   470  4.69  0.  0.
   471  4.70  0.  0.
   472  4.71  0.  0.
   473  4.72  0.  0.
   474  4.73  0.  0.
   475  4.74  0.  0.
   476  4.75  0.  0.
   477  4.76  0.  0.
   478  4.77  0.  0.
   479  4.78  0.  0.
   480  4.79  0.  0.
   481  4.80  0.  0.
   482  4.81  0.  0.
   483  4.82  0.  0.
   484  4.83  0.  0.
   485  4.84  0.  0.
   486  4.85  0.  0.
   487  4.86  0.  0.
   488  4.87  0.  0.
   489  4.88  0.  0.
   490  4.89  0.  0.
   491  4.90  0.  0.
   492  4.91  0.  0.
   493  4.92  0.  0.
   494  4.93  0.  0.
   495  4.94  0.  0.
   496  4.95  0.  0.
   497  4.96  0.  0.
   498  4.97  0.  0.
   499  4.98  0.  0.
   500  4.99  0.  0.
   501  5.00  0.  0.
   502  5.01  0.  0.
   503  5.02  0.  0.
   504  5.03  0.  0.
   505  5.04  0.  0.
   506  5.05  0.  0.
   507  5.06  0.  0.
   508  5.07  0.  0.
   509  5.08  0.  0.
   510  5.09  0.  0.
   511  5.10  0.  0.
   512  5.11  0.  0.
   513  5.12  0.  0.
   514  5.13  0.  0.
   515  5.14  0.  0.
   516  5.15  0.  0.
   517  5.16  0.  0.
   518  5.17  0.  0.
   519  5.18  0.  0.
   520  5.19  0.  0.
   521  5.20  0.  0.
   522  5.21  0.  0.
   523  5.22  0.  0.
   524  5.23  0.  0.
   525  5.24  0.  0.
   526  5.25  0.  0.
   527  5.26  0.  0.
   528  5.27  0.  0.
   529  5.28  0.  0.
   530  5.29  0.  0.
   531  5.30  0.  0.
   532  5.31  0.  0.
   533  5.32  0.  0.
   534  5.33  0.  0.
   535  5.34  0.  0.
   536  5.35  0.  0.
   537  5.36  0.  0.
   538  5.37  0.  0.
   539  5.38  0.  0.
   540  5.39  0.  0.
   541  5.40  0.  0.
   542  5.41  0.  0.
   543  5.42  0.  0.
   544  5.43  0.  0.
   545  5.44  0.  0.
   546  5.45  0.  0.
   547  5.46  0.  0.
   548  5.47  0.  0.
   549  5.48  0.  0.
   550  5.49  0.  0.
   551  5.50  0.  0.
   552  5.51  0.  0.
   553  5.52  0.  0.
   554  5.53  0.  0.
   555  5.54  0.  0.
   556  5.55  0.  0.
   557  5.56  0.  0.
   558  5.57  0.  0.
   559  5.58  0.  0.
   560  5.59  0.  0.
   561  5.60  0.  0.
   562  5.61  0.  0.
   563  5.62  0.  0.
   564  5.63  0.  0.
   565  5.64  0.  0.
   566  5.65  0.  0.
   567  5.66  0.  0.
   568  5.67  0.  0.
   569  5.68  0.  0.
   570  5.69  0.  0.
   571  5.70  0.  0.
   572  5.71  0.  0.
   573  5.72  0.  0.
   574  5.73  0.  0.
   575  5.74  0.  0.
   576  5.75  0.  0.
   577  5.76  0.  0.
   578  5.77  0.  0.
   579  5.78  0.  0.
   580  5.79  0.  0.
   581  5.80  0.  0.
   582  5.81  0.  0.
   583  5.82  0.  0.
   584  5.83  0.  0.
   585  5.84  0.  0.
   586  5.85  0.  0.
   587  5.86  0.  0.
   588  5.87  0.  0.
   589  5.88  0.  0.
   590  5.89  0.  0.
   591  5.90  0.  0.
   592  5.91  0.  0.
   593  5.92  0.  0.
   594  5.93  0.  0.
   595  5.94  0.  0.
   596  5.95  0.  0.
   597  5.96  0.  0.
   598  5.97  0.  0.
   599  5.98  0.  0.
   600  5.99  0.  0.
   1                         4.0394070429534E+00  6.5706696409821E-01
     1  0.0000000000000E+00  5.1006084772487E-11 -9.2520539840546E-11
     2  1.0000000000000E-02  4.4279583379470E-04 -3.5578143479356E-04
     3  2.0000000000000E-02  1.7699064030431E-03 -1.4212639096237E-03
     4  3.0000000000000E-02  3.9775065330744E-03 -3.1908715460032E-03
     5  4.0000000000000E-02  7.0592396454843E-03 -5.6553431990095E-03
     6  5.0000000000000E-02  1.1006245734875E-02 -8.8017802683299E-03
     7  6.0000000000000E-02  1.5807200352037E-02 -1.2613713298945E-02
     8  7.0000000000000E-02  2.1448364410291E-02 -1.7071187038484E-02
     9  8.0000000000000E-02  2.7913644580692E-02 -2.2150863525753E-02
    10  9.0000000000000E-02  3.5184663991820E-02 -2.7826142694350E-02
    11  1.0000000000000E-01  4.3240842901138E-02 -3.4067299886991E-02
    12  1.1000000000000E-01  5.2059488957615E-02 -4.0841639590734E-02
    13  1.2000000000000E-01  6.1615896629648E-02 -4.8113664620870E-02
    14  1.3000000000000E-01  7.1883455328599E-02 -5.5845259902509E-02
    15  1.4000000000000E-01  8.2833765716517E-02 -6.3995889923926E-02
    16  1.5000000000000E-01  9.4436763647182E-02 -7.2522808865129E-02
    17  1.6000000000000E-01  1.0666085115260E-01 -8.1381282339054E-02
    18  1.7000000000000E-01  1.1947303385263E-01 -9.0524819621646E-02
    19  1.8000000000000E-01  1.3283906413379E-01 -9.9905415191248E-02
    20  1.9000000000000E-01  1.4672358941464E-01 -1.0947379834725E-01
    21  2.0000000000000E-01  1.6109030478925E-01 -1.1917968963340E-01
    22  2.1000000000000E-01  1.7590210931808E-01 -1.2897206275248E-01
    23  2.2000000000000E-01  1.9112126521618E-01 -1.3879941062675E-01
    24  2.3000000000000E-01  2.0670955917301E-01 -1.4861001423241E-01
    25  2.4000000000000E-01  2.2262846502585E-01 -1.5835221281699E-01
    26  2.5000000000000E-01  2.3883930700004E-01 -1.6797467409584E-01
    27  2.6000000000000E-01  2.5530342272446E-01 -1.7742666301789E-01
    28  2.7000000000000E-01  2.7198232522902E-01 -1.8665830769177E-01
    29  2.8000000000000E-01  2.8883786313357E-01 -1.9562086107129E-01
    30  2.9000000000000E-01  3.0583237824355E-01 -2.0426695701409E-01
    31  3.0000000000000E-01  3.2292885977766E-01 -2.1255085934884E-01
    32  3.1000000000000E-01  3.4009109446640E-01 -2.2042870261525E-01
    33  3.2000000000000E-01  3.5728381177752E-01 -2.2785872317614E-01
    34  3.3000000000000E-01  3.7447282354540E-01 -2.3480147944334E-01
    35  3.4000000000000E-01  3.9162515730582E-01 -2.4122006000748E-01
    36  3.5000000000000E-01  4.0870918266557E-01 -2.4708027851703E-01
    37  3.6000000000000E-01  4.2569473006777E-01 -2.5235085421272E-01
    38  3.7000000000000E-01  4.4255320134832E-01 -2.5700357709120E-01
    39  3.8000000000000E-01  4.5925767151684E-01 -2.6101345674394E-01
    40  3.9000000000000E-01  4.7578298123625E-01 -2.6435885399597E-01
    41  4.0000000000000E-01  4.9210581951866E-01 -2.6702159455208E-01
    42  4.1000000000000E-01  5.0820479620183E-01 -2.6898706394612E-01
    43  4.2000000000000E-01  5.2406050381899E-01 -2.7024428318111E-01
    44  4.3000000000000E-01  5.3965556852618E-01 -2.7078596454412E-01
    45  4.4000000000000E-01  5.5497468980397E-01 -2.7060854717953E-01
    46  4.5000000000000E-01  5.7000466870593E-01 -2.6971221210672E-01
    47  4.6000000000000E-01  5.8473442448214E-01 -2.6810087647374E-01
    48  4.7000000000000E-01  5.9915499946435E-01 -2.6578216694544E-01
    49  4.8000000000000E-01  6.1325955215797E-01 -2.6276737223369E-01
    50  4.9000000000000E-01  6.2704333854588E-01 -2.5907137488680E-01
    51  5.0000000000000E-01  6.4050368166925E-01 -2.5471256256598E-01
    52  5.1000000000000E-01  6.5363992961086E-01 -2.4971271914655E-01
    53  5.2000000000000E-01  6.6645340206681E-01 -2.4409689609164E-01
    54  5.3000000000000E-01  6.7894732575230E-01 -2.3789326465429E-01
    55  5.4000000000000E-01  6.9112675894669E-01 -2.3113294957096E-01
    56  5.5000000000000E-01  7.0299850554104E-01 -2.2384984501346E-01
    57  5.6000000000000E-01  7.1457101900856E-01 -2.1608041366841E-01
    58  5.7000000000000E-01  7.2585429677377E-01 -2.0786346991112E-01
    59  5.8000000000000E-01  7.3685976550969E-01 -1.9923994813518E-01
    60  5.9000000000000E-01  7.4760015794403E-01 -1.9025265738872E-01
    61  6.0000000000000E-01  7.5808938180397E-01 -1.8094602355304E-01
    62  6.1000000000000E-01  7.6834238157571E-01 -1.7136582037845E-01
    63  6.2000000000000E-01  7.7837499379823E-01 -1.6155889076534E-01
    64  6.3000000000000E-01  7.8820379665042E-01 -1.5157285974527E-01
    65  6.4000000000000E-01  7.9784595462773E-01 -1.4145584067670E-01
    66  6.5000000000000E-01  8.0731905913722E-01 -1.3125613622251E-01
    67  6.6000000000000E-01  8.1664096586848E-01 -1.2102193572121E-01
    68  6.7000000000000E-01  8.2582962982337E-01 -1.1080101060100E-01
    69  6.8000000000000E-01  8.3490293890736E-01 -1.0064040951378E-01
    70  6.9000000000000E-01  8.4387854700174E-01 -9.0586154886915E-02
    71  7.0000000000000E-01  8.5277370744736E-01 -8.0682942601159E-02
    72  7.1000000000000E-01  8.6160510787708E-01 -7.0973846505789E-02
    73  7.2000000000000E-01  8.7038870733629E-01 -6.1500029474912E-02
    74  7.3000000000000E-01  8.7913957662790E-01 -5.2300462692979E-02
    75  7.4000000000000E-01  8.8787174281001E-01 -4.3411654832144E-02
    76  7.5000000000000E-01  8.9659803876208E-01 -3.4867392749723E-02
    77  7.6000000000000E-01  9.0532995871734E-01 -2.6698495290185E-02
    78  7.7000000000000E-01  9.1407752063659E-01 -1.8932581723507E-02
    79  7.8000000000000E-01  9.2284913627096E-01 -1.1593856289976E-02
    80  7.9000000000000E-01  9.3165148972892E-01 -4.7029102512499E-03
    81  8.0000000000000E-01  9.4048942532576E-01  1.7234572313035E-03