Sn    ONCVPSP-4.0.1  r_core=   2.26172   2.61090   1.85654
     50.0000     14.0000      250217    zatom,zion,pspd
     8       2   2     4   600     0    pspcod,pspxc,lmax,lloc,mmax,r2well
  5.99000000  6.50000000  0.00000000    rchrg fchrg qchrg
     2     2     2     0    nproj
     3     1           extension_switch
     4     3     0    nprojso
   0                         5.5391446879376E+00  7.1058680210593E-01
     1  0.0000000000000E+00 -5.9758031856205E-12  1.2066984564352E-11
     2  1.0000000000000E-02  1.6747552063127E-02 -9.5996868844933E-04
     3  2.0000000000000E-02  3.3492205343955E-02 -1.9313569348236E-03
     4  3.0000000000000E-02  5.0231086670360E-02 -2.9255824377715E-03
     5  4.0000000000000E-02  6.6961373845897E-02 -3.9540588311015E-03
     6  5.0000000000000E-02  8.3680320527453E-02 -5.0281927886980E-03
     7  6.0000000000000E-02  1.0038528037491E-01 -6.1593801028052E-03
     8  7.0000000000000E-02  1.1707373023719E-01 -7.3590004076587E-03
     9  8.0000000000000E-02  1.3374329214494E-01 -8.6384102325112E-03
    10  9.0000000000000E-02  1.5039175388768E-01 -1.0008934083053E-02
    11  1.0000000000000E-01  1.6701708796190E-01 -1.1481853267884E-02
    12  1.1000000000000E-01  1.8361746868681E-01 -1.3068392207141E-02
    13  1.2000000000000E-01  2.0019128729585E-01 -1.4779701983249E-02
    14  1.3000000000000E-01  2.1673716482490E-01 -1.6626840919138E-02
    15  1.4000000000000E-01  2.3325396263189E-01 -1.8620751996746E-02
    16  1.5000000000000E-01  2.4974079039749E-01 -2.0772236958324E-02
    17  1.6000000000000E-01  2.6619701147264E-01 -2.3091926964489E-02
    18  1.7000000000000E-01  2.8262224545567E-01 -2.5590249716138E-02
    19  1.8000000000000E-01  2.9901636789945E-01 -2.8277392981999E-02
    20  1.9000000000000E-01  3.1537950706772E-01 -3.1163264509304E-02
    21  2.0000000000000E-01  3.3171203767893E-01 -3.4257448332126E-02
    22  2.1000000000000E-01  3.4801457159577E-01 -3.7569157529230E-02
    23  2.2000000000000E-01  3.6428794543886E-01 -4.1107183521742E-02
    24  2.3000000000000E-01  3.8053320512366E-01 -4.4879842038922E-02
    25  2.4000000000000E-01  3.9675158734051E-01 -4.8894915918879E-02
    26  2.5000000000000E-01  4.1294449801889E-01 -5.3159594949160E-02
    27  2.6000000000000E-01  4.2911348783769E-01 -5.7680412989459E-02
    28  2.7000000000000E-01  4.4526022486455E-01 -6.2463182655677E-02
    29  2.8000000000000E-01  4.6138646442761E-01 -6.7512927879920E-02
    30  2.9000000000000E-01  4.7749401634392E-01 -7.2833814695716E-02
    31  3.0000000000000E-01  4.9358470964804E-01 -7.8429080630012E-02
    32  3.1000000000000E-01  5.0966035498419E-01 -8.4300963114975E-02
    33  3.2000000000000E-01  5.2572270484379E-01 -9.0450627360907E-02
    34  3.3000000000000E-01  5.4177341184800E-01 -9.6878094158607E-02
    35  3.4000000000000E-01  5.5781398529217E-01 -1.0358216810317E-01
    36  3.5000000000000E-01  5.7384574618470E-01 -1.1056036675266E-01
    37  3.6000000000000E-01  5.8986978102800E-01 -1.1780885125345E-01
    38  3.7000000000000E-01  6.0588689460279E-01 -1.2532235897915E-01
    39  3.8000000000000E-01  6.2189756202943E-01 -1.3309413874191E-01
    40  3.9000000000000E-01  6.3790188039103E-01 -1.4111588914385E-01
    41  4.0000000000000E-01  6.5389952021246E-01 -1.4937770064043E-01
    42  4.1000000000000E-01  6.6988967709790E-01 -1.5786800188994E-01
    43  4.2000000000000E-01  6.8587102383557E-01 -1.6657351095977E-01
    44  4.3000000000000E-01  7.0184166328336E-01 -1.7547919195444E-01
    45  4.4000000000000E-01  7.1779908235229E-01 -1.8456821761996E-01
    46  4.5000000000000E-01  7.3374010740596E-01 -1.9382193846474E-01
    47  4.6000000000000E-01  7.4966086139386E-01 -2.0321985891948E-01
    48  4.7000000000000E-01  7.6555672303444E-01 -2.1273962103650E-01
    49  4.8000000000000E-01  7.8142228835951E-01 -2.2235699620285E-01
    50  4.9000000000000E-01  7.9725133492633E-01 -2.3204588531239E-01
    51  5.0000000000000E-01  8.1303678899555E-01 -2.4177832780840E-01
    52  5.1000000000000E-01  8.2877069596442E-01 -2.5152451997149E-01
    53  5.2000000000000E-01  8.4444419433307E-01 -2.6125284278750E-01
    54  5.3000000000000E-01  8.6004749346917E-01 -2.7092989968611E-01
    55  5.4000000000000E-01  8.7556985542149E-01 -2.8052056439455E-01
    56  5.5000000000000E-01  8.9099958101681E-01 -2.8998803910111E-01
    57  5.6000000000000E-01  9.0632400045684E-01 -2.9929392307094E-01
    58  5.7000000000000E-01  9.2152946861254E-01 -3.0839829180209E-01
    59  5.8000000000000E-01  9.3660136519250E-01 -3.1725978675290E-01
    60  5.9000000000000E-01  9.5152409994002E-01 -3.2583571561345E-01
    61  6.0000000000000E-01  9.6628112299037E-01 -3.3408216303338E-01
    62  6.1000000000000E-01  9.8085494049509E-01 -3.4195411165739E-01
    63  6.2000000000000E-01  9.9522713559489E-01 -3.4940557325706E-01
    64  6.3000000000000E-01  1.0093783947965E+00 -3.5638972968538E-01
    65  6.4000000000000E-01  1.0232885397816E+00 -3.6285908331674E-01
    66  6.5000000000000E-01  1.0369365646477E+00 -3.6876561657301E-01
    67  6.6000000000000E-01  1.0503006785543E+00 -3.7406096007373E-01
    68  6.7000000000000E-01  1.0633583537166E+00 -3.7869656888678E-01
    69  6.8000000000000E-01  1.0760863786625E+00 -3.8262390629670E-01
    70  6.9000000000000E-01  1.0884609166379E+00 -3.8579463444862E-01
    71  7.0000000000000E-01  1.1004575690191E+00 -3.8816081116998E-01
    72  7.1000000000000E-01  1.1120514435580E+00 -3.8967509221800E-01
    73  7.2000000000000E-01  1.1232172272645E+00 -3.9029093815000E-01
    74  7.3000000000000E-01  1.1339292636950E+00 -3.8996282496555E-01
    75  7.4000000000000E-01  1.1441616343966E+00 -3.8864645762494E-01
    76  7.5000000000000E-01  1.1538882442243E+00 -3.8629898550791E-01
    77  7.6000000000000E-01  1.1630829102289E+00 -3.8287921884002E-01
    78  7.7000000000000E-01  1.1717194537844E+00 -3.7834784508170E-01
    79  7.8000000000000E-01  1.1797717956060E+00 -3.7266764424814E-01
    80  7.9000000000000E-01  1.1872140532851E+00 -3.6580370210524E-01
    81  8.0000000000000E-01  1.1940206409503E+00 -3.5772362016980E-01
    82  8.1000000000000E-01  1.2001663706445E+00 -3.4839772143065E-01
    83  8.2000000000000E-01  1.2056265549934E+00 -3.3779925070051E-01
    84  8.3000000000000E-01  1.2103771107250E+00 -3.2590456850855E-01
    85  8.4000000000000E-01  1.2143946625897E+00 -3.1269333744870E-01
    86  8.5000000000000E-01  1.2176566472188E+00 -2.9814869991000E-01
    87  8.6000000000000E-01  1.2201414164528E+00 -2.8225744613273E-01
    88  8.7000000000000E-01  1.2218283396654E+00 -2.6501017155769E-01
    89  8.8000000000000E-01  1.2226979046045E+00 -2.4640142246475E-01
    90  8.9000000000000E-01  1.2227318162736E+00 -2.2642982893292E-01
    91  9.0000000000000E-01  1.2219130933746E+00 -2.0509822419472E-01
    92  9.1000000000000E-01  1.2202261618425E+00 -1.8241374950545E-01
    93  9.2000000000000E-01  1.2176569450028E+00 -1.5838794369987E-01
    94  9.3000000000000E-01  1.2141929498967E+00 -1.3303681666739E-01
    95  9.4000000000000E-01  1.2098233493274E+00 -1.0638090604029E-01
    96  9.5000000000000E-01  1.2045390591956E+00 -7.8445316457442E-02
    97  9.6000000000000E-01  1.1983328107079E+00 -4.9259740839048E-02
    98  9.7000000000000E-01  1.1911992170606E+00 -1.8858463185803E-02
    99  9.8000000000000E-01  1.1831348342219E+00  1.2719657503422E-02
   100  9.9000000000000E-01  1.1741382154573E+00  4.5431222515870E-02
   101  1.0000000000000E+00  1.1642099592686E+00  7.9228348143534E-02
   102  1.0100000000000E+00  1.1533527504427E+00  1.1405873997731E-01
   103  1.0200000000000E+00  1.1415713939354E+00  1.4986578682468E-01
   104  1.0300000000000E+00  1.1288728413449E+00  1.8658867420324E-01
   105  1.0400000000000E+00  1.1152662097609E+00  2.2416251726644E-01
   106  1.0500000000000E+00  1.1007627928094E+00  2.6251851291939E-01
   107  1.0600000000000E+00  1.0853760637456E+00  3.0158411078536E-01
   108  1.0700000000000E+00  1.0691216704831E+00  3.4128320258584E-01
   109  1.0800000000000E+00  1.0520174224849E+00  3.8153632939938E-01
   110  1.0900000000000E+00  1.0340832694758E+00  4.2226090616940E-01
   111  1.1000000000000E+00  1.0153412719748E+00  4.6337146273660E-01
   112  1.1100000000000E+00  9.9581556368377E-01  5.0477990058002E-01
   113  1.1200000000000E+00  9.7553230580407E-01  5.4639576436214E-01
   114  1.1300000000000E+00  9.5451963339291E-01  5.8812652728765E-01
   115  1.1400000000000E+00  9.3280759390689E-01  6.2987788920415E-01
   116  1.1500000000000E+00  9.1042807811721E-01  6.7155408629577E-01
   117  1.1600000000000E+00  8.8741474361730E-01  7.1305821114823E-01
   118  1.1700000000000E+00  8.6380293117881E-01  7.5429254189709E-01
   119  1.1800000000000E+00  8.3962957424600E-01  7.9515887910921E-01
   120  1.1900000000000E+00  8.1493310189153E-01  8.3555888899304E-01
   121  1.2000000000000E+00  7.8975333558828E-01  8.7539445148367E-01
   122  1.2100000000000E+00  7.6413138018189E-01  9.1456801170786E-01
   123  1.2200000000000E+00  7.3810950947669E-01  9.5298293329899E-01
   124  1.2300000000000E+00  7.1173104687436E-01  9.9054385200492E-01
   125  1.2400000000000E+00  6.8504024152887E-01  1.0271570280121E+00
   126  1.2500000000000E+00  6.5808214050331E-01  1.0627306953981E+00
   127  1.2600000000000E+00  6.3090245743434E-01  1.0971754071199E+00
   128  1.2700000000000E+00  6.0354743822724E-01  1.1304043739511E+00
   129  1.2800000000000E+00  5.7606372431980E-01  1.1623337957935E+00
   130  1.2900000000000E+00  5.4849821406544E-01  1.1928831838062E+00
   131  1.3000000000000E+00  5.2089792279596E-01  1.2219756718312E+00
   132  1.3100000000000E+00  4.9330984213130E-01  1.2495383156218E+00
   133  1.3200000000000E+00  4.6578079910815E-01  1.2755023784341E+00
   134  1.3300000000000E+00  4.3835731570066E-01  1.2998036015869E+00
   135  1.3400000000000E+00  4.1108546930570E-01  1.3223824586607E+00
   136  1.3500000000000E+00  3.8401075476073E-01  1.3431843920698E+00
   137  1.3600000000000E+00  3.5717794845616E-01  1.3621600308176E+00
   138  1.3700000000000E+00  3.3063097509438E-01  1.3792653883254E+00
   139  1.3800000000000E+00  3.0441277763592E-01  1.3944620393112E+00
   140  1.3900000000000E+00  2.7856519095837E-01  1.4077172747885E+00
   141  1.4000000000000E+00  2.5312881973692E-01  1.4190042343512E+00
   142  1.4100000000000E+00  2.2814292103563E-01  1.4283020150149E+00
   143  1.4200000000000E+00  2.0364529207720E-01  1.4355957559912E+00
   144  1.4300000000000E+00  1.7967216363445E-01  1.4408766988801E+00
   145  1.4400000000000E+00  1.5625809946170E-01  1.4441422228821E+00
   146  1.4500000000000E+00  1.3343590215551E-01  1.4453958547445E+00
   147  1.4600000000000E+00  1.1123652580525E-01  1.4446472532768E+00
   148  1.4700000000000E+00  8.9688995762748E-02  1.4419121683858E+00
   149  1.4800000000000E+00  6.8820335827625E-02  1.4372123747035E+00
   150  1.4900000000000E+00  4.8655503111277E-02  1.4305755799992E+00
   151  1.5000000000000E+00  2.9217330807894E-02  1.4220353086834E+00
   152  1.5100000000000E+00  1.0526479064980E-02  1.4116307608328E+00
   153  1.5200000000000E+00 -7.3986058899863E-03  1.3994066472755E+00
   154  1.5300000000000E+00 -2.4541724247087E-02  1.3854130013933E+00
   155  1.5400000000000E+00 -4.0888946652692E-02  1.3697049684007E+00
   156  1.5500000000000E+00 -5.6428629743324E-02  1.3523425729715E+00
   157  1.5600000000000E+00 -7.1151423165626E-02  1.3333904661791E+00
   158  1.5700000000000E+00 -8.5050268109393E-02  1.3129176528158E+00
   159  1.5800000000000E+00 -9.8120387416828E-02  1.2909972002424E+00
   160  1.5900000000000E+00 -1.1035926736620E-01  1.2677059300066E+00
   161  1.6000000000000E+00 -1.2176663126221E-01  1.2431240935430E+00
   162  1.6100000000000E+00 -1.3234440499862E-01  1.2173350333373E+00
   163  1.6200000000000E+00 -1.4209667479047E-01  1.1904248310016E+00
   164  1.6300000000000E+00 -1.5102963730360E-01  1.1624819437602E+00
   165  1.6400000000000E+00 -1.5915154243822E-01  1.1335968308924E+00
   166  1.6500000000000E+00 -1.6647262905014E-01  1.1038615717178E+00
   167  1.6600000000000E+00 -1.7300505391897E-01  1.0733694767376E+00
   168  1.6700000000000E+00 -1.7876281429554E-01  1.0422146935668E+00
   169  1.6800000000000E+00 -1.8376166438244E-01  1.0104918093056E+00
   170  1.6900000000000E+00 -1.8801902612070E-01  9.7829545099815E-01
   171  1.7000000000000E+00 -1.9155389467235E-01  9.4571988582603E-01
   172  1.7100000000000E+00 -1.9438673900370E-01  9.1285862266358E-01
   173  1.7200000000000E+00 -1.9653939798626E-01  8.7980401660426E-01
   174  1.7300000000000E+00 -1.9803497244227E-01  8.4664687803213E-01
   175  1.7400000000000E+00 -1.9889771356978E-01  8.1347608777420E-01
   176  1.7500000000000E+00 -1.9915290818701E-01  7.8037821982075E-01
   177  1.7600000000000E+00 -1.9882676123933E-01  7.4743717304537E-01
   178  1.7700000000000E+00 -1.9794627601214E-01  7.1473381329303E-01
   179  1.7800000000000E+00 -1.9653913249199E-01  6.8234562713481E-01
   180  1.7900000000000E+00 -1.9463356431378E-01  6.5034638851087E-01
   181  1.8000000000000E+00 -1.9225823472638E-01  6.1880583940140E-01
   182  1.8100000000000E+00 -1.8944211200071E-01  5.8778938557649E-01
   183  1.8200000000000E+00 -1.8621434469408E-01  5.5735780838326E-01
   184  1.8300000000000E+00 -1.8260413713608E-01  5.2756699314493E-01
   185  1.8400000000000E+00 -1.7864062552402E-01  4.9846767506096E-01
   186  1.8500000000000E+00 -1.7435275701659E-01  4.7010521794294E-01
   187  1.8600000000000E+00 -1.6976916047632E-01  4.4251933808811E-01
   188  1.8700000000000E+00 -1.6491807823493E-01  4.1574430373293E-01
   189  1.8800000000000E+00 -1.5982739329323E-01  3.8980980143181E-01
   190  1.8900000000000E+00 -1.5452464364280E-01  3.6474157354622E-01
   191  1.9000000000000E+00 -1.4903695780100E-01  3.4056139456590E-01
   192  1.9100000000000E+00 -1.4339099998244E-01  3.1728711795328E-01
   193  1.9200000000000E+00 -1.3761291742575E-01  2.9493272946776E-01
   194  1.9300000000000E+00 -1.3172829149139E-01  2.7350841985631E-01
   195  1.9400000000000E+00 -1.2576209249095E-01  2.5302067557956E-01
   196  1.9500000000000E+00 -1.1973863825219E-01  2.3347238680083E-01
   197  1.9600000000000E+00 -1.1368155640120E-01  2.1486297178010E-01
   198  1.9700000000000E+00 -1.0761375032235E-01  1.9718851674265E-01
   199  1.9800000000000E+00 -1.0155736873420E-01  1.8044193021002E-01
   200  1.9900000000000E+00 -9.5533778799659E-02  1.6461311070787E-01
   201  2.0000000000000E+00 -8.9563542668079E-02  1.4968912669492E-01
   202  2.0100000000000E+00 -8.3666397328898E-02  1.3565440749522E-01
   203  2.0200000000000E+00 -7.7861237639086E-02  1.2249094396159E-01
   204  2.0300000000000E+00 -7.2166102371082E-02  1.1017849754962E-01
   205  2.0400000000000E+00 -6.6598163113487E-02  9.8694816441304E-02
   206  2.0500000000000E+00 -6.1173715844287E-02  8.8015857325214E-02
   207  2.0600000000000E+00 -5.5908174985434E-02  7.8116011414849E-02
   208  2.0700000000000E+00 -5.0816069737992E-02  6.8968333270062E-02
   209  2.0800000000000E+00 -4.5911042489914E-02  6.0544770978396E-02
   210  2.0900000000000E+00 -4.1205849082591E-02  5.2816396252237E-02
   211  2.1000000000000E+00 -3.6712360718466E-02  4.5753633007140E-02
   212  2.1100000000000E+00 -3.2441565980687E-02  3.9326479593180E-02
   213  2.1200000000000E+00 -2.8403583804437E-02  3.3504752064024E-02
   214  2.1300000000000E+00 -2.4607647017743E-02  2.8258242591044E-02
   215  2.1400000000000E+00 -2.1062135959391E-02  2.3556999155750E-02
   216  2.1500000000000E+00 -1.7774654484319E-02  1.9371706289642E-02
   217  2.1600000000000E+00 -1.4753059995367E-02  1.5676534205723E-02
   218  2.1700000000000E+00 -1.2004003550312E-02  1.2445502818912E-02
   219  2.1800000000000E+00 -9.5319506861037E-03  9.6500867962600E-03
   220  2.1900000000000E+00 -7.3406540702778E-03  7.2631859593930E-03
   221  2.2000000000000E+00 -5.4329997164543E-03  5.2588465071230E-03
   222  2.2100000000000E+00 -3.8110541840074E-03  3.6124931873039E-03
   223  2.2200000000000E+00 -2.4760812117188E-03  2.3010687406916E-03
   224  2.2300000000000E+00 -1.4291207463388E-03  1.3036503760266E-03
   225  2.2400000000000E+00 -6.6509333891120E-04  5.9648878949516E-04
   226  2.2500000000000E+00 -1.9748258583671E-04  1.7435272623889E-04
   227  2.2600000000000E+00 -1.1593144862347E-05  1.0209778563292E-05
   228  2.2700000000000E+00  1.0029006423774E-05 -8.5828363044526E-06
   229  2.2800000000000E+00 -3.6212419670843E-06  3.1382511642446E-06
   230  2.29  0.  0.
   231  2.30  0.  0.
   232  2.31  0.  0.
   233  2.32  0.  0.
   234  2.33  0.  0.
   235  2.34  0.  0.
   236  2.35  0.  0.
   237  2.36  0.  0.
   238  2.37  0.  0.
   239  2.38  0.  0.
   240  2.39  0.  0.
   241  2.40  0.  0.
   242  2.41  0.  0.
   243  2.42  0.  0.
   244  2.43  0.  0.
   245  2.44  0.  0.
   246  2.45  0.  0.
   247  2.46  0.  0.
   248  2.47  0.  0.
   249  2.48  0.  0.
   250  2.49  0.  0.
   251  2.50  0.  0.
   252  2.51  0.  0.
   253  2.52  0.  0.
   254  2.53  0.  0.
   255  2.54  0.  0.
   256  2.55  0.  0.
   257  2.56  0.  0.
   258  2.57  0.  0.
   259  2.58  0.  0.
   260  2.59  0.  0.
   261  2.60  0.  0.
   262  2.61  0.  0.
   263  2.62  0.  0.
   264  2.63  0.  0.
   265  2.64  0.  0.
   266  2.65  0.  0.
   267  2.66  0.  0.
   268  2.67  0.  0.
   269  2.68  0.  0.
   270  2.69  0.  0.
   271  2.70  0.  0.
   272  2.71  0.  0.
   273  2.72  0.  0.
   274  2.73  0.  0.
   275  2.74  0.  0.
   276  2.75  0.  0.
   277  2.76  0.  0.
   278  2.77  0.  0.
   279  2.78  0.  0.
   280  2.79  0.  0.
   281  2.80  0.  0.
   282  2.81  0.  0.
   283  2.82  0.  0.
   284  2.83  0.  0.
   285  2.84  0.  0.
   286  2.85  0.  0.
   287  2.86  0.  0.
   288  2.87  0.  0.
   289  2.88  0.  0.
   290  2.89  0.  0.
   291  2.90  0.  0.
   292  2.91  0.  0.
   293  2.92  0.  0.
   294  2.93  0.  0.
   295  2.94  0.  0.
   296  2.95  0.  0.
   297  2.96  0.  0.
   298  2.97  0.  0.
   299  2.98  0.  0.
   300  2.99  0.  0.
   301  3.00  0.  0.
   302  3.01  0.  0.
   303  3.02  0.  0.
   304  3.03  0.  0.
   305  3.04  0.  0.
   306  3.05  0.  0.
   307  3.06  0.  0.
   308  3.07  0.  0.
   309  3.08  0.  0.
   310  3.09  0.  0.
   311  3.10  0.  0.
   312  3.11  0.  0.
   313  3.12  0.  0.
   314  3.13  0.  0.
   315  3.14  0.  0.
   316  3.15  0.  0.
   317  3.16  0.  0.
   318  3.17  0.  0.
   319  3.18  0.  0.
   320  3.19  0.  0.
   321  3.20  0.  0.
   322  3.21  0.  0.
   323  3.22  0.  0.
   324  3.23  0.  0.
   325  3.24  0.  0.
   326  3.25  0.  0.
   327  3.26  0.  0.
   328  3.27  0.  0.
   329  3.28  0.  0.
   330  3.29  0.  0.
   331  3.30  0.  0.
   332  3.31  0.  0.
   333  3.32  0.  0.
   334  3.33  0.  0.
   335  3.34  0.  0.
   336  3.35  0.  0.
   337  3.36  0.  0.
   338  3.37  0.  0.
   339  3.38  0.  0.
   340  3.39  0.  0.
   341  3.40  0.  0.
   342  3.41  0.  0.
   343  3.42  0.  0.
   344  3.43  0.  0.
   345  3.44  0.  0.
   346  3.45  0.  0.
   347  3.46  0.  0.
   348  3.47  0.  0.
   349  3.48  0.  0.
   350  3.49  0.  0.
   351  3.50  0.  0.
   352  3.51  0.  0.
   353  3.52  0.  0.
   354  3.53  0.  0.
   355  3.54  0.  0.
   356  3.55  0.  0.
   357  3.56  0.  0.
   358  3.57  0.  0.
   359  3.58  0.  0.
   360  3.59  0.  0.
   361  3.60  0.  0.
   362  3.61  0.  0.
   363  3.62  0.  0.
   364  3.63  0.  0.
   365  3.64  0.  0.
   366  3.65  0.  0.
   367  3.66  0.  0.
   368  3.67  0.  0.
   369  3.68  0.  0.
   370  3.69  0.  0.
   371  3.70  0.  0.
   372  3.71  0.  0.
   373  3.72  0.  0.
   374  3.73  0.  0.
   375  3.74  0.  0.
   376  3.75  0.  0.
   377  3.76  0.  0.
   378  3.77  0.  0.
   379  3.78  0.  0.
   380  3.79  0.  0.
   381  3.80  0.  0.
   382  3.81  0.  0.
   383  3.82  0.  0.
   384  3.83  0.  0.
   385  3.84  0.  0.
   386  3.85  0.  0.
   387  3.86  0.  0.
   388  3.87  0.  0.
   389  3.88  0.  0.
   390  3.89  0.  0.
   391  3.90  0.  0.
   392  3.91  0.  0.
   393  3.92  0.  0.
   394  3.93  0.  0.
   395  3.94  0.  0.
   396  3.95  0.  0.
   397  3.96  0.  0.
   398  3.97  0.  0.
   399  3.98  0.  0.
   400  3.99  0.  0.
   401  4.00  0.  0.
   402  4.01  0.  0.
   403  4.02  0.  0.
   404  4.03  0.  0.
   405  4.04  0.  0.
   406  4.05  0.  0.
   407  4.06  0.  0.
   408  4.07  0.  0.
   409  4.08  0.  0.
   410  4.09  0.  0.
   411  4.10  0.  0.
   412  4.11  0.  0.
   413  4.12  0.  0.
   414  4.13  0.  0.
   415  4.14  0.  0.
   416  4.15  0.  0.
   417  4.16  0.  0.
   418  4.17  0.  0.
   419  4.18  0.  0.
   420  4.19  0.  0.
   421  4.20  0.  0.
   422  4.21  0.  0.
   423  4.22  0.  0.
   424  4.23  0.  0.
   425  4.24  0.  0.
   426  4.25  0.  0.
   427  4.26  0.  0.
   428  4.27  0.  0.
   429  4.28  0.  0.
   430  4.29  0.  0.
   431  4.30  0.  0.
   432  4.31  0.  0.
   433  4.32  0.  0.
   434  4.33  0.  0.
   435  4.34  0.  0.
   436  4.35  0.  0.
   437  4.36  0.  0.
   438  4.37  0.  0.
   439  4.38  0.  0.
   440  4.39  0.  0.
   441  4.40  0.  0.
   442  4.41  0.  0.
   443  4.42  0.  0.
   444  4.43  0.  0.
   445  4.44  0.  0.
   446  4.45  0.  0.
   447  4.46  0.  0.
   448  4.47  0.  0.
   449  4.48  0.  0.
   450  4.49  0.  0.
   451  4.50  0.  0.
   452  4.51  0.  0.
   453  4.52  0.  0.
   454  4.53  0.  0.
   455  4.54  0.  0.
   456  4.55  0.  0.
   457  4.56  0.  0.
   458  4.57  0.  0.
   459  4.58  0.  0.
   460  4.59  0.  0.
   461  4.60  0.  0.
   462  4.61  0.  0.
   463  4.62  0.  0.
   464  4.63  0.  0.
   465  4.64  0.  0.
   466  4.65  0.  0.
   467  4.66  0.  0.
   468  4.67  0.  0.
   469  4.68  0.  0.
   470  4.69  0.  0.
   471  4.70  0.  0.
   472  4.71  0.  0.
   473  4.72  0.  0.
   474  4.73  0.  0.
   475  4.74  0.  0.
   476  4.75  0.  0.
   477  4.76  0.  0.
   478  4.77  0.  0.
   479  4.78  0.  0.
   480  4.79  0.  0.
   481  4.80  0.  0.
   482  4.81  0.  0.
   483  4.82  0.  0.
   484  4.83  0.  0.
   485  4.84  0.  0.
   486  4.85  0.  0.
   487  4.86  0.  0.
   488  4.87  0.  0.
   489  4.88  0.  0.
   490  4.89  0.  0.
   491  4.90  0.  0.
   492  4.91  0.  0.
   493  4.92  0.  0.
   494  4.93  0.  0.
   495  4.94  0.  0.
   496  4.95  0.  0.
   497  4.96  0.  0.
   498  4.97  0.  0.
   499  4.98  0.  0.
   500  4.99  0.  0.
   501  5.00  0.  0.
   502  5.01  0.  0.
   503  5.02  0.  0.
   504  5.03  0.  0.
   505  5.04  0.  0.
   506  5.05  0.  0.
   507  5.06  0.  0.
   508  5.07  0.  0.
   509  5.08  0.  0.
   510  5.09  0.  0.
   511  5.10  0.  0.
   512  5.11  0.  0.
   513  5.12  0.  0.
   514  5.13  0.  0.
   515  5.14  0.  0.
   516  5.15  0.  0.
   517  5.16  0.  0.
   518  5.17  0.  0.
   519  5.18  0.  0.
   520  5.19  0.  0.
   521  5.20  0.  0.
   522  5.21  0.  0.
   523  5.22  0.  0.
   524  5.23  0.  0.
   525  5.24  0.  0.
   526  5.25  0.  0.
   527  5.26  0.  0.
   528  5.27  0.  0.
   529  5.28  0.  0.
   530  5.29  0.  0.
   531  5.30  0.  0.
   532  5.31  0.  0.
   533  5.32  0.  0.
   534  5.33  0.  0.
   535  5.34  0.  0.
   536  5.35  0.  0.
   537  5.36  0.  0.
   538  5.37  0.  0.
   539  5.38  0.  0.
   540  5.39  0.  0.
   541  5.40  0.  0.
   542  5.41  0.  0.
   543  5.42  0.  0.
   544  5.43  0.  0.
   545  5.44  0.  0.
   546  5.45  0.  0.
   547  5.46  0.  0.
   548  5.47  0.  0.
   549  5.48  0.  0.
   550  5.49  0.  0.
   551  5.50  0.  0.
   552  5.51  0.  0.
   553  5.52  0.  0.
   554  5.53  0.  0.
   555  5.54  0.  0.
   556  5.55  0.  0.
   557  5.56  0.  0.
   558  5.57  0.  0.
   559  5.58  0.  0.
   560  5.59  0.  0.
   561  5.60  0.  0.
   562  5.61  0.  0.
   563  5.62  0.  0.
   564  5.63  0.  0.
   565  5.64  0.  0.
   566  5.65  0.  0.
   567  5.66  0.  0.
   568  5.67  0.  0.
   569  5.68  0.  0.
   570  5.69  0.  0.
   571  5.70  0.  0.
   572  5.71  0.  0.
   573  5.72  0.  0.
   574  5.73  0.  0.
   575  5.74  0.  0.
   576  5.75  0.  0.
   577  5.76  0.  0.
   578  5.77  0.  0.
   579  5.78  0.  0.
   580  5.79  0.  0.
   581  5.80  0.  0.
   582  5.81  0.  0.
   583  5.82  0.  0.
   584  5.83  0.  0.
   585  5.84  0.  0.
   586  5.85  0.  0.
   587  5.86  0.  0.
   588  5.87  0.  0.
   589  5.88  0.  0.
   590  5.89  0.  0.
   591  5.90  0.  0.
   592  5.91  0.  0.
   593  5.92  0.  0.
   594  5.93  0.  0.
   595  5.94  0.  0.
   596  5.95  0.  0.
   597  5.96  0.  0.
   598  5.97  0.  0.
   599  5.98  0.  0.
   600  5.99  0.  0.
   1                         4.0302919602306E+00  6.5661814510013E-01
     1  0.0000000000000E+00  5.0517996036392E-11 -9.2196299206204E-11
     2  1.0000000000000E-02  4.4156009733448E-04 -3.5624697057363E-04
     3  2.0000000000000E-02  1.7649723112320E-03 -1.4231296783169E-03
     4  3.0000000000000E-02  3.9664379800040E-03 -3.1950830923193E-03
     5  4.0000000000000E-02  7.0396445500967E-03 -5.6628640499661E-03
     6  5.0000000000000E-02  1.0975793308500E-02 -8.8135989230465E-03
     7  6.0000000000000E-02  1.5763638025566E-02 -1.2630850016609E-02
     8  7.0000000000000E-02  2.1389534326632E-02 -1.7094700368664E-02
     9  8.0000000000000E-02  2.7837499560319E-02 -2.2181856526635E-02
    10  9.0000000000000E-02  3.5089282881825E-02 -2.7865768786102E-02
    11  1.0000000000000E-01  4.3124445221294E-02 -3.4116768289464E-02
    12  1.1000000000000E-01  5.1920448760398E-02 -4.0902220296883E-02
    13  1.2000000000000E-01  6.1452755495150E-02 -4.8186692859848E-02
    14  1.3000000000000E-01  7.1694934419523E-02 -5.5932140049062E-02
    15  1.4000000000000E-01  8.2618776823178E-02 -6.4098098813793E-02
    16  1.5000000000000E-01  9.4194419157492E-02 -7.2641898479323E-02
    17  1.6000000000000E-01  1.0639047288740E-01 -8.1518881823376E-02
    18  1.7000000000000E-01  1.1917416071247E-01 -9.0682636611426E-02
    19  1.8000000000000E-01  1.3251145850922E-01 -1.0008523641512E-01
    20  1.9000000000000E-01  1.4636724231837E-01 -1.0967748948779E-01
    21  2.0000000000000E-01  1.6070543967502E-01 -1.1940919442659E-01
    22  2.1000000000000E-01  1.7548918455776E-01 -1.2922940131219E-01
    23  2.2000000000000E-01  1.9068097521353E-01 -1.3908667698493E-01
    24  2.3000000000000E-01  2.0624283409943E-01 -1.4892937308996E-01
    25  2.4000000000000E-01  2.2213646917070E-01 -1.5870589550506E-01
    26  2.5000000000000E-01  2.3832343573523E-01 -1.6836497375167E-01
    27  2.6000000000000E-01  2.5476529809017E-01 -1.7785592898406E-01
    28  2.7000000000000E-01  2.7142379015478E-01 -1.8712893915218E-01
    29  2.8000000000000E-01  2.8826097431602E-01 -1.9613529994207E-01
    30  2.9000000000000E-01  3.0523939770932E-01 -2.0482768011180E-01
    31  3.0000000000000E-01  3.2232224516701E-01 -2.1316036986312E-01
    32  3.1000000000000E-01  3.3947348807998E-01 -2.2108952091730E-01
    33  3.2000000000000E-01  3.5665802843536E-01 -2.2857337699877E-01
    34  3.3000000000000E-01  3.7384183731400E-01 -2.3557249347244E-01
    35  3.4000000000000E-01  3.9099208715514E-01 -2.4204994492879E-01
    36  3.5000000000000E-01  4.0807727712416E-01 -2.4797151956581E-01
    37  3.6000000000000E-01  4.2506735094961E-01 -2.5330589927778E-01
    38  3.7000000000000E-01  4.4193380663075E-01 -2.5802482442784E-01
    39  3.8000000000000E-01  4.5864979745367E-01 -2.6210324235377E-01
    40  3.9000000000000E-01  4.7519022379497E-01 -2.6551943873442E-01
    41  4.0000000000000E-01  4.9153181523496E-01 -2.6825515102707E-01
    42  4.1000000000000E-01  5.0765320254836E-01 -2.7029566327363E-01
    43  4.2000000000000E-01  5.2353497918872E-01 -2.7162988166560E-01
    44  4.3000000000000E-01  5.3915975193345E-01 -2.7225039035342E-01
    45  4.4000000000000E-01  5.5451218040912E-01 -2.7215348708521E-01
    46  4.5000000000000E-01  5.6957900527064E-01 -2.7133919836208E-01
    47  4.6000000000000E-01  5.8434906486455E-01 -2.6981127390220E-01
    48  4.7000000000000E-01  5.9881330026352E-01 -2.6757716031264E-01
    49  4.8000000000000E-01  6.1296474861749E-01 -2.6464795397636E-01
    50  4.9000000000000E-01  6.2679852482639E-01 -2.6103833327135E-01
    51  5.0000000000000E-01  6.4031179159843E-01 -2.5676647034885E-01
    52  5.1000000000000E-01  6.5350371801836E-01 -2.5185392280727E-01
    53  5.2000000000000E-01  6.6637542680937E-01 -2.4632550570814E-01
    54  5.3000000000000E-01  6.7892993053194E-01 -2.4020914448801E-01
    55  5.4000000000000E-01  6.9117205702172E-01 -2.3353570942717E-01
    56  5.5000000000000E-01  7.0310836442597E-01 -2.2633883243955E-01
    57  5.6000000000000E-01  7.1474704625500E-01 -2.1865470705000E-01
    58  5.7000000000000E-01  7.2609782691953E-01 -2.1052187252249E-01
    59  5.8000000000000E-01  7.3717184827847E-01 -2.0198098319690E-01
    60  5.9000000000000E-01  7.4798154777208E-01 -1.9307456418143E-01
    61  6.0000000000000E-01  7.5854052876440E-01 -1.8384675463207E-01
    62  6.1000000000000E-01  7.6886342376446E-01 -1.7434303992924E-01
    63  6.2000000000000E-01  7.7896575123879E-01 -1.6460997413518E-01
    64  6.3000000000000E-01  7.8886376676733E-01 -1.5469489418132E-01
    65  6.4000000000000E-01  7.9857430933115E-01 -1.4464562729530E-01
    66  6.5000000000000E-01  8.0811464355296E-01 -1.3451019322908E-01
    67  6.6000000000000E-01  8.1750229874005E-01 -1.2433650289446E-01
    68  6.7000000000000E-01  8.2675490560375E-01 -1.1417205504907E-01
    69  6.8000000000000E-01  8.3589003155020E-01 -1.0406363270434E-01
    70  6.9000000000000E-01  8.4492501545266E-01 -9.4057000946623E-02
    71  7.0000000000000E-01  8.5387680282732E-01 -8.4196607874220E-02
    72  7.1000000000000E-01  8.6276178234112E-01 -7.4525290354721E-02
    73  7.2000000000000E-01  8.7159562458194E-01 -6.5083986300644E-02
    74  7.3000000000000E-01  8.8039312401881E-01 -5.5911455145031E-02
    75  7.4000000000000E-01  8.8916804507171E-01 -4.7044008173548E-02
    76  7.5000000000000E-01  8.9793297319817E-01 -3.8515250335179E-02
    77  7.6000000000000E-01  9.0669917188589E-01 -3.0355835109983E-02
    78  7.7000000000000E-01  9.1547644641857E-01 -2.2593233959888E-02
    79  7.8000000000000E-01  9.2427301525434E-01 -1.5251521826897E-02
    80  7.9000000000000E-01  9.3309538982473E-01 -8.3511800730719E-03
    81  8.0000000000000E-01  9.4194826352489E-01 -1.9089181780338E-03