Sn    ONCVPSP-4.0.1  r_core=   2.26172   2.61090   1.85654
     50.0000     14.0000      250925    zatom,zion,pspd
     8   -1012   2     4   600     0    pspcod,pspxc,lmax,lloc,mmax,r2well
  5.99000000  6.50000000  0.00000000    rchrg fchrg qchrg
     2     2     2     0    nproj
     3     1           extension_switch
     4     3     0    nprojso
   0                         5.5414785545086E+00  7.1117007659468E-01
     1  0.0000000000000E+00 -5.9687810249898E-12  1.2058475745702E-11
     2  1.0000000000000E-02  1.6748401854295E-02 -9.6565699843484E-04
     3  2.0000000000000E-02  3.3493900723460E-02 -1.9427073189588E-03
     4  3.0000000000000E-02  5.0233619265167E-02 -2.9425425600416E-03
     5  4.0000000000000E-02  6.6964731177804E-02 -3.9765505258801E-03
     6  5.0000000000000E-02  8.3684486110127E-02 -5.0561124647581E-03
     7  6.0000000000000E-02  1.0039023384229E-01 -6.1925992785563E-03
     8  7.0000000000000E-02  1.1707944750243E-01 -7.3973663746926E-03
     9  8.0000000000000E-02  1.3374974558884E-01 -8.6817468438321E-03
    10  9.0000000000000E-02  1.5039891257546E-01 -1.0057042661666E-02
    11  1.0000000000000E-01  1.6702491788677E-01 -1.1534513630780E-02
    12  1.1000000000000E-01  1.8362593303885E-01 -1.3125363799075E-02
    13  1.2000000000000E-01  2.0020034675444E-01 -1.4840725114071E-02
    14  1.3000000000000E-01  2.1674677787268E-01 -1.6691638097901E-02
    15  1.4000000000000E-01  2.3326408588826E-01 -1.8689029355248E-02
    16  1.5000000000000E-01  2.4975137896936E-01 -2.0843685756254E-02
    17  1.6000000000000E-01  2.6620801932018E-01 -2.3166225167869E-02
    18  1.7000000000000E-01  2.8263362577044E-01 -2.5667063640353E-02
    19  1.8000000000000E-01  2.9902807349246E-01 -2.8356378990326E-02
    20  1.9000000000000E-01  3.1539149076472E-01 -3.1244070757525E-02
    21  2.0000000000000E-01  3.3172425272017E-01 -3.4339716549523E-02
    22  2.1000000000000E-01  3.4802697203743E-01 -3.7652524826110E-02
    23  2.2000000000000E-01  3.6430048655340E-01 -4.1191284213335E-02
    24  2.3000000000000E-01  3.8054584379602E-01 -4.4964309475482E-02
    25  2.4000000000000E-01  3.9676428245752E-01 -4.8979384311802E-02
    26  2.5000000000000E-01  4.1295721084884E-01 -5.3243701182760E-02
    27  2.6000000000000E-01  4.2912618239725E-01 -5.7763798408285E-02
    28  2.7000000000000E-01  4.4527286827022E-01 -6.2545494817196E-02
    29  2.8000000000000E-01  4.6139902722902E-01 -6.7593822262723E-02
    30  2.9000000000000E-01  4.7750647283614E-01 -7.2912956353468E-02
    31  3.0000000000000E-01  4.9359703816042E-01 -7.8506145781777E-02
    32  3.1000000000000E-01  5.0967253814321E-01 -8.4375640662750E-02
    33  3.2000000000000E-01  5.2573472980756E-01 -9.0522620325777E-02
    34  3.3000000000000E-01  5.4178527051015E-01 -9.6947121027071E-02
    35  3.4000000000000E-01  5.5782567445305E-01 -1.0364796407600E-01
    36  3.5000000000000E-01  5.7385726768808E-01 -1.1062268488901E-01
    37  3.6000000000000E-01  5.8988114186141E-01 -1.1786746350346E-01
    38  3.7000000000000E-01  6.0589810696014E-01 -1.2537705709904E-01
    39  3.8000000000000E-01  6.2190864333442E-01 -1.3314473508627E-01
    40  3.9000000000000E-01  6.3791285328035E-01 -1.4116221733020E-01
    41  4.0000000000000E-01  6.5391041247799E-01 -1.4941961608235E-01
    42  4.1000000000000E-01  6.6990052158715E-01 -1.5790538219527E-01
    43  4.2000000000000E-01  6.8588185831005E-01 -1.6660625619174E-01
    44  4.3000000000000E-01  7.0185253023484E-01 -1.7550722475389E-01
    45  4.4000000000000E-01  7.1781002877697E-01 -1.8459148318793E-01
    46  4.5000000000000E-01  7.3375118453704E-01 -1.9384040440545E-01
    47  4.6000000000000E-01  7.4967212439324E-01 -2.0323351494459E-01
    48  4.7000000000000E-01  7.6556823064439E-01 -2.1274847853224E-01
    49  4.8000000000000E-01  7.8143410251568E-01 -2.2236108766275E-01
    50  4.9000000000000E-01  7.9726352033346E-01 -2.3204526363888E-01
    51  5.0000000000000E-01  8.1304941266776E-01 -2.4177306548741E-01
    52  5.1000000000000E-01  8.2878382673203E-01 -2.5151470812526E-01
    53  5.2000000000000E-01  8.4445790231828E-01 -2.6123859011125E-01
    54  5.3000000000000E-01  8.6006184953308E-01 -2.7091133127506E-01
    55  5.4000000000000E-01  8.7558493058529E-01 -2.8049782046878E-01
    56  5.5000000000000E-01  8.9101544586010E-01 -2.8996127363602E-01
    57  5.6000000000000E-01  9.0634072449620E-01 -2.9926330234204E-01
    58  5.7000000000000E-01  9.2154711966392E-01 -3.0836399285322E-01
    59  5.8000000000000E-01  9.3662000872084E-01 -3.1722199579789E-01
    60  5.9000000000000E-01  9.5154379840001E-01 -3.2579462638121E-01
    61  6.0000000000000E-01  9.6630193516208E-01 -3.3403797506739E-01
    62  6.1000000000000E-01  9.8087692081862E-01 -3.4190702858054E-01
    63  6.2000000000000E-01  9.9525033350811E-01 -3.4935580101336E-01
    64  6.3000000000000E-01  1.0094028540801E+00 -3.5633747477020E-01
    65  6.4000000000000E-01  1.0233142979155E+00 -3.6280455100754E-01
    66  6.5000000000000E-01  1.0369636521838E+00 -3.6870900917245E-01
    67  6.6000000000000E-01  1.0503291185090E+00 -3.7400247517720E-01
    68  6.7000000000000E-01  1.0633881609878E+00 -3.7863639768653E-01
    69  6.8000000000000E-01  1.0761175594755E+00 -3.8256223193432E-01
    70  6.9000000000000E-01  1.0884934680243E+00 -3.8573163042770E-01
    71  7.0000000000000E-01  1.1004914783321E+00 -3.8809663984030E-01
    72  7.1000000000000E-01  1.1120866880297E+00 -3.8960990334263E-01
    73  7.2000000000000E-01  1.1232537736068E+00 -3.9022486756581E-01
    74  7.3000000000000E-01  1.1339670677501E+00 -3.8989599334757E-01
    75  7.4000000000000E-01  1.1442006408382E+00 -3.8857896936422E-01
    76  7.5000000000000E-01  1.1539283863154E+00 -3.8623092771208E-01
    77  7.6000000000000E-01  1.1631241096359E+00 -3.8281066046478E-01
    78  7.7000000000000E-01  1.1717616204535E+00 -3.7827883620124E-01
    79  7.8000000000000E-01  1.1798148277021E+00 -3.7259821547104E-01
    80  7.9000000000000E-01  1.1872578371963E+00 -3.6573386414207E-01
    81  8.0000000000000E-01  1.1940650513590E+00 -3.5765336355759E-01
    82  8.1000000000000E-01  1.2002112706678E+00 -3.4832701641815E-01
    83  8.2000000000000E-01  1.2056717963921E+00 -3.3772804729768E-01
    84  8.3000000000000E-01  1.2104225341837E+00 -3.2583279670230E-01
    85  8.4000000000000E-01  1.2144400980666E+00 -3.1262090758588E-01
    86  8.5000000000000E-01  1.2177019143663E+00 -2.9807550324777E-01
    87  8.6000000000000E-01  1.2201863251082E+00 -2.8218335555530E-01
    88  8.7000000000000E-01  1.2218726904095E+00 -2.6493504245685E-01
    89  8.8000000000000E-01  1.2227414893886E+00 -2.4632509378144E-01
    90  8.9000000000000E-01  1.2227744191114E+00 -2.2635212435482E-01
    91  9.0000000000000E-01  1.2219544910986E+00 -2.0501895350496E-01
    92  9.1000000000000E-01  1.2202661249200E+00 -1.8233271007531E-01
    93  9.2000000000000E-01  1.2176952384106E+00 -1.5830492211820E-01
    94  9.3000000000000E-01  1.2142293340500E+00 -1.3295159049798E-01
    95  9.4000000000000E-01  1.2098575810588E+00 -1.0629324569750E-01
    96  9.5000000000000E-01  1.2045708927811E+00 -7.8354987189592E-02
    97  9.6000000000000E-01  1.1983619989341E+00 -4.9166504808139E-02
    98  9.7000000000000E-01  1.1912255123296E+00 -1.8762081631306E-02
    99  9.8000000000000E-01  1.1831579896875E+00  1.2819422029896E-02
   100  9.9000000000000E-01  1.1741579861874E+00  4.5534603858479E-02
   101  1.0000000000000E+00  1.1642261034288E+00  7.9335574207169E-02
   102  1.0100000000000E+00  1.1533650304940E+00  1.1417003036445E-01
   103  1.0200000000000E+00  1.1415795778407E+00  1.4998135045935E-01
   104  1.0300000000000E+00  1.1288767037776E+00  1.8670870695786E-01
   105  1.0400000000000E+00  1.1152655333094E+00  2.2428719960733E-01
   106  1.0500000000000E+00  1.1007573691709E+00  2.6264800758697E-01
   107  1.0600000000000E+00  1.0853656949018E+00  3.0171856052539E-01
   108  1.0700000000000E+00  1.0691061698527E+00  3.4142272794745E-01
   109  1.0800000000000E+00  1.0519966160452E+00  3.8168102661621E-01
   110  1.0900000000000E+00  1.0340569968469E+00  4.2241084513922E-01
   111  1.1000000000000E+00  1.0153093874605E+00  4.6352668511494E-01
   112  1.1100000000000E+00  9.9577793726184E-01  5.0494041800268E-01
   113  1.1200000000000E+00  9.7548882406108E-01  5.4656155681095E-01
   114  1.1300000000000E+00  9.5447020039649E-01  5.8829754161309E-01
   115  1.1400000000000E+00  9.3275213201023E-01  6.3005403781793E-01
   116  1.1500000000000E+00  9.1036652869035E-01  6.7173524604530E-01
   117  1.1600000000000E+00  8.8734706770004E-01  7.1324422238434E-01
   118  1.1700000000000E+00  8.6372911005050E-01  7.5448320774507E-01
   119  1.1800000000000E+00  8.3954960990784E-01  7.9535396495231E-01
   120  1.1900000000000E+00  8.1484701745746E-01  8.3575812217620E-01
   121  1.2000000000000E+00  7.8966117558103E-01  8.7559752124435E-01
   122  1.2100000000000E+00  7.6403321073098E-01  9.1477456933921E-01
   123  1.2200000000000E+00  7.3800541841607E-01  9.5319259254943E-01
   124  1.2300000000000E+00  7.1162114373760E-01  9.9075618971673E-01
   125  1.2400000000000E+00  6.8492465744036E-01  1.0273715850004E+00
   126  1.2500000000000E+00  6.5796102796472E-01  1.0629469775695E+00
   127  1.2600000000000E+00  6.3077599000585E-01  1.0973928868298E+00
   128  1.2700000000000E+00  6.0341581010394E-01  1.1306224915959E+00
   129  1.2800000000000E+00  5.7592714980386E-01  1.1625519616326E+00
   130  1.2900000000000E+00  5.4835692693566E-01  1.1931007800090E+00
   131  1.3000000000000E+00  5.2075217557658E-01  1.2221920547395E+00
   132  1.3100000000000E+00  4.9315990526264E-01  1.2497528182204E+00
   133  1.3200000000000E+00  4.6562696002226E-01  1.2757143130172E+00
   134  1.3300000000000E+00  4.3819987780566E-01  1.3000122626101E+00
   135  1.3400000000000E+00  4.1092475088300E-01  1.3225871257642E+00
   136  1.3500000000000E+00  3.8384708778003E-01  1.3433843332589E+00
   137  1.3600000000000E+00  3.5701167731339E-01  1.3623545057844E+00
   138  1.3700000000000E+00  3.3046245527841E-01  1.3794536518957E+00
   139  1.3800000000000E+00  3.0424237433015E-01  1.3946433449981E+00
   140  1.3900000000000E+00  2.7839327758403E-01  1.4078908784345E+00
   141  1.4000000000000E+00  2.5295577644490E-01  1.4191693978390E+00
   142  1.4100000000000E+00  2.2796913315435E-01  1.4284580100273E+00
   143  1.4200000000000E+00  2.0347114852411E-01  1.4357418677978E+00
   144  1.4300000000000E+00  1.7949805529924E-01  1.4410122301321E+00
   145  1.4400000000000E+00  1.5608441756934E-01  1.4442664973906E+00
   146  1.4500000000000E+00  1.3326303661741E-01  1.4455082212231E+00
   147  1.4600000000000E+00  1.1106486356733E-01  1.4447470890241E+00
   148  1.4700000000000E+00  8.9518919158704E-02  1.4419988828881E+00
   149  1.4800000000000E+00  6.8652220946269E-02  1.4372854131345E+00
   150  1.4900000000000E+00  4.8489718186524E-02  1.4306344265951E+00
   151  1.5000000000000E+00  2.9054234639958E-02  1.4220794899731E+00
   152  1.5100000000000E+00  1.0366419481370E-02  1.4116598487023E+00
   153  1.5200000000000E+00 -7.5552935254466E-03  1.3994202618466E+00
   154  1.5300000000000E+00 -2.4694718468969E-02  1.3854108136970E+00
   155  1.5400000000000E+00 -4.1037941264521E-02  1.3696867028280E+00
   156  1.5500000000000E+00 -5.6573335116514E-02  1.3523080094841E+00
   157  1.5600000000000E+00 -7.1291567459295E-02  1.3333394422635E+00
   158  1.5700000000000E+00 -8.5185598404319E-02  1.3128500651665E+00
   159  1.5800000000000E+00 -9.8250670757061E-02  1.2909130061609E+00
   160  1.5900000000000E+00 -1.1048429170229E-01  1.2676051485039E+00
   161  1.6000000000000E+00 -1.2188620629051E-01  1.2430068061347E+00
   162  1.6100000000000E+00 -1.3245836289172E-01  1.2172013845233E+00
   163  1.6200000000000E+00 -1.4220487081428E-01  1.1902750284223E+00
   164  1.6300000000000E+00 -1.5113195031724E-01  1.1623162580243E+00
   165  1.6400000000000E+00 -1.5924787527347E-01  1.1334155950715E+00
   166  1.6500000000000E+00 -1.6656290876785E-01  1.1036651805071E+00
   167  1.6600000000000E+00 -1.7308923194034E-01  1.0731583852808E+00
   168  1.6700000000000E+00 -1.7884086640706E-01  1.0419894159482E+00
   169  1.6800000000000E+00 -1.8383359061381E-01  1.0102529167116E+00
   170  1.6900000000000E+00 -1.8808485049558E-01  9.7804356955478E-01
   171  1.7000000000000E+00 -1.9161366483281E-01  9.4545569411742E-01
   172  1.7100000000000E+00 -1.9444052570952E-01  9.1258284894186E-01
   173  1.7200000000000E+00 -1.9658729449115E-01  8.7951743570031E-01
   174  1.7300000000000E+00 -1.9807709374966E-01  8.4635030797964E-01
   175  1.7400000000000E+00 -1.9893419557125E-01  8.1317038616047E-01
   176  1.7500000000000E+00 -1.9918390668753E-01  7.8006427987960E-01
   177  1.7600000000000E+00 -1.9885245087342E-01  7.4711591950862E-01
   178  1.7700000000000E+00 -1.9796684905623E-01  7.1440619801862E-01
   179  1.7800000000000E+00 -1.9655479757832E-01  6.8201262453067E-01
   180  1.7900000000000E+00 -1.9464454505204E-01  6.5000899077511E-01
   181  1.8000000000000E+00 -1.9226476823950E-01  6.1846505160003E-01
   182  1.8100000000000E+00 -1.8944444738167E-01  5.8744622058100E-01
   183  1.8200000000000E+00 -1.8621274139125E-01  5.5701328169137E-01
   184  1.8300000000000E+00 -1.8259886327448E-01  5.2722211760787E-01
   185  1.8400000000000E+00 -1.7863195617055E-01  4.9812345554170E-01
   186  1.8500000000000E+00 -1.7434097239943E-01  4.6976264593745E-01
   187  1.8600000000000E+00 -1.6975454415696E-01  4.4217938629687E-01
   188  1.8700000000000E+00 -1.6490091530197E-01  4.1540792084451E-01
   189  1.8800000000000E+00 -1.5980796867789E-01  3.8947790748087E-01
   190  1.8900000000000E+00 -1.5450324054251E-01  3.6441505574225E-01
   191  1.9000000000000E+00 -1.4901385613286E-01  3.4024110325617E-01
   192  1.9100000000000E+00 -1.4336647488175E-01  3.1697386276924E-01
   193  1.9200000000000E+00 -1.3758723779649E-01  2.9462727566855E-01
   194  1.9300000000000E+00 -1.3170171861669E-01  2.7321148488958E-01
   195  1.9400000000000E+00 -1.2573487871134E-01  2.5273292587824E-01
   196  1.9500000000000E+00 -1.1971102571890E-01  2.3319443483335E-01
   197  1.9600000000000E+00 -1.1365377591159E-01  2.1459537337058E-01
   198  1.9700000000000E+00 -1.0758602024365E-01  1.9693176867596E-01
   199  1.9800000000000E+00 -1.0152989402179E-01  1.8019646813557E-01
   200  1.9900000000000E+00 -9.5506750115170E-02  1.6437930735429E-01
   201  2.0000000000000E+00 -8.9537135602252E-02  1.4946729040644E-01
   202  2.0100000000000E+00 -8.3640771733447E-02  1.3544478109884E-01
   203  2.0200000000000E+00 -7.7836537071342E-02  1.2229370397267E-01
   204  2.0300000000000E+00 -7.2142453654493E-02  1.0999375372185E-01
   205  2.0400000000000E+00 -6.6575676016380E-02  9.8522611665052E-02
   206  2.0500000000000E+00 -6.1152482878750E-02  8.7856167876885E-02
   207  2.0600000000000E+00 -5.5888271327464E-02  7.7968747557951E-02
   208  2.0700000000000E+00 -5.0797553269400E-02  6.8833340206936E-02
   209  2.0800000000000E+00 -4.5893953961837E-02  6.0421830149887E-02
   210  2.0900000000000E+00 -4.1190212399803E-02  5.2705226980819E-02
   211  2.1000000000000E+00 -3.6698183342970E-02  4.5653894477177E-02
   212  2.1100000000000E+00 -3.2428839452049E-02  3.9237773160320E-02
   213  2.1200000000000E+00 -2.8392284377967E-02  3.3426623886477E-02
   214  2.1300000000000E+00 -2.4597736404239E-02  2.8190186562481E-02
   215  2.1400000000000E+00 -2.1053562181942E-02  2.3498460138681E-02
   216  2.1500000000000E+00 -1.7767352885648E-02  1.9322083690501E-02
   217  2.1600000000000E+00 -1.4746954591046E-02  1.5635185726269E-02
   218  2.1700000000000E+00 -1.1999007915007E-02  1.2411748154314E-02
   219  2.1800000000000E+00 -9.5279686718662E-03  9.6232116196791E-03
   220  2.1900000000000E+00 -7.3375813024073E-03  7.2424467172017E-03
   221  2.2000000000000E+00 -5.4307250540080E-03  5.2434752748574E-03
   222  2.2100000000000E+00 -3.8094612444346E-03  3.6017026697757E-03
   223  2.2200000000000E+00 -2.4750499408847E-03  2.2940573883192E-03
   224  2.2300000000000E+00 -1.4285288083059E-03  1.2996060364583E-03
   225  2.2400000000000E+00 -6.6481988184480E-04  5.9460900368738E-04
   226  2.2500000000000E+00 -1.9740218011907E-04  1.7379581460663E-04
   227  2.2600000000000E+00 -1.1588481802250E-05  1.0177357769516E-05
   228  2.2700000000000E+00  1.0024986011220E-05 -8.5545645087785E-06
   229  2.2800000000000E+00 -3.6197775694809E-06  3.1280296980725E-06
   230  2.29  0.  0.
   231  2.30  0.  0.
   232  2.31  0.  0.
   233  2.32  0.  0.
   234  2.33  0.  0.
   235  2.34  0.  0.
   236  2.35  0.  0.
   237  2.36  0.  0.
   238  2.37  0.  0.
   239  2.38  0.  0.
   240  2.39  0.  0.
   241  2.40  0.  0.
   242  2.41  0.  0.
   243  2.42  0.  0.
   244  2.43  0.  0.
   245  2.44  0.  0.
   246  2.45  0.  0.
   247  2.46  0.  0.
   248  2.47  0.  0.
   249  2.48  0.  0.
   250  2.49  0.  0.
   251  2.50  0.  0.
   252  2.51  0.  0.
   253  2.52  0.  0.
   254  2.53  0.  0.
   255  2.54  0.  0.
   256  2.55  0.  0.
   257  2.56  0.  0.
   258  2.57  0.  0.
   259  2.58  0.  0.
   260  2.59  0.  0.
   261  2.60  0.  0.
   262  2.61  0.  0.
   263  2.62  0.  0.
   264  2.63  0.  0.
   265  2.64  0.  0.
   266  2.65  0.  0.
   267  2.66  0.  0.
   268  2.67  0.  0.
   269  2.68  0.  0.
   270  2.69  0.  0.
   271  2.70  0.  0.
   272  2.71  0.  0.
   273  2.72  0.  0.
   274  2.73  0.  0.
   275  2.74  0.  0.
   276  2.75  0.  0.
   277  2.76  0.  0.
   278  2.77  0.  0.
   279  2.78  0.  0.
   280  2.79  0.  0.
   281  2.80  0.  0.
   282  2.81  0.  0.
   283  2.82  0.  0.
   284  2.83  0.  0.
   285  2.84  0.  0.
   286  2.85  0.  0.
   287  2.86  0.  0.
   288  2.87  0.  0.
   289  2.88  0.  0.
   290  2.89  0.  0.
   291  2.90  0.  0.
   292  2.91  0.  0.
   293  2.92  0.  0.
   294  2.93  0.  0.
   295  2.94  0.  0.
   296  2.95  0.  0.
   297  2.96  0.  0.
   298  2.97  0.  0.
   299  2.98  0.  0.
   300  2.99  0.  0.
   301  3.00  0.  0.
   302  3.01  0.  0.
   303  3.02  0.  0.
   304  3.03  0.  0.
   305  3.04  0.  0.
   306  3.05  0.  0.
   307  3.06  0.  0.
   308  3.07  0.  0.
   309  3.08  0.  0.
   310  3.09  0.  0.
   311  3.10  0.  0.
   312  3.11  0.  0.
   313  3.12  0.  0.
   314  3.13  0.  0.
   315  3.14  0.  0.
   316  3.15  0.  0.
   317  3.16  0.  0.
   318  3.17  0.  0.
   319  3.18  0.  0.
   320  3.19  0.  0.
   321  3.20  0.  0.
   322  3.21  0.  0.
   323  3.22  0.  0.
   324  3.23  0.  0.
   325  3.24  0.  0.
   326  3.25  0.  0.
   327  3.26  0.  0.
   328  3.27  0.  0.
   329  3.28  0.  0.
   330  3.29  0.  0.
   331  3.30  0.  0.
   332  3.31  0.  0.
   333  3.32  0.  0.
   334  3.33  0.  0.
   335  3.34  0.  0.
   336  3.35  0.  0.
   337  3.36  0.  0.
   338  3.37  0.  0.
   339  3.38  0.  0.
   340  3.39  0.  0.
   341  3.40  0.  0.
   342  3.41  0.  0.
   343  3.42  0.  0.
   344  3.43  0.  0.
   345  3.44  0.  0.
   346  3.45  0.  0.
   347  3.46  0.  0.
   348  3.47  0.  0.
   349  3.48  0.  0.
   350  3.49  0.  0.
   351  3.50  0.  0.
   352  3.51  0.  0.
   353  3.52  0.  0.
   354  3.53  0.  0.
   355  3.54  0.  0.
   356  3.55  0.  0.
   357  3.56  0.  0.
   358  3.57  0.  0.
   359  3.58  0.  0.
   360  3.59  0.  0.
   361  3.60  0.  0.
   362  3.61  0.  0.
   363  3.62  0.  0.
   364  3.63  0.  0.
   365  3.64  0.  0.
   366  3.65  0.  0.
   367  3.66  0.  0.
   368  3.67  0.  0.
   369  3.68  0.  0.
   370  3.69  0.  0.
   371  3.70  0.  0.
   372  3.71  0.  0.
   373  3.72  0.  0.
   374  3.73  0.  0.
   375  3.74  0.  0.
   376  3.75  0.  0.
   377  3.76  0.  0.
   378  3.77  0.  0.
   379  3.78  0.  0.
   380  3.79  0.  0.
   381  3.80  0.  0.
   382  3.81  0.  0.
   383  3.82  0.  0.
   384  3.83  0.  0.
   385  3.84  0.  0.
   386  3.85  0.  0.
   387  3.86  0.  0.
   388  3.87  0.  0.
   389  3.88  0.  0.
   390  3.89  0.  0.
   391  3.90  0.  0.
   392  3.91  0.  0.
   393  3.92  0.  0.
   394  3.93  0.  0.
   395  3.94  0.  0.
   396  3.95  0.  0.
   397  3.96  0.  0.
   398  3.97  0.  0.
   399  3.98  0.  0.
   400  3.99  0.  0.
   401  4.00  0.  0.
   402  4.01  0.  0.
   403  4.02  0.  0.
   404  4.03  0.  0.
   405  4.04  0.  0.
   406  4.05  0.  0.
   407  4.06  0.  0.
   408  4.07  0.  0.
   409  4.08  0.  0.
   410  4.09  0.  0.
   411  4.10  0.  0.
   412  4.11  0.  0.
   413  4.12  0.  0.
   414  4.13  0.  0.
   415  4.14  0.  0.
   416  4.15  0.  0.
   417  4.16  0.  0.
   418  4.17  0.  0.
   419  4.18  0.  0.
   420  4.19  0.  0.
   421  4.20  0.  0.
   422  4.21  0.  0.
   423  4.22  0.  0.
   424  4.23  0.  0.
   425  4.24  0.  0.
   426  4.25  0.  0.
   427  4.26  0.  0.
   428  4.27  0.  0.
   429  4.28  0.  0.
   430  4.29  0.  0.
   431  4.30  0.  0.
   432  4.31  0.  0.
   433  4.32  0.  0.
   434  4.33  0.  0.
   435  4.34  0.  0.
   436  4.35  0.  0.
   437  4.36  0.  0.
   438  4.37  0.  0.
   439  4.38  0.  0.
   440  4.39  0.  0.
   441  4.40  0.  0.
   442  4.41  0.  0.
   443  4.42  0.  0.
   444  4.43  0.  0.
   445  4.44  0.  0.
   446  4.45  0.  0.
   447  4.46  0.  0.
   448  4.47  0.  0.
   449  4.48  0.  0.
   450  4.49  0.  0.
   451  4.50  0.  0.
   452  4.51  0.  0.
   453  4.52  0.  0.
   454  4.53  0.  0.
   455  4.54  0.  0.
   456  4.55  0.  0.
   457  4.56  0.  0.
   458  4.57  0.  0.
   459  4.58  0.  0.
   460  4.59  0.  0.
   461  4.60  0.  0.
   462  4.61  0.  0.
   463  4.62  0.  0.
   464  4.63  0.  0.
   465  4.64  0.  0.
   466  4.65  0.  0.
   467  4.66  0.  0.
   468  4.67  0.  0.
   469  4.68  0.  0.
   470  4.69  0.  0.
   471  4.70  0.  0.
   472  4.71  0.  0.
   473  4.72  0.  0.
   474  4.73  0.  0.
   475  4.74  0.  0.
   476  4.75  0.  0.
   477  4.76  0.  0.
   478  4.77  0.  0.
   479  4.78  0.  0.
   480  4.79  0.  0.
   481  4.80  0.  0.
   482  4.81  0.  0.
   483  4.82  0.  0.
   484  4.83  0.  0.
   485  4.84  0.  0.
   486  4.85  0.  0.
   487  4.86  0.  0.
   488  4.87  0.  0.
   489  4.88  0.  0.
   490  4.89  0.  0.
   491  4.90  0.  0.
   492  4.91  0.  0.
   493  4.92  0.  0.
   494  4.93  0.  0.
   495  4.94  0.  0.
   496  4.95  0.  0.
   497  4.96  0.  0.
   498  4.97  0.  0.
   499  4.98  0.  0.
   500  4.99  0.  0.
   501  5.00  0.  0.
   502  5.01  0.  0.
   503  5.02  0.  0.
   504  5.03  0.  0.
   505  5.04  0.  0.
   506  5.05  0.  0.
   507  5.06  0.  0.
   508  5.07  0.  0.
   509  5.08  0.  0.
   510  5.09  0.  0.
   511  5.10  0.  0.
   512  5.11  0.  0.
   513  5.12  0.  0.
   514  5.13  0.  0.
   515  5.14  0.  0.
   516  5.15  0.  0.
   517  5.16  0.  0.
   518  5.17  0.  0.
   519  5.18  0.  0.
   520  5.19  0.  0.
   521  5.20  0.  0.
   522  5.21  0.  0.
   523  5.22  0.  0.
   524  5.23  0.  0.
   525  5.24  0.  0.
   526  5.25  0.  0.
   527  5.26  0.  0.
   528  5.27  0.  0.
   529  5.28  0.  0.
   530  5.29  0.  0.
   531  5.30  0.  0.
   532  5.31  0.  0.
   533  5.32  0.  0.
   534  5.33  0.  0.
   535  5.34  0.  0.
   536  5.35  0.  0.
   537  5.36  0.  0.
   538  5.37  0.  0.
   539  5.38  0.  0.
   540  5.39  0.  0.
   541  5.40  0.  0.
   542  5.41  0.  0.
   543  5.42  0.  0.
   544  5.43  0.  0.
   545  5.44  0.  0.
   546  5.45  0.  0.
   547  5.46  0.  0.
   548  5.47  0.  0.
   549  5.48  0.  0.
   550  5.49  0.  0.
   551  5.50  0.  0.
   552  5.51  0.  0.
   553  5.52  0.  0.
   554  5.53  0.  0.
   555  5.54  0.  0.
   556  5.55  0.  0.
   557  5.56  0.  0.
   558  5.57  0.  0.
   559  5.58  0.  0.
   560  5.59  0.  0.
   561  5.60  0.  0.
   562  5.61  0.  0.
   563  5.62  0.  0.
   564  5.63  0.  0.
   565  5.64  0.  0.
   566  5.65  0.  0.
   567  5.66  0.  0.
   568  5.67  0.  0.
   569  5.68  0.  0.
   570  5.69  0.  0.
   571  5.70  0.  0.
   572  5.71  0.  0.
   573  5.72  0.  0.
   574  5.73  0.  0.
   575  5.74  0.  0.
   576  5.75  0.  0.
   577  5.76  0.  0.
   578  5.77  0.  0.
   579  5.78  0.  0.
   580  5.79  0.  0.
   581  5.80  0.  0.
   582  5.81  0.  0.
   583  5.82  0.  0.
   584  5.83  0.  0.
   585  5.84  0.  0.
   586  5.85  0.  0.
   587  5.86  0.  0.
   588  5.87  0.  0.
   589  5.88  0.  0.
   590  5.89  0.  0.
   591  5.90  0.  0.
   592  5.91  0.  0.
   593  5.92  0.  0.
   594  5.93  0.  0.
   595  5.94  0.  0.
   596  5.95  0.  0.
   597  5.96  0.  0.
   598  5.97  0.  0.
   599  5.98  0.  0.
   600  5.99  0.  0.
   1                         4.0321235706408E+00  6.5696162757681E-01
     1  0.0000000000000E+00  5.0503660281587E-11 -9.2197107587344E-11
     2  1.0000000000000E-02  4.4157999971237E-04 -3.5627273758386E-04
     3  2.0000000000000E-02  1.7650522176577E-03 -1.4232329747194E-03
     4  3.0000000000000E-02  3.9666188802324E-03 -3.1953163628142E-03
     5  4.0000000000000E-02  7.0399689051825E-03 -5.6632808672345E-03
     6  5.0000000000000E-02  1.0976305620812E-02 -8.8142544196704E-03
     7  6.0000000000000E-02  1.5764385390445E-02 -1.2631801297900E-02
     8  7.0000000000000E-02  2.1390566960658E-02 -1.7096006901222E-02
     9  8.0000000000000E-02  2.7838871301307E-02 -2.2183580497624E-02
    10  9.0000000000000E-02  3.5091051655878E-02 -2.7867975428495E-02
    11  1.0000000000000E-01  4.3126673472416E-02 -3.4119526168773E-02
    12  1.1000000000000E-01  5.1923203838489E-02 -4.0905601555188E-02
    13  1.2000000000000E-01  6.1456109998415E-02 -4.8190773413297E-02
    14  1.3000000000000E-01  7.1698966487681E-02 -5.5936999735388E-02
    15  1.4000000000000E-01  8.2623570378170E-02 -6.4103821486801E-02
    16  1.5000000000000E-01  9.4200064088741E-02 -7.2648572047718E-02
    17  1.6000000000000E-01  1.0639706517905E-01 -8.1526598231765E-02
    18  1.7000000000000E-01  1.1918180251040E-01 -9.0691491761816E-02
    19  1.8000000000000E-01  1.3252025812616E-01 -1.0009533002769E-01
    20  1.9000000000000E-01  1.4637731417559E-01 -1.0968892490023E-01
    21  2.0000000000000E-01  1.6071690417982E-01 -1.1942207833182E-01
    22  2.1000000000000E-01  1.7550216791624E-01 -1.2924384343479E-01
    23  2.2000000000000E-01  1.9069560917854E-01 -1.3910278969704E-01
    24  2.3000000000000E-01  2.0625925565415E-01 -1.4894727096811E-01
    25  2.4000000000000E-01  2.2215482014869E-01 -1.5872569482967E-01
    26  2.5000000000000E-01  2.3834386237821E-01 -1.6838679195159E-01
    27  2.6000000000000E-01  2.5478795054527E-01 -1.7787988402896E-01
    28  2.7000000000000E-01  2.7144882191334E-01 -1.8715514889611E-01
    29  2.8000000000000E-01  2.8828854159655E-01 -1.9616388142184E-01
    30  2.9000000000000E-01  3.0526965878754E-01 -2.0485874880435E-01
    31  3.0000000000000E-01  3.2235535965626E-01 -2.1319403890638E-01
    32  3.1000000000000E-01  3.3950961616569E-01 -2.2112590029941E-01
    33  3.2000000000000E-01  3.5669733006765E-01 -2.2861257272086E-01
    34  3.3000000000000E-01  3.7388447136262E-01 -2.3561460669043E-01
    35  3.4000000000000E-01  3.9103821053151E-01 -2.4209507107995E-01
    36  3.5000000000000E-01  4.0812704387523E-01 -2.4801974748605E-01
    37  3.6000000000000E-01  4.2512091132880E-01 -2.5335731031570E-01
    38  3.7000000000000E-01  4.4199130615111E-01 -2.5807949156179E-01
    39  3.8000000000000E-01  4.5871137592887E-01 -2.6216122931828E-01
    40  3.9000000000000E-01  4.7525601437363E-01 -2.6558079916223E-01
    41  4.0000000000000E-01  4.9160194343407E-01 -2.6831992761320E-01
    42  4.1000000000000E-01  5.0772778529154E-01 -2.7036388696768E-01
    43  4.2000000000000E-01  5.2361412385507E-01 -2.7170157089853E-01
    44  4.3000000000000E-01  5.3924355542297E-01 -2.7232555030476E-01
    45  4.4000000000000E-01  5.5460072823014E-01 -2.7223210899659E-01
    46  4.5000000000000E-01  5.6967237065528E-01 -2.7142125890270E-01
    47  4.6000000000000E-01  5.8444730791755E-01 -2.6989673459161E-01
    48  4.7000000000000E-01  5.9891646714993E-01 -2.6766596700576E-01
    49  4.8000000000000E-01  6.1307287079457E-01 -2.6474003641560E-01
    50  4.9000000000000E-01  6.2691161832464E-01 -2.6113360471004E-01
    51  5.0000000000000E-01  6.4042985635666E-01 -2.5686482724990E-01
    52  5.1000000000000E-01  6.5362673727732E-01 -2.5195524462059E-01
    53  5.2000000000000E-01  6.6650336656816E-01 -2.4642965472980E-01
    54  5.3000000000000E-01  6.7906273907130E-01 -2.4031596580365E-01
    55  5.4000000000000E-01  6.9130966449758E-01 -2.3364503094172E-01
    56  5.5000000000000E-01  7.0325068253670E-01 -2.2645046499478E-01
    57  5.6000000000000E-01  7.1489396798511E-01 -2.1876844463084E-01
    58  5.7000000000000E-01  7.2624922636238E-01 -2.1063749255255E-01
    59  5.8000000000000E-01  7.3732758053995E-01 -2.0209824692318E-01
    60  5.9000000000000E-01  7.4814144895697E-01 -1.9319321714746E-01
    61  6.0000000000000E-01  7.5870441604662E-01 -1.8396652723831E-01
    62  6.1000000000000E-01  7.6903109554190E-01 -1.7446364807920E-01
    63  6.2000000000000E-01  7.7913698737316E-01 -1.6473111996467E-01
    64  6.3000000000000E-01  7.8903832890876E-01 -1.5481626686846E-01
    65  6.4000000000000E-01  7.9875194132715E-01 -1.4476690394778E-01
    66  6.5000000000000E-01  8.0829507194061E-01 -1.3463103984505E-01
    67  6.6000000000000E-01  8.1768523332003E-01 -1.2445657539293E-01
    68  6.7000000000000E-01  8.2694004009436E-01 -1.1429100036516E-01
    69  6.8000000000000E-01  8.3607704431908E-01 -1.0418108994444E-01
    70  6.9000000000000E-01  8.4511357032354E-01 -9.4172602598174E-02
    71  7.0000000000000E-01  8.5406654995875E-01 -8.4309981064368E-02
    72  7.1000000000000E-01  8.6295235917375E-01 -7.4636058151997E-02
    73  7.2000000000000E-01  8.7178665685057E-01 -6.5191769053398E-02
    74  7.3000000000000E-01  8.8058422682513E-01 -5.6015871850251E-02
    75  7.4000000000000E-01  8.8935882401331E-01 -4.7144677869478E-02
    76  7.5000000000000E-01  8.9812302554912E-01 -3.8611793511014E-02
    77  7.6000000000000E-01  9.0688808782405E-01 -3.0447875125872E-02
    78  7.7000000000000E-01  9.1566381029431E-01 -2.2680398470366E-02
    79  7.8000000000000E-01  9.2445840689548E-01 -1.5333444200938E-02
    80  7.9000000000000E-01  9.3327838587205E-01 -8.4275008039310E-03
    81  8.0000000000000E-01  9.4212843879264E-01 -1.9792862761596E-03