Ti    ONCVPSP-4.0.1  r_core=   1.35405   1.30632   1.65946
     22.0000     12.0000      250925    zatom,zion,pspd
     8   -1012   2     4   600     0    pspcod,pspxc,lmax,lloc,mmax,r2well
  5.99000000  2.50000000  0.00000000    rchrg fchrg qchrg
     2     2     2     0    nproj
     3     1           extension_switch
     4     3     0    nprojso
   0                         1.0888435839825E+01  1.1400416909394E+00
     1  0.0000000000000E+00  3.4211712351961E-09 -1.0853343557216E-08
     2  1.0000000000000E-02  8.1803137561715E-02 -2.7858264280369E-02
     3  2.0000000000000E-02  1.6344505238139E-01 -5.5652308989877E-02
     4  3.0000000000000E-02  2.4476377869462E-01 -8.3314682923093E-02
     5  4.0000000000000E-02  3.2559589902176E-01 -1.1077158024831E-01
     6  5.0000000000000E-02  4.0577590322343E-01 -1.3793993191052E-01
     7  6.0000000000000E-02  4.8513564692519E-01 -1.6472481147106E-01
     8  7.0000000000000E-02  5.6350393828960E-01 -1.9101724703954E-01
     9  8.0000000000000E-02  6.4070627869297E-01 -2.1669252010035E-01
    10  9.0000000000000E-02  7.1656477874792E-01 -2.4160901898711E-01
    11  1.0000000000000E-01  7.9089826640383E-01 -2.6560769984029E-01
    12  1.1000000000000E-01  8.6352259867067E-01 -2.8851219147075E-01
    13  1.2000000000000E-01  9.3425118297650E-01 -3.1012956305660E-01
    14  1.3000000000000E-01  1.0028957084219E+00 -3.3025175546562E-01
    15  1.4000000000000E-01  1.0692670813786E+00 -3.4865765867660E-01
    16  1.5000000000000E-01  1.1331765541404E+00 -3.6511579973953E-01
    17  1.6000000000000E-01  1.1944370298150E+00 -3.7938758842386E-01
    18  1.7000000000000E-01  1.2528645214860E+00 -3.9123105160348E-01
    19  1.8000000000000E-01  1.3082797390047E+00 -4.0040497293369E-01
    20  1.9000000000000E-01  1.3605097727134E+00 -4.0667334186949E-01
    21  2.0000000000000E-01  1.4093898400593E+00 -4.0981000589082E-01
    22  2.1000000000000E-01  1.4547650585203E+00 -4.0960341221714E-01
    23  2.2000000000000E-01  1.4964922066026E+00 -4.0586132052725E-01
    24  2.3000000000000E-01  1.5344414339299E+00 -3.9841536639964E-01
    25  2.4000000000000E-01  1.5684978816557E+00 -3.8712535642918E-01
    26  2.5000000000000E-01  1.5985631755989E+00 -3.7188318026059E-01
    27  2.6000000000000E-01  1.6245567566010E+00 -3.5261623203403E-01
    28  2.7000000000000E-01  1.6464170156001E+00 -3.2929024381570E-01
    29  2.8000000000000E-01  1.6641022047400E+00 -3.0191144626993E-01
    30  2.9000000000000E-01  1.6775911004024E+00 -2.7052798683298E-01
    31  3.0000000000000E-01  1.6868833992561E+00 -2.3523055262917E-01
    32  3.1000000000000E-01  1.6919998341513E+00 -1.9615216393028E-01
    33  3.2000000000000E-01  1.6929820028038E+00 -1.5346712366034E-01
    34  3.3000000000000E-01  1.6898919085745E+00 -1.0738912881722E-01
    35  3.4000000000000E-01  1.6828112191066E+00 -5.8168570224622E-02
    36  3.5000000000000E-01  1.6718402549727E+00 -6.0890672424159E-03
    37  3.6000000000000E-01  1.6570967266591E+00  4.8536696557106E-02
    38  3.7000000000000E-01  1.6387142440205E+00  1.0537175267881E-01
    39  3.8000000000000E-01  1.6168406276333E+00  1.6406014161340E-01
    40  3.9000000000000E-01  1.5916360561199E+00  2.2423260694783E-01
    41  4.0000000000000E-01  1.5632710874053E+00  2.8551256377133E-01
    42  4.1000000000000E-01  1.5319245948820E+00  3.4752220688522E-01
    43  4.2000000000000E-01  1.4977816615306E+00  4.0988861889210E-01
    44  4.3000000000000E-01  1.4610314761052E+00  4.7224973614323E-01
    45  4.4000000000000E-01  1.4218652755110E+00  5.3426003186069E-01
    46  4.5000000000000E-01  1.3804743764608E+00  5.9559578054469E-01
    47  4.6000000000000E-01  1.3370483374159E+00  6.5595977596371E-01
    48  4.7000000000000E-01  1.2917732887280E+00  7.1508538645920E-01
    49  4.8000000000000E-01  1.2448304648692E+00  7.7273984575121E-01
    50  4.9000000000000E-01  1.1963949677510E+00  8.2872669460717E-01
    51  5.0000000000000E-01  1.1466347844985E+00  8.8288730825811E-01
    52  5.1000000000000E-01  1.0957100767901E+00  9.3510146588379E-01
    53  5.2000000000000E-01  1.0437727521387E+00  9.8528694135465E-01
    54  5.3000000000000E-01  9.9096632043631E-01  1.0333981181840E+00
    55  5.4000000000000E-01  9.3742603186982E-01  1.0794236557560E+00
    56  5.5000000000000E-01  8.8327928512577E-01  1.1233832577729E+00
    57  5.6000000000000E-01  8.2864628779483E-01  1.1653236169397E+00
    58  5.7000000000000E-01  7.7364094424892E-01  1.2053136315980E+00
    59  5.8000000000000E-01  7.1837194014972E-01  1.2434390097971E+00
    60  5.9000000000000E-01  6.6294398731848E-01  1.2797963936407E+00
    61  6.0000000000000E-01  6.0745918809188E-01  1.3144871512074E+00
    62  6.1000000000000E-01  5.5201847463077E-01  1.3476109945246E+00
    63  6.2000000000000E-01  4.9672307604236E-01  1.3792595896444E+00
    64  6.3000000000000E-01  4.4167596469787E-01  1.4095103285835E+00
    65  6.4000000000000E-01  3.8698323283454E-01  1.4384204325881E+00
    66  6.5000000000000E-01  3.3275535144559E-01  1.4660215517947E+00
    67  6.6000000000000E-01  2.7910826558532E-01  1.4923150179180E+00
    68  6.7000000000000E-01  2.2616428351698E-01  1.5172678942132E+00
    69  6.8000000000000E-01  1.7405272155055E-01  1.5408099508639E+00
    70  6.9000000000000E-01  1.2291027186884E-01  1.5628316744399E+00
    71  7.0000000000000E-01  7.2881067014171E-02  1.5831833975355E+00
    72  7.1000000000000E-01  2.4116421865168E-02  1.6016756096292E+00
    73  7.2000000000000E-01 -2.3225758276704E-02  1.6180804831101E+00
    74  7.3000000000000E-01 -6.8981906626514E-02  1.6321346199102E+00
    75  7.4000000000000E-01 -1.1298405550020E-01  1.6435429948909E+00
    76  7.5000000000000E-01 -1.5506141457209E-01  1.6519840427202E+00
    77  7.6000000000000E-01 -1.9504224436963E-01  1.6571158061324E+00
    78  7.7000000000000E-01 -2.3275599443291E-01  1.6585830358571E+00
    79  7.8000000000000E-01 -2.6803566795398E-01  1.6560251067974E+00
    80  7.9000000000000E-01 -3.0072036781257E-01  1.6490845918736E+00
    81  8.0000000000000E-01 -3.3065797291298E-01  1.6374163148882E+00
    82  8.1000000000000E-01 -3.5770788876040E-01  1.6206966873543E+00
    83  8.2000000000000E-01 -3.8174381242940E-01  1.5986331218940E+00
    84  8.3000000000000E-01 -4.0265644958232E-01  1.5709733069240E+00
    85  8.4000000000000E-01 -4.2035612007629E-01  1.5375141241726E+00
    86  8.5000000000000E-01 -4.3477518900499E-01  1.4981099922699E+00
    87  8.6000000000000E-01 -4.4587026177829E-01  1.4526804262886E+00
    88  8.7000000000000E-01 -4.5362408503696E-01  1.4012166146261E+00
    89  8.8000000000000E-01 -4.5804709978686E-01  1.3437868308412E+00
    90  8.9000000000000E-01 -4.5917859904083E-01  1.2805405187287E+00
    91  9.0000000000000E-01 -4.5708744936839E-01  1.2117109136361E+00
    92  9.1000000000000E-01 -4.5187234393751E-01  1.1376160913386E+00
    93  9.2000000000000E-01 -4.4366156372510E-01  1.0586583671172E+00
    94  9.3000000000000E-01 -4.3261223338782E-01  9.7532200139293E-01
    95  9.4000000000000E-01 -4.1890906861649E-01  8.8816920365586E-01
    96  9.5000000000000E-01 -4.0276262242566E-01  7.9783446273157E-01
    97  9.6000000000000E-01 -3.8440704852626E-01  7.0501726787824E-01
    98  9.7000000000000E-01 -3.6409741045320E-01  6.1047332098239E-01
    99  9.8000000000000E-01 -3.4210657524635E-01  5.1500437445920E-01
   100  9.9000000000000E-01 -3.1872173997174E-01  4.1944686154712E-01
   101  1.0000000000000E+00 -2.9424064800975E-01  3.2465951481032E-01
   102  1.0100000000000E+00 -2.6896755962034E-01  2.3151019411806E-01
   103  1.0200000000000E+00 -2.4320904764625E-01  1.4086216657517E-01
   104  1.0300000000000E+00 -2.1726969416625E-01  5.3560097265172E-02
   105  1.0400000000000E+00 -1.9144776734093E-01 -2.9583979160144E-02
   106  1.0500000000000E+00 -1.6603095950447E-01 -1.0780443038214E-01
   107  1.0600000000000E+00 -1.4129226767800E-01 -1.8039526628380E-01
   108  1.0700000000000E+00 -1.1748609609964E-01 -2.4672257720547E-01
   109  1.0800000000000E+00 -9.4844657072110E-02 -3.0623591278420E-01
   110  1.0900000000000E+00 -7.3574741499982E-02 -3.5847836090096E-01
   111  1.1000000000000E+00 -5.3854923967201E-02 -4.0309510899154E-01
   112  1.1100000000000E+00 -3.5833259255967E-02 -4.3984029753693E-01
   113  1.1200000000000E+00 -1.9625517942829E-02 -4.6858200755451E-01
   114  1.1300000000000E+00 -5.3139983331316E-03 -4.8930525964775E-01
   115  1.1400000000000E+00  7.0530592882167E-03 -5.0211294095294E-01
   116  1.1500000000000E+00  1.7461442083455E-02 -5.0722461739269E-01
   117  1.1600000000000E+00  2.5930316156142E-02 -5.0497323110459E-01
   118  1.1700000000000E+00  3.2510971079792E-02 -4.9579972592837E-01
   119  1.1800000000000E+00  3.7284980927521E-02 -4.8024568652605E-01
   120  1.1900000000000E+00  4.0361817383640E-02 -4.5894411802811E-01
   121  1.2000000000000E+00  4.1875962085735E-02 -4.3260853249675E-01
   122  1.2100000000000E+00  4.1983575961107E-02 -4.0202054459478E-01
   123  1.2200000000000E+00  4.0858792956564E-02 -3.6801621155352E-01
   124  1.2300000000000E+00  3.8689713798409E-02 -3.3147138042849E-01
   125  1.2400000000000E+00  3.5674182237142E-02 -2.9328632864357E-01
   126  1.2500000000000E+00  3.2015431394067E-02 -2.5437000115503E-01
   127  1.2600000000000E+00  2.7917691226276E-02 -2.1562415885673E-01
   128  1.2700000000000E+00  2.3581839228034E-02 -1.7792773433413E-01
   129  1.2800000000000E+00  1.9201264253732E-02 -1.4212188248355E-01
   130  1.2900000000000E+00  1.4956295728310E-02 -1.0899206190263E-01
   131  1.3000000000000E+00  1.1001257903254E-02 -7.9232539279952E-02
   132  1.3100000000000E+00  7.4876771775904E-03 -5.3496291271731E-02
   133  1.3200000000000E+00  4.5491847823887E-03 -3.2356751451019E-02
   134  1.3300000000000E+00  2.2903836682696E-03 -1.6273262800664E-02
   135  1.3400000000000E+00  7.8080432443290E-04 -5.5602131683336E-03
   136  1.3500000000000E+00  7.6516532009416E-05 -5.4809183721103E-04
   137  1.3600000000000E+00 -7.2069516276880E-06  5.1793686854610E-05
   138  1.3700000000000E+00  4.4343961566793E-07 -3.1763828285192E-06
   139  1.38  0.  0.
   140  1.39  0.  0.
   141  1.40  0.  0.
   142  1.41  0.  0.
   143  1.42  0.  0.
   144  1.43  0.  0.
   145  1.44  0.  0.
   146  1.45  0.  0.
   147  1.46  0.  0.
   148  1.47  0.  0.
   149  1.48  0.  0.
   150  1.49  0.  0.
   151  1.50  0.  0.
   152  1.51  0.  0.
   153  1.52  0.  0.
   154  1.53  0.  0.
   155  1.54  0.  0.
   156  1.55  0.  0.
   157  1.56  0.  0.
   158  1.57  0.  0.
   159  1.58  0.  0.
   160  1.59  0.  0.
   161  1.60  0.  0.
   162  1.61  0.  0.
   163  1.62  0.  0.
   164  1.63  0.  0.
   165  1.64  0.  0.
   166  1.65  0.  0.
   167  1.66  0.  0.
   168  1.67  0.  0.
   169  1.68  0.  0.
   170  1.69  0.  0.
   171  1.70  0.  0.
   172  1.71  0.  0.
   173  1.72  0.  0.
   174  1.73  0.  0.
   175  1.74  0.  0.
   176  1.75  0.  0.
   177  1.76  0.  0.
   178  1.77  0.  0.
   179  1.78  0.  0.
   180  1.79  0.  0.
   181  1.80  0.  0.
   182  1.81  0.  0.
   183  1.82  0.  0.
   184  1.83  0.  0.
   185  1.84  0.  0.
   186  1.85  0.  0.
   187  1.86  0.  0.
   188  1.87  0.  0.
   189  1.88  0.  0.
   190  1.89  0.  0.
   191  1.90  0.  0.
   192  1.91  0.  0.
   193  1.92  0.  0.
   194  1.93  0.  0.
   195  1.94  0.  0.
   196  1.95  0.  0.
   197  1.96  0.  0.
   198  1.97  0.  0.
   199  1.98  0.  0.
   200  1.99  0.  0.
   201  2.00  0.  0.
   202  2.01  0.  0.
   203  2.02  0.  0.
   204  2.03  0.  0.
   205  2.04  0.  0.
   206  2.05  0.  0.
   207  2.06  0.  0.
   208  2.07  0.  0.
   209  2.08  0.  0.
   210  2.09  0.  0.
   211  2.10  0.  0.
   212  2.11  0.  0.
   213  2.12  0.  0.
   214  2.13  0.  0.
   215  2.14  0.  0.
   216  2.15  0.  0.
   217  2.16  0.  0.
   218  2.17  0.  0.
   219  2.18  0.  0.
   220  2.19  0.  0.
   221  2.20  0.  0.
   222  2.21  0.  0.
   223  2.22  0.  0.
   224  2.23  0.  0.
   225  2.24  0.  0.
   226  2.25  0.  0.
   227  2.26  0.  0.
   228  2.27  0.  0.
   229  2.28  0.  0.
   230  2.29  0.  0.
   231  2.30  0.  0.
   232  2.31  0.  0.
   233  2.32  0.  0.
   234  2.33  0.  0.
   235  2.34  0.  0.
   236  2.35  0.  0.
   237  2.36  0.  0.
   238  2.37  0.  0.
   239  2.38  0.  0.
   240  2.39  0.  0.
   241  2.40  0.  0.
   242  2.41  0.  0.
   243  2.42  0.  0.
   244  2.43  0.  0.
   245  2.44  0.  0.
   246  2.45  0.  0.
   247  2.46  0.  0.
   248  2.47  0.  0.
   249  2.48  0.  0.
   250  2.49  0.  0.
   251  2.50  0.  0.
   252  2.51  0.  0.
   253  2.52  0.  0.
   254  2.53  0.  0.
   255  2.54  0.  0.
   256  2.55  0.  0.
   257  2.56  0.  0.
   258  2.57  0.  0.
   259  2.58  0.  0.
   260  2.59  0.  0.
   261  2.60  0.  0.
   262  2.61  0.  0.
   263  2.62  0.  0.
   264  2.63  0.  0.
   265  2.64  0.  0.
   266  2.65  0.  0.
   267  2.66  0.  0.
   268  2.67  0.  0.
   269  2.68  0.  0.
   270  2.69  0.  0.
   271  2.70  0.  0.
   272  2.71  0.  0.
   273  2.72  0.  0.
   274  2.73  0.  0.
   275  2.74  0.  0.
   276  2.75  0.  0.
   277  2.76  0.  0.
   278  2.77  0.  0.
   279  2.78  0.  0.
   280  2.79  0.  0.
   281  2.80  0.  0.
   282  2.81  0.  0.
   283  2.82  0.  0.
   284  2.83  0.  0.
   285  2.84  0.  0.
   286  2.85  0.  0.
   287  2.86  0.  0.
   288  2.87  0.  0.
   289  2.88  0.  0.
   290  2.89  0.  0.
   291  2.90  0.  0.
   292  2.91  0.  0.
   293  2.92  0.  0.
   294  2.93  0.  0.
   295  2.94  0.  0.
   296  2.95  0.  0.
   297  2.96  0.  0.
   298  2.97  0.  0.
   299  2.98  0.  0.
   300  2.99  0.  0.
   301  3.00  0.  0.
   302  3.01  0.  0.
   303  3.02  0.  0.
   304  3.03  0.  0.
   305  3.04  0.  0.
   306  3.05  0.  0.
   307  3.06  0.  0.
   308  3.07  0.  0.
   309  3.08  0.  0.
   310  3.09  0.  0.
   311  3.10  0.  0.
   312  3.11  0.  0.
   313  3.12  0.  0.
   314  3.13  0.  0.
   315  3.14  0.  0.
   316  3.15  0.  0.
   317  3.16  0.  0.
   318  3.17  0.  0.
   319  3.18  0.  0.
   320  3.19  0.  0.
   321  3.20  0.  0.
   322  3.21  0.  0.
   323  3.22  0.  0.
   324  3.23  0.  0.
   325  3.24  0.  0.
   326  3.25  0.  0.
   327  3.26  0.  0.
   328  3.27  0.  0.
   329  3.28  0.  0.
   330  3.29  0.  0.
   331  3.30  0.  0.
   332  3.31  0.  0.
   333  3.32  0.  0.
   334  3.33  0.  0.
   335  3.34  0.  0.
   336  3.35  0.  0.
   337  3.36  0.  0.
   338  3.37  0.  0.
   339  3.38  0.  0.
   340  3.39  0.  0.
   341  3.40  0.  0.
   342  3.41  0.  0.
   343  3.42  0.  0.
   344  3.43  0.  0.
   345  3.44  0.  0.
   346  3.45  0.  0.
   347  3.46  0.  0.
   348  3.47  0.  0.
   349  3.48  0.  0.
   350  3.49  0.  0.
   351  3.50  0.  0.
   352  3.51  0.  0.
   353  3.52  0.  0.
   354  3.53  0.  0.
   355  3.54  0.  0.
   356  3.55  0.  0.
   357  3.56  0.  0.
   358  3.57  0.  0.
   359  3.58  0.  0.
   360  3.59  0.  0.
   361  3.60  0.  0.
   362  3.61  0.  0.
   363  3.62  0.  0.
   364  3.63  0.  0.
   365  3.64  0.  0.
   366  3.65  0.  0.
   367  3.66  0.  0.
   368  3.67  0.  0.
   369  3.68  0.  0.
   370  3.69  0.  0.
   371  3.70  0.  0.
   372  3.71  0.  0.
   373  3.72  0.  0.
   374  3.73  0.  0.
   375  3.74  0.  0.
   376  3.75  0.  0.
   377  3.76  0.  0.
   378  3.77  0.  0.
   379  3.78  0.  0.
   380  3.79  0.  0.
   381  3.80  0.  0.
   382  3.81  0.  0.
   383  3.82  0.  0.
   384  3.83  0.  0.
   385  3.84  0.  0.
   386  3.85  0.  0.
   387  3.86  0.  0.
   388  3.87  0.  0.
   389  3.88  0.  0.
   390  3.89  0.  0.
   391  3.90  0.  0.
   392  3.91  0.  0.
   393  3.92  0.  0.
   394  3.93  0.  0.
   395  3.94  0.  0.
   396  3.95  0.  0.
   397  3.96  0.  0.
   398  3.97  0.  0.
   399  3.98  0.  0.
   400  3.99  0.  0.
   401  4.00  0.  0.
   402  4.01  0.  0.
   403  4.02  0.  0.
   404  4.03  0.  0.
   405  4.04  0.  0.
   406  4.05  0.  0.
   407  4.06  0.  0.
   408  4.07  0.  0.
   409  4.08  0.  0.
   410  4.09  0.  0.
   411  4.10  0.  0.
   412  4.11  0.  0.
   413  4.12  0.  0.
   414  4.13  0.  0.
   415  4.14  0.  0.
   416  4.15  0.  0.
   417  4.16  0.  0.
   418  4.17  0.  0.
   419  4.18  0.  0.
   420  4.19  0.  0.
   421  4.20  0.  0.
   422  4.21  0.  0.
   423  4.22  0.  0.
   424  4.23  0.  0.
   425  4.24  0.  0.
   426  4.25  0.  0.
   427  4.26  0.  0.
   428  4.27  0.  0.
   429  4.28  0.  0.
   430  4.29  0.  0.
   431  4.30  0.  0.
   432  4.31  0.  0.
   433  4.32  0.  0.
   434  4.33  0.  0.
   435  4.34  0.  0.
   436  4.35  0.  0.
   437  4.36  0.  0.
   438  4.37  0.  0.
   439  4.38  0.  0.
   440  4.39  0.  0.
   441  4.40  0.  0.
   442  4.41  0.  0.
   443  4.42  0.  0.
   444  4.43  0.  0.
   445  4.44  0.  0.
   446  4.45  0.  0.
   447  4.46  0.  0.
   448  4.47  0.  0.
   449  4.48  0.  0.
   450  4.49  0.  0.
   451  4.50  0.  0.
   452  4.51  0.  0.
   453  4.52  0.  0.
   454  4.53  0.  0.
   455  4.54  0.  0.
   456  4.55  0.  0.
   457  4.56  0.  0.
   458  4.57  0.  0.
   459  4.58  0.  0.
   460  4.59  0.  0.
   461  4.60  0.  0.
   462  4.61  0.  0.
   463  4.62  0.  0.
   464  4.63  0.  0.
   465  4.64  0.  0.
   466  4.65  0.  0.
   467  4.66  0.  0.
   468  4.67  0.  0.
   469  4.68  0.  0.
   470  4.69  0.  0.
   471  4.70  0.  0.
   472  4.71  0.  0.
   473  4.72  0.  0.
   474  4.73  0.  0.
   475  4.74  0.  0.
   476  4.75  0.  0.
   477  4.76  0.  0.
   478  4.77  0.  0.
   479  4.78  0.  0.
   480  4.79  0.  0.
   481  4.80  0.  0.
   482  4.81  0.  0.
   483  4.82  0.  0.
   484  4.83  0.  0.
   485  4.84  0.  0.
   486  4.85  0.  0.
   487  4.86  0.  0.
   488  4.87  0.  0.
   489  4.88  0.  0.
   490  4.89  0.  0.
   491  4.90  0.  0.
   492  4.91  0.  0.
   493  4.92  0.  0.
   494  4.93  0.  0.
   495  4.94  0.  0.
   496  4.95  0.  0.
   497  4.96  0.  0.
   498  4.97  0.  0.
   499  4.98  0.  0.
   500  4.99  0.  0.
   501  5.00  0.  0.
   502  5.01  0.  0.
   503  5.02  0.  0.
   504  5.03  0.  0.
   505  5.04  0.  0.
   506  5.05  0.  0.
   507  5.06  0.  0.
   508  5.07  0.  0.
   509  5.08  0.  0.
   510  5.09  0.  0.
   511  5.10  0.  0.
   512  5.11  0.  0.
   513  5.12  0.  0.
   514  5.13  0.  0.
   515  5.14  0.  0.
   516  5.15  0.  0.
   517  5.16  0.  0.
   518  5.17  0.  0.
   519  5.18  0.  0.
   520  5.19  0.  0.
   521  5.20  0.  0.
   522  5.21  0.  0.
   523  5.22  0.  0.
   524  5.23  0.  0.
   525  5.24  0.  0.
   526  5.25  0.  0.
   527  5.26  0.  0.
   528  5.27  0.  0.
   529  5.28  0.  0.
   530  5.29  0.  0.
   531  5.30  0.  0.
   532  5.31  0.  0.
   533  5.32  0.  0.
   534  5.33  0.  0.
   535  5.34  0.  0.
   536  5.35  0.  0.
   537  5.36  0.  0.
   538  5.37  0.  0.
   539  5.38  0.  0.
   540  5.39  0.  0.
   541  5.40  0.  0.
   542  5.41  0.  0.
   543  5.42  0.  0.
   544  5.43  0.  0.
   545  5.44  0.  0.
   546  5.45  0.  0.
   547  5.46  0.  0.
   548  5.47  0.  0.
   549  5.48  0.  0.
   550  5.49  0.  0.
   551  5.50  0.  0.
   552  5.51  0.  0.
   553  5.52  0.  0.
   554  5.53  0.  0.
   555  5.54  0.  0.
   556  5.55  0.  0.
   557  5.56  0.  0.
   558  5.57  0.  0.
   559  5.58  0.  0.
   560  5.59  0.  0.
   561  5.60  0.  0.
   562  5.61  0.  0.
   563  5.62  0.  0.
   564  5.63  0.  0.
   565  5.64  0.  0.
   566  5.65  0.  0.
   567  5.66  0.  0.
   568  5.67  0.  0.
   569  5.68  0.  0.
   570  5.69  0.  0.
   571  5.70  0.  0.
   572  5.71  0.  0.
   573  5.72  0.  0.
   574  5.73  0.  0.
   575  5.74  0.  0.
   576  5.75  0.  0.
   577  5.76  0.  0.
   578  5.77  0.  0.
   579  5.78  0.  0.
   580  5.79  0.  0.
   581  5.80  0.  0.
   582  5.81  0.  0.
   583  5.82  0.  0.
   584  5.83  0.  0.
   585  5.84  0.  0.
   586  5.85  0.  0.
   587  5.86  0.  0.
   588  5.87  0.  0.
   589  5.88  0.  0.
   590  5.89  0.  0.
   591  5.90  0.  0.
   592  5.91  0.  0.
   593  5.92  0.  0.
   594  5.93  0.  0.
   595  5.94  0.  0.
   596  5.95  0.  0.
   597  5.96  0.  0.
   598  5.97  0.  0.
   599  5.98  0.  0.
   600  5.99  0.  0.
   1                         1.8985911292198E+00 -7.7187370472330E-02
     1  0.0000000000000E+00 -1.6555512377670E-08 -5.6359555938206E-08
     2  1.0000000000000E-02  2.0284623496287E-03 -1.4189854638296E-04
     3  2.0000000000000E-02  8.1117884734159E-03 -5.4416139780982E-04
     4  3.0000000000000E-02  1.8243509656426E-02 -1.1375218362022E-03
     5  4.0000000000000E-02  3.2411902529121E-02 -1.8099361581889E-03
     6  5.0000000000000E-02  5.0598613792071E-02 -2.4115532296283E-03
     7  6.0000000000000E-02  7.2776809573575E-02 -2.7614130436051E-03
     8  7.0000000000000E-02  9.8908921307197E-02 -2.6556259390172E-03
     9  8.0000000000000E-02  1.2894407657176E-01 -1.8767277773133E-03
    10  9.0000000000000E-02  1.6281531707112E-01 -2.0386031323896E-04
    11  1.0000000000000E-01  2.0043671639579E-01  2.5766081556147E-03
    12  1.1000000000000E-01  2.4170051705487E-01  6.6604278077914E-03
    13  1.2000000000000E-01  2.8647440925439E-01  1.2215191032181E-02
    14  1.3000000000000E-01  3.3459907290529E-01  1.9370840748146E-02
    15  1.4000000000000E-01  3.8588609936923E-01  2.8211347830980E-02
    16  1.5000000000000E-01  4.4011640061489E-01  3.8767907208532E-02
    17  1.6000000000000E-01  4.9703920100007E-01  5.1013954649154E-02
    18  1.7000000000000E-01  5.5637169116772E-01  6.4862247558133E-02
    19  1.8000000000000E-01  6.1779940500106E-01  8.0164185040911E-02
    20  1.9000000000000E-01  6.8097735976587E-01  9.6711467207227E-02
    21  2.0000000000000E-01  7.4553197709414E-01  1.1424011356472E-01
    22  2.1000000000000E-01  8.1106377900211E-01  1.3243677794925E-01
    23  2.2000000000000E-01  8.7715082939572E-01  1.5094721544285E-01
    24  2.3000000000000E-01  9.4335286821725E-01  1.6938667783142E-01
    25  2.4000000000000E-01  1.0092160632441E+00  1.8735194099390E-01
    26  2.5000000000000E-01  1.0742782842502E+00  2.0443460268252E-01
    27  2.6000000000000E-01  1.1380747864197E+00  2.2023523472011E-01
    28  2.7000000000000E-01  1.2001441751298E+00  2.3437793167554E-01
    29  2.8000000000000E-01  1.2600345129822E+00  2.4652477018967E-01
    30  2.9000000000000E-01  1.3173094226365E+00  2.5638968050199E-01
    31  3.0000000000000E-01  1.3715540358619E+00  2.6375123510192E-01
    32  3.1000000000000E-01  1.4223806404177E+00  2.6846387903646E-01
    33  3.2000000000000E-01  1.4694338819222E+00  2.7046716198185E-01
    34  3.3000000000000E-01  1.5123953876631E+00  2.6979258296137E-01
    35  3.4000000000000E-01  1.5509876931075E+00  2.6656772330268E-01
    36  3.5000000000000E-01  1.5849773693259E+00  2.6101742036105E-01
    37  3.6000000000000E-01  1.6141772701863E+00  2.5346182155591E-01
    38  3.7000000000000E-01  1.6384478414306E+00  2.4431125289435E-01
    39  3.8000000000000E-01  1.6576974589664E+00  2.3405793561149E-01
    40  3.9000000000000E-01  1.6718817901780E+00  2.2326468587183E-01
    41  4.0000000000000E-01  1.6810021990112E+00  2.1255083254544E-01
    42  4.1000000000000E-01  1.6851032422458E+00  2.0257568378036E-01
    43  4.2000000000000E-01  1.6842693299387E+00  1.9401996137454E-01
    44  4.3000000000000E-01  1.6786206467534E+00  1.8756569991214E-01
    45  4.4000000000000E-01  1.6683084520516E+00  1.8387517262236E-01
    46  4.5000000000000E-01  1.6535098945859E+00  1.8356945562645E-01
    47  4.6000000000000E-01  1.6344224918091E+00  1.8720727476004E-01
    48  4.7000000000000E-01  1.6112584337705E+00  1.9526479306009E-01
    49  4.8000000000000E-01  1.5842388769427E+00  2.0811699138630E-01
    50  4.9000000000000E-01  1.5535883939184E+00  2.2602126916466E-01
    51  5.0000000000000E-01  1.5195297406489E+00  2.4910384714024E-01
    52  5.1000000000000E-01  1.4822790938422E+00  2.7734949013932E-01
    53  5.2000000000000E-01  1.4420418974987E+00  3.1059498657699E-01
    54  5.3000000000000E-01  1.3990094396861E+00  3.4852672475804E-01
    55  5.4000000000000E-01  1.3533562590083E+00  3.9068259636312E-01
    56  5.5000000000000E-01  1.3052384554003E+00  4.3645833777383E-01
    57  5.6000000000000E-01  1.2547929525607E+00  4.8511829332973E-01
    58  5.7000000000000E-01  1.2021377302916E+00  5.3581045474494E-01
    59  5.8000000000000E-01  1.1473730150738E+00  5.8758550145343E-01
    60  5.9000000000000E-01  1.0905833872344E+00  6.3941944136642E-01
    61  6.0000000000000E-01  1.0318407339334E+00  6.9023933416460E-01
    62  6.1000000000000E-01  9.7120794977472E-01  7.3895147339518E-01
    63  6.2000000000000E-01  9.0874326196269E-01  7.8447131265702E-01
    64  6.3000000000000E-01  8.4450503532884E-01  8.2575434802118E-01
    65  6.4000000000000E-01  7.7855689494017E-01  8.6182711610085E-01
    66  6.5000000000000E-01  7.1097299092692E-01  8.9181743687803E-01
    67  6.6000000000000E-01  6.4184322209192E-01  9.1498302393380E-01
    68  6.7000000000000E-01  5.7127823209236E-01  9.3073760290336E-01
    69  6.8000000000000E-01  4.9941399468198E-01  9.3867372187268E-01
    70  6.9000000000000E-01  4.2641581267292E-01  9.3858150445564E-01
    71  7.0000000000000E-01  3.5248156877341E-01  9.3046268613937E-01
    72  7.1000000000000E-01  2.7784408497360E-01  9.1453938519036E-01
    73  7.2000000000000E-01  2.0277247023524E-01  8.9125718838015E-01
    74  7.3000000000000E-01  1.2757236330127E-01  8.6128227585230E-01
    75  7.4000000000000E-01  5.2585007764346E-02  8.2549246494426E-01
    76  7.5000000000000E-01 -2.1814870692086E-02  7.8496221567271E-01
    77  7.6000000000000E-01 -9.5222380641455E-02  7.4094180652059E-01
    78  7.7000000000000E-01 -1.6720693568997E-01  6.9483105362421E-01
    79  7.8000000000000E-01 -2.3731780598062E-01  6.4814810489706E-01
    80  7.9000000000000E-01 -3.0509064356329E-01  6.0249398852567E-01
    81  8.0000000000000E-01 -3.7005484394109E-01  5.5951372836553E-01
    82  8.1000000000000E-01 -4.3174157852286E-01  5.2085495307592E-01
    83  8.2000000000000E-01 -4.8969230920948E-01  4.8812501784013E-01
    84  8.3000000000000E-01 -5.4346757764598E-01  4.6284772424077E-01
    85  8.4000000000000E-01 -5.9265584838646E-01  4.4642076295624E-01
    86  8.5000000000000E-01 -6.3688217780349E-01  4.4007501378232E-01
    87  8.6000000000000E-01 -6.7581647933080E-01  4.4483681719855E-01
    88  8.7000000000000E-01 -7.0918116069042E-01  4.6149428124115E-01
    89  8.8000000000000E-01 -7.3675792008236E-01  4.9056860756540E-01
    90  8.9000000000000E-01 -7.5839350569017E-01  5.3229131286760E-01
    91  9.0000000000000E-01 -7.7400426589177E-01  5.8658808863717E-01
    92  9.1000000000000E-01 -7.8357934571137E-01  6.5306988662042E-01
    93  9.2000000000000E-01 -7.8718241760875E-01  7.3103164312597E-01
    94  9.3000000000000E-01 -7.8495187084259E-01  8.1945886671836E-01
    95  9.4000000000000E-01 -7.7709942242902E-01  9.1704211567548E-01
    96  9.5000000000000E-01 -7.6390715311888E-01  1.0221991889399E+00
    97  9.6000000000000E-01 -7.4572301275983E-01  1.1331046524423E+00
    98  9.7000000000000E-01 -7.2295487976764E-01  1.2477261270589E+00
    99  9.8000000000000E-01 -6.9606329813243E-01  1.3638665801874E+00
   100  9.9000000000000E-01 -6.6555305131339E-01  1.4792116952357E+00
   101  1.0000000000000E+00 -6.3196376455484E-01  1.5913812467328E+00
   102  1.0100000000000E+00 -5.9585975464475E-01  1.6979832875698E+00
   103  1.0200000000000E+00 -5.5781936816279E-01  1.7966698625044E+00
   104  1.0300000000000E+00 -5.1842406512911E-01  1.8851929015369E+00
   105  1.0400000000000E+00 -4.7824751420820E-01  1.9614589199271E+00
   106  1.0500000000000E+00 -4.3784496790123E-01  2.0235811597775E+00
   107  1.0600000000000E+00 -3.9774318133318E-01  2.0699278514965E+00
   108  1.0700000000000E+00 -3.5843112640207E-01  2.0991653512364E+00
   109  1.0800000000000E+00 -3.2035173436796E-01  2.1102950214470E+00
   110  1.0900000000000E+00 -2.8389487499900E-01  2.1026828627078E+00
   111  1.1000000000000E+00 -2.4939174957024E-01  2.0760810738135E+00
   112  1.1100000000000E+00 -2.1711083931964E-01  2.0306409084188E+00
   113  1.1200000000000E+00 -1.8725551112320E-01  1.9669164067542E+00
   114  1.1300000000000E+00 -1.5996333931382E-01  1.8858588040862E+00
   115  1.1400000000000E+00 -1.3530715780664E-01  1.7888016483468E+00
   116  1.1500000000000E+00 -1.1329781116790E-01  1.6774368919218E+00
   117  1.1600000000000E+00 -9.3888528234295E-02  1.5537824507200E+00
   118  1.1700000000000E+00 -7.6980798516824E-02  1.4201419416570E+00
   119  1.1800000000000E+00 -6.2431591051502E-02  1.2790575119849E+00
   120  1.1900000000000E+00 -5.0061718815307E-02  1.1332568545336E+00
   121  1.2000000000000E+00 -3.9665120040872E-02  9.8559565839078E-01
   122  1.2100000000000E+00 -3.1018802000786E-02  8.3899686877649E-01
   123  1.2200000000000E+00 -2.3893161281883E-02  6.9638823567498E-01
   124  1.2300000000000E+00 -1.8062489827015E-02  5.6063956216303E-01
   125  1.2400000000000E+00 -1.3315076581094E-02  4.3450158280384E-01
   126  1.2500000000000E+00 -9.4849789056889E-03  3.2052071655952E-01
   127  1.2600000000000E+00 -6.4365330474905E-03  2.2100779082292E-01
   128  1.2700000000000E+00 -4.0336584486203E-03  1.3804352336212E-01
   129  1.2800000000000E+00 -2.1913251349328E-03  7.3389514858984E-02
   130  1.2900000000000E+00 -8.8068242194581E-04  2.8458722098453E-02
   131  1.3000000000000E+00 -1.3673938145942E-04  4.3856310697983E-03
   132  1.3100000000000E+00  1.5675920336130E-05 -3.3253161936746E-04
   133  1.3200000000000E+00 -2.7352788871938E-06  6.6232415584929E-05
   134  1.33  0.  0.
   135  1.34  0.  0.
   136  1.35  0.  0.
   137  1.36  0.  0.
   138  1.37  0.  0.
   139  1.38  0.  0.
   140  1.39  0.  0.
   141  1.40  0.  0.
   142  1.41  0.  0.
   143  1.42  0.  0.
   144  1.43  0.  0.
   145  1.44  0.  0.
   146  1.45  0.  0.
   147  1.46  0.  0.
   148  1.47  0.  0.
   149  1.48  0.  0.
   150  1.49  0.  0.
   151  1.50  0.  0.
   152  1.51  0.  0.
   153  1.52  0.  0.
   154  1.53  0.  0.
   155  1.54  0.  0.
   156  1.55  0.  0.
   157  1.56  0.  0.
   158  1.57  0.  0.
   159  1.58  0.  0.
   160  1.59  0.  0.
   161  1.60  0.  0.
   162  1.61  0.  0.
   163  1.62  0.  0.
   164  1.63  0.  0.
   165  1.64  0.  0.
   166  1.65  0.  0.
   167  1.66  0.  0.
   168  1.67  0.  0.
   169  1.68  0.  0.
   170  1.69  0.  0.
   171  1.70  0.  0.
   172  1.71  0.  0.