Ti    ONCVPSP-4.0.1  r_core=   1.35405   1.30632   1.65946
     22.0000     12.0000      231019    zatom,zion,pspd
     8       2   2     4   600     0    pspcod,pspxc,lmax,lloc,mmax,r2well
  5.99000000  2.50000000  0.00000000    rchrg fchrg qchrg
     2     2     2     0     0    nproj
     1     1           extension_switch
   0                         1.0888421391904E+01  1.1402398385275E+00
     1  0.0000000000000E+00  3.4291177675172E-09 -1.0878029643724E-08
     2  1.0000000000000E-02  8.1806706724673E-02 -2.7830400037728E-02
     3  2.0000000000000E-02  1.6345227403864E-01 -5.5597030343550E-02
     4  3.0000000000000E-02  2.4477481619827E-01 -8.3232878337519E-02
     5  4.0000000000000E-02  3.2561098921033E-01 -1.1066455466210E-01
     6  5.0000000000000E-02  4.0579534683545E-01 -1.3780937419198E-01
     7  6.0000000000000E-02  4.8515979621286E-01 -1.6457275228144E-01
     8  7.0000000000000E-02  5.6353318215938E-01 -1.9084600814176E-01
     9  8.0000000000000E-02  6.4074102576627E-01 -2.1650465636346E-01
    10  9.0000000000000E-02  7.1660543879240E-01 -2.4140725451917E-01
    11  1.0000000000000E-01  7.9094523063167E-01 -2.6539485983067E-01
    12  1.1000000000000E-01  8.6357621943440E-01 -2.8829113143337E-01
    13  1.2000000000000E-01  9.3431175341386E-01 -3.0990309723571E-01
    14  1.3000000000000E-01  1.0029634426089E+00 -3.3002258619336E-01
    15  1.4000000000000E-01  1.0693420955439E+00 -3.4842830845642E-01
    16  1.5000000000000E-01  1.1332588494739E+00 -3.6488854777143E-01
    17  1.6000000000000E-01  1.1945264773709E+00 -3.7916441318753E-01
    18  1.7000000000000E-01  1.2529608496352E+00 -3.9101358097682E-01
    19  1.8000000000000E-01  1.3083825238334E+00 -4.0019444314848E-01
    20  1.9000000000000E-01  1.3606184316993E+00 -4.0647056639898E-01
    21  2.0000000000000E-01  1.4095036292786E+00 -4.0961535512889E-01
    22  2.1000000000000E-01  1.4548830735589E+00 -4.0941680455192E-01
    23  2.2000000000000E-01  1.4966133872545E+00 -4.0568222513945E-01
    24  2.3000000000000E-01  1.5345645726765E+00 -3.9824281783308E-01
    25  2.4000000000000E-01  1.5686216358297E+00 -3.8695798069583E-01
    26  2.5000000000000E-01  1.5986860830440E+00 -3.7171923196053E-01
    27  2.6000000000000E-01  1.6246772545541E+00 -3.5245364169944E-01
    28  2.7000000000000E-01  1.6465334624420E+00 -3.2912667443364E-01
    29  2.8000000000000E-01  1.6642129041871E+00 -3.0174435770692E-01
    30  2.9000000000000E-01  1.6776943276473E+00 -2.7035470668166E-01
    31  3.0000000000000E-01  1.6869774285144E+00 -2.3504835182770E-01
    32  3.1000000000000E-01  1.6920829670295E+00 -1.9595833537360E-01
    33  3.2000000000000E-01  1.6930525968761E+00 -1.5325906193175E-01
    34  3.3000000000000E-01  1.6899484055449E+00 -1.0716440912116E-01
    35  3.4000000000000E-01  1.6828521719317E+00 -5.7925024599925E-02
    36  3.5000000000000E-01  1.6718643533377E+00 -5.8248561780071E-03
    37  3.6000000000000E-01  1.6571028202303E+00  4.8823018894809E-02
    38  3.7000000000000E-01  1.6387013629406E+00  1.0568118126635E-01
    39  3.8000000000000E-01  1.6168079997817E+00  1.6439317292811E-01
    40  3.9000000000000E-01  1.5915831207316E+00  2.2458920214505E-01
    41  4.0000000000000E-01  1.5631975047169E+00  2.8589212372409E-01
    42  4.1000000000000E-01  1.5318302515622E+00  3.4792355986359E-01
    43  4.2000000000000E-01  1.4976666717452E+00  4.1031002137318E-01
    44  4.3000000000000E-01  1.4608961781643E+00  4.7268888694214E-01
    45  4.4000000000000E-01  1.4217102241445E+00  5.3471409946490E-01
    46  4.5000000000000E-01  1.3803003308698E+00  5.9606144322619E-01
    47  4.6000000000000E-01  1.3368562453412E+00  6.5643327394219E-01
    48  4.7000000000000E-01  1.2915642668725E+00  7.1556258510197E-01
    49  4.8000000000000E-01  1.2446057760919E+00  7.7321630852952E-01
    50  4.9000000000000E-01  1.1961559955301E+00  8.2919776428849E-01
    51  5.0000000000000E-01  1.1463830052224E+00  8.8334819460767E-01
    52  5.1000000000000E-01  1.0954470304919E+00  9.3554733797930E-01
    53  5.2000000000000E-01  1.0435000123243E+00  9.8571302249160E-01
    54  5.3000000000000E-01  9.9068546368416E-01  1.0337997812670E+00
    55  5.4000000000000E-01  9.3713860788636E-01  1.0797965170377E+00
    56  5.5000000000000E-01  8.8298678793498E-01  1.1237232668168E+00
    57  5.6000000000000E-01  8.2835012871735E-01  1.1656271407460E+00
    58  5.7000000000000E-01  7.7334242728761E-01  1.2055775309435E+00
    59  5.8000000000000E-01  7.1807224034636E-01  1.2436607059966E+00
    60  5.9000000000000E-01  6.6264413258000E-01  1.2799739241362E+00
    61  6.0000000000000E-01  6.0716004490628E-01  1.3146192126285E+00
    62  6.1000000000000E-01  5.5172073800488E-01  1.3476969721347E+00
    63  6.2000000000000E-01  4.9642726389597E-01  1.3792995723822E+00
    64  6.3000000000000E-01  4.4138241684665E-01  1.4095051092309E+00
    65  6.4000000000000E-01  3.8669211458664E-01  1.4383714929217E+00
    66  6.5000000000000E-01  3.3246666172886E-01  1.4659310329211E+00
    67  6.6000000000000E-01  2.7882184941484E-01  1.4921856763223E+00
    68  6.7000000000000E-01  2.2587984850897E-01  1.5171030443814E+00
    69  6.8000000000000E-01  1.7376985809109E-01  1.5406133956464E+00
    70  6.9000000000000E-01  1.2262847645669E-01  1.5626076246077E+00
    71  7.0000000000000E-01  7.2599768217779E-02  1.5829363822384E+00
    72  7.1000000000000E-01  2.3835008267955E-02  1.6014103796793E+00
    73  7.2000000000000E-01 -2.3507908821748E-02  1.6178019091909E+00
    74  7.3000000000000E-01 -6.9265397148511E-02  1.6318475879427E+00
    75  7.4000000000000E-01 -1.1326944020517E-01  1.6432523008647E+00
    76  7.5000000000000E-01 -1.5534917002137E-01  1.6516942893291E+00
    77  7.6000000000000E-01 -1.9533274226913E-01  1.6568313035265E+00
    78  7.7000000000000E-01 -2.3304947673002E-01  1.6583077087481E+00
    79  7.8000000000000E-01 -2.6833222489234E-01  1.6557624100258E+00
    80  7.9000000000000E-01 -3.0101991953219E-01  1.6488374363678E+00
    81  8.0000000000000E-01 -3.3096025510673E-01  1.6371870057262E+00
    82  8.1000000000000E-01 -3.5801244280866E-01  1.6204868753754E+00
    83  8.2000000000000E-01 -3.8204998033434E-01  1.5984437700122E+00
    84  8.3000000000000E-01 -4.0296337391548E-01  1.5708046719713E+00
    85  8.4000000000000E-01 -4.2066274903786E-01  1.5373657547545E+00
    86  8.5000000000000E-01 -4.3508028657576E-01  1.4979807427580E+00
    87  8.6000000000000E-01 -4.4617242282615E-01  1.4525684867134E+00
    88  8.7000000000000E-01 -4.5392175512295E-01  1.4011195558710E+00
    89  8.8000000000000E-01 -4.5833859930351E-01  1.3437016641937E+00
    90  8.9000000000000E-01 -4.5946215121028E-01  1.2804637685128E+00
    91  9.0000000000000E-01 -4.5736121153262E-01  1.2116387013506E+00
    92  9.1000000000000E-01 -4.5213444148914E-01  1.1375442294560E+00
    93  9.2000000000000E-01 -4.4391012595807E-01  1.0585824604718E+00
    94  9.3000000000000E-01 -4.3284543049333E-01  9.7523755390423E-01
    95  9.4000000000000E-01 -4.1912514901253E-01  8.8807172800029E-01
    96  9.5000000000000E-01 -4.0295994959023E-01  7.9771959049826E-01
    97  9.6000000000000E-01 -3.8458413650372E-01  7.0488085772037E-01
    98  9.7000000000000E-01 -3.6425295722228E-01  6.1031156230848E-01
    99  9.8000000000000E-01 -3.4223949317532E-01  5.1481388429706E-01
   100  9.9000000000000E-01 -3.1883118264140E-01  4.1922477235612E-01
   101  1.0000000000000E+00 -2.9432603275674E-01  3.2440355121034E-01
   102  1.0100000000000E+00 -2.6902858524034E-01  2.3121873674468E-01
   103  1.0200000000000E+00 -2.4324570679721E-01  1.4053430155203E-01
   104  1.0300000000000E+00 -2.1728228012372E-01  5.3195650102298E-02
   105  1.0400000000000E+00 -1.9143687487804E-01 -2.9984426087455E-02
   106  1.0500000000000E+00 -1.6599747979629E-01 -1.0823953725253E-01
   107  1.0600000000000E+00 -1.4123737726008E-01 -1.8086295224712E-01
   108  1.0700000000000E+00 -1.1741124004151E-01 -2.4722005351431E-01
   109  1.0800000000000E+00 -9.4751526654779E-02 -3.0675973197825E-01
   110  1.0900000000000E+00 -7.3465246809630E-02 -3.5902448101742E-01
   111  1.1000000000000E+00 -5.3731161932029E-02 -4.0365897143157E-01
   112  1.1100000000000E+00 -3.5697477757454E-02 -4.4041691690439E-01
   113  1.1200000000000E+00 -1.9480076723546E-02 -4.6916607150629E-01
   114  1.1300000000000E+00 -5.1613274989791E-03 -4.8989123656105E-01
   115  1.1400000000000E+00  7.2105023149302E-03 -5.0269519303017E-01
   116  1.1500000000000E+00  1.7621216263524E-02 -5.0779751669208E-01
   117  1.1600000000000E+00  2.6090040268522E-02 -5.0553127590943E-01
   118  1.1700000000000E+00  3.2668365974676E-02 -4.9633765484995E-01
   119  1.1800000000000E+00  3.7437909699760E-02 -4.8075858777681E-01
   120  1.1900000000000E+00  4.0508322608447E-02 -4.5942753140074E-01
   121  1.2000000000000E+00  4.2014299317726E-02 -4.3305854174085E-01
   122  1.2100000000000E+00  4.2112242774365E-02 -4.0243385809046E-01
   123  1.2200000000000E+00  4.0976552896867E-02 -3.6839022943827E-01
   124  1.2300000000000E+00  3.8795614726233E-02 -3.3180424663262E-01
   125  1.2400000000000E+00  3.5767568659938E-02 -2.9357696662467E-01
   126  1.2500000000000E+00  3.2095950515388E-02 -2.5461813248582E-01
   127  1.2600000000000E+00  2.7985292575500E-02 -2.1583030420501E-01
   128  1.2700000000000E+00  2.3636767867886E-02 -1.7809319675461E-01
   129  1.2800000000000E+00  1.9244047751520E-02 -1.4224871345977E-01
   130  1.2900000000000E+00  1.4987724249469E-02 -1.0908300857880E-01
   131  1.3000000000000E+00  1.1022354253409E-02 -7.9290965035745E-02
   132  1.3100000000000E+00  7.4996758850830E-03 -5.3526117216266E-02
   133  1.3200000000000E+00  4.5534989876664E-03 -3.2362366586257E-02
   134  1.3300000000000E+00  2.2885631729462E-03 -1.6259411436055E-02
   135  1.3400000000000E+00  7.7463150160249E-04 -5.5324524353634E-03
   136  1.3500000000000E+00  6.6401390272785E-05 -5.0629653895142E-04
   137  1.3600000000000E+00 -9.6998242249878E-06  6.1972434980484E-05
   138  1.3700000000000E+00  5.5249600488064E-07 -3.6213416050102E-06
   139  1.38  0. -0.
   140  1.39  0.  0.
   141  1.40  0.  0.
   142  1.41  0.  0.
   143  1.42  0.  0.
   144  1.43  0.  0.
   145  1.44  0.  0.
   146  1.45  0.  0.
   147  1.46  0.  0.
   148  1.47  0.  0.
   149  1.48  0.  0.
   150  1.49  0.  0.
   151  1.50  0.  0.
   152  1.51  0.  0.
   153  1.52  0.  0.
   154  1.53  0.  0.
   155  1.54  0.  0.
   156  1.55  0.  0.
   157  1.56  0.  0.
   158  1.57  0.  0.
   159  1.58  0.  0.
   160  1.59  0.  0.
   161  1.60  0.  0.
   162  1.61  0.  0.
   163  1.62  0.  0.
   164  1.63  0.  0.
   165  1.64  0.  0.
   166  1.65  0.  0.
   167  1.66  0.  0.
   168  1.67  0.  0.
   169  1.68  0.  0.
   170  1.69  0.  0.
   171  1.70  0.  0.
   172  1.71  0.  0.
   173  1.72  0.  0.
   174  1.73  0.  0.
   175  1.74  0.  0.
   176  1.75  0.  0.
   177  1.76  0.  0.
   178  1.77  0.  0.
   179  1.78  0.  0.
   180  1.79  0.  0.
   181  1.80  0.  0.
   182  1.81  0.  0.
   183  1.82  0.  0.
   184  1.83  0.  0.
   185  1.84  0.  0.
   186  1.85  0.  0.
   187  1.86  0.  0.
   188  1.87  0.  0.
   189  1.88  0.  0.
   190  1.89  0.  0.
   191  1.90  0.  0.
   192  1.91  0.  0.
   193  1.92  0.  0.
   194  1.93  0.  0.
   195  1.94  0.  0.
   196  1.95  0.  0.
   197  1.96  0.  0.
   198  1.97  0.  0.
   199  1.98  0.  0.
   200  1.99  0.  0.
   201  2.00  0.  0.
   202  2.01  0.  0.
   203  2.02  0.  0.
   204  2.03  0.  0.
   205  2.04  0.  0.
   206  2.05  0.  0.
   207  2.06  0.  0.
   208  2.07  0.  0.
   209  2.08  0.  0.
   210  2.09  0.  0.
   211  2.10  0.  0.
   212  2.11  0.  0.
   213  2.12  0.  0.
   214  2.13  0.  0.
   215  2.14  0.  0.
   216  2.15  0.  0.
   217  2.16  0.  0.
   218  2.17  0.  0.
   219  2.18  0.  0.
   220  2.19  0.  0.
   221  2.20  0.  0.
   222  2.21  0.  0.
   223  2.22  0.  0.
   224  2.23  0.  0.
   225  2.24  0.  0.
   226  2.25  0.  0.
   227  2.26  0.  0.
   228  2.27  0.  0.
   229  2.28  0.  0.
   230  2.29  0.  0.
   231  2.30  0.  0.
   232  2.31  0.  0.
   233  2.32  0.  0.
   234  2.33  0.  0.
   235  2.34  0.  0.
   236  2.35  0.  0.
   237  2.36  0.  0.
   238  2.37  0.  0.
   239  2.38  0.  0.
   240  2.39  0.  0.
   241  2.40  0.  0.
   242  2.41  0.  0.
   243  2.42  0.  0.
   244  2.43  0.  0.
   245  2.44  0.  0.
   246  2.45  0.  0.
   247  2.46  0.  0.
   248  2.47  0.  0.
   249  2.48  0.  0.
   250  2.49  0.  0.
   251  2.50  0.  0.
   252  2.51  0.  0.
   253  2.52  0.  0.
   254  2.53  0.  0.
   255  2.54  0.  0.
   256  2.55  0.  0.
   257  2.56  0.  0.
   258  2.57  0.  0.
   259  2.58  0.  0.
   260  2.59  0.  0.
   261  2.60  0.  0.
   262  2.61  0.  0.
   263  2.62  0.  0.
   264  2.63  0.  0.
   265  2.64  0.  0.
   266  2.65  0.  0.
   267  2.66  0.  0.
   268  2.67  0.  0.
   269  2.68  0.  0.
   270  2.69  0.  0.
   271  2.70  0.  0.
   272  2.71  0.  0.
   273  2.72  0.  0.
   274  2.73  0.  0.
   275  2.74  0.  0.
   276  2.75  0.  0.
   277  2.76  0.  0.
   278  2.77  0.  0.
   279  2.78  0.  0.
   280  2.79  0.  0.
   281  2.80  0.  0.
   282  2.81  0.  0.
   283  2.82  0.  0.
   284  2.83  0.  0.
   285  2.84  0.  0.
   286  2.85  0.  0.
   287  2.86  0.  0.
   288  2.87  0.  0.
   289  2.88  0.  0.
   290  2.89  0.  0.
   291  2.90  0.  0.
   292  2.91  0.  0.
   293  2.92  0.  0.
   294  2.93  0.  0.
   295  2.94  0.  0.
   296  2.95  0.  0.
   297  2.96  0.  0.
   298  2.97  0.  0.
   299  2.98  0.  0.
   300  2.99  0.  0.
   301  3.00  0.  0.
   302  3.01  0.  0.
   303  3.02  0.  0.
   304  3.03  0.  0.
   305  3.04  0.  0.
   306  3.05  0.  0.
   307  3.06  0.  0.
   308  3.07  0.  0.
   309  3.08  0.  0.
   310  3.09  0.  0.
   311  3.10  0.  0.
   312  3.11  0.  0.
   313  3.12  0.  0.
   314  3.13  0.  0.
   315  3.14  0.  0.
   316  3.15  0.  0.
   317  3.16  0.  0.
   318  3.17  0.  0.
   319  3.18  0.  0.
   320  3.19  0.  0.
   321  3.20  0.  0.
   322  3.21  0.  0.
   323  3.22  0.  0.
   324  3.23  0.  0.
   325  3.24  0.  0.
   326  3.25  0.  0.
   327  3.26  0.  0.
   328  3.27  0.  0.
   329  3.28  0.  0.
   330  3.29  0.  0.
   331  3.30  0.  0.
   332  3.31  0.  0.
   333  3.32  0.  0.
   334  3.33  0.  0.
   335  3.34  0.  0.
   336  3.35  0.  0.
   337  3.36  0.  0.
   338  3.37  0.  0.
   339  3.38  0.  0.
   340  3.39  0.  0.
   341  3.40  0.  0.
   342  3.41  0.  0.
   343  3.42  0.  0.
   344  3.43  0.  0.
   345  3.44  0.  0.
   346  3.45  0.  0.
   347  3.46  0.  0.
   348  3.47  0.  0.
   349  3.48  0.  0.
   350  3.49  0.  0.
   351  3.50  0.  0.
   352  3.51  0.  0.
   353  3.52  0.  0.
   354  3.53  0.  0.
   355  3.54  0.  0.
   356  3.55  0.  0.
   357  3.56  0.  0.
   358  3.57  0.  0.
   359  3.58  0.  0.
   360  3.59  0.  0.
   361  3.60  0.  0.
   362  3.61  0.  0.
   363  3.62  0.  0.
   364  3.63  0.  0.
   365  3.64  0.  0.
   366  3.65  0.  0.
   367  3.66  0.  0.
   368  3.67  0.  0.
   369  3.68  0.  0.
   370  3.69  0.  0.
   371  3.70  0.  0.
   372  3.71  0.  0.
   373  3.72  0.  0.
   374  3.73  0.  0.
   375  3.74  0.  0.
   376  3.75  0.  0.
   377  3.76  0.  0.
   378  3.77  0.  0.
   379  3.78  0.  0.
   380  3.79  0.  0.
   381  3.80  0.  0.
   382  3.81  0.  0.
   383  3.82  0.  0.
   384  3.83  0.  0.
   385  3.84  0.  0.
   386  3.85  0.  0.
   387  3.86  0.  0.
   388  3.87  0.  0.
   389  3.88  0.  0.
   390  3.89  0.  0.
   391  3.90  0.  0.
   392  3.91  0.  0.
   393  3.92  0.  0.
   394  3.93  0.  0.
   395  3.94  0.  0.
   396  3.95  0.  0.
   397  3.96  0.  0.
   398  3.97  0.  0.
   399  3.98  0.  0.
   400  3.99  0.  0.
   401  4.00  0.  0.
   402  4.01  0.  0.
   403  4.02  0.  0.
   404  4.03  0.  0.
   405  4.04  0.  0.
   406  4.05  0.  0.
   407  4.06  0.  0.
   408  4.07  0.  0.
   409  4.08  0.  0.
   410  4.09  0.  0.
   411  4.10  0.  0.
   412  4.11  0.  0.
   413  4.12  0.  0.
   414  4.13  0.  0.
   415  4.14  0.  0.
   416  4.15  0.  0.
   417  4.16  0.  0.
   418  4.17  0.  0.
   419  4.18  0.  0.
   420  4.19  0.  0.
   421  4.20  0.  0.
   422  4.21  0.  0.
   423  4.22  0.  0.
   424  4.23  0.  0.
   425  4.24  0.  0.
   426  4.25  0.  0.
   427  4.26  0.  0.
   428  4.27  0.  0.
   429  4.28  0.  0.
   430  4.29  0.  0.
   431  4.30  0.  0.
   432  4.31  0.  0.
   433  4.32  0.  0.
   434  4.33  0.  0.
   435  4.34  0.  0.
   436  4.35  0.  0.
   437  4.36  0.  0.
   438  4.37  0.  0.
   439  4.38  0.  0.
   440  4.39  0.  0.
   441  4.40  0.  0.
   442  4.41  0.  0.
   443  4.42  0.  0.
   444  4.43  0.  0.
   445  4.44  0.  0.
   446  4.45  0.  0.
   447  4.46  0.  0.
   448  4.47  0.  0.
   449  4.48  0.  0.
   450  4.49  0.  0.
   451  4.50  0.  0.
   452  4.51  0.  0.
   453  4.52  0.  0.
   454  4.53  0.  0.
   455  4.54  0.  0.
   456  4.55  0.  0.
   457  4.56  0.  0.
   458  4.57  0.  0.
   459  4.58  0.  0.
   460  4.59  0.  0.
   461  4.60  0.  0.
   462  4.61  0.  0.
   463  4.62  0.  0.
   464  4.63  0.  0.
   465  4.64  0.  0.
   466  4.65  0.  0.
   467  4.66  0.  0.
   468  4.67  0.  0.
   469  4.68  0.  0.
   470  4.69  0.  0.
   471  4.70  0.  0.
   472  4.71  0.  0.
   473  4.72  0.  0.
   474  4.73  0.  0.
   475  4.74  0.  0.
   476  4.75  0.  0.
   477  4.76  0.  0.
   478  4.77  0.  0.
   479  4.78  0.  0.
   480  4.79  0.  0.
   481  4.80  0.  0.
   482  4.81  0.  0.
   483  4.82  0.  0.
   484  4.83  0.  0.
   485  4.84  0.  0.
   486  4.85  0.  0.
   487  4.86  0.  0.
   488  4.87  0.  0.
   489  4.88  0.  0.
   490  4.89  0.  0.
   491  4.90  0.  0.
   492  4.91  0.  0.
   493  4.92  0.  0.
   494  4.93  0.  0.
   495  4.94  0.  0.
   496  4.95  0.  0.
   497  4.96  0.  0.
   498  4.97  0.  0.
   499  4.98  0.  0.
   500  4.99  0.  0.
   501  5.00  0.  0.
   502  5.01  0.  0.
   503  5.02  0.  0.
   504  5.03  0.  0.
   505  5.04  0.  0.
   506  5.05  0.  0.
   507  5.06  0.  0.
   508  5.07  0.  0.
   509  5.08  0.  0.
   510  5.09  0.  0.
   511  5.10  0.  0.
   512  5.11  0.  0.
   513  5.12  0.  0.
   514  5.13  0.  0.
   515  5.14  0.  0.
   516  5.15  0.  0.
   517  5.16  0.  0.
   518  5.17  0.  0.
   519  5.18  0.  0.
   520  5.19  0.  0.
   521  5.20  0.  0.
   522  5.21  0.  0.
   523  5.22  0.  0.
   524  5.23  0.  0.
   525  5.24  0.  0.
   526  5.25  0.  0.
   527  5.26  0.  0.
   528  5.27  0.  0.
   529  5.28  0.  0.
   530  5.29  0.  0.
   531  5.30  0.  0.
   532  5.31  0.  0.
   533  5.32  0.  0.
   534  5.33  0.  0.
   535  5.34  0.  0.
   536  5.35  0.  0.
   537  5.36  0.  0.
   538  5.37  0.  0.
   539  5.38  0.  0.
   540  5.39  0.  0.
   541  5.40  0.  0.
   542  5.41  0.  0.
   543  5.42  0.  0.
   544  5.43  0.  0.
   545  5.44  0.  0.
   546  5.45  0.  0.
   547  5.46  0.  0.
   548  5.47  0.  0.
   549  5.48  0.  0.
   550  5.49  0.  0.
   551  5.50  0.  0.
   552  5.51  0.  0.
   553  5.52  0.  0.
   554  5.53  0.  0.
   555  5.54  0.  0.
   556  5.55  0.  0.
   557  5.56  0.  0.
   558  5.57  0.  0.
   559  5.58  0.  0.
   560  5.59  0.  0.
   561  5.60  0.  0.
   562  5.61  0.  0.
   563  5.62  0.  0.
   564  5.63  0.  0.
   565  5.64  0.  0.
   566  5.65  0.  0.
   567  5.66  0.  0.
   568  5.67  0.  0.
   569  5.68  0.  0.
   570  5.69  0.  0.
   571  5.70  0.  0.
   572  5.71  0.  0.
   573  5.72  0.  0.
   574  5.73  0.  0.
   575  5.74  0.  0.
   576  5.75  0.  0.
   577  5.76  0.  0.
   578  5.77  0.  0.
   579  5.78  0.  0.
   580  5.79  0.  0.
   581  5.80  0.  0.
   582  5.81  0.  0.
   583  5.82  0.  0.
   584  5.83  0.  0.
   585  5.84  0.  0.
   586  5.85  0.  0.
   587  5.86  0.  0.
   588  5.87  0.  0.
   589  5.88  0.  0.
   590  5.89  0.  0.
   591  5.90  0.  0.
   592  5.91  0.  0.
   593  5.92  0.  0.
   594  5.93  0.  0.
   595  5.94  0.  0.
   596  5.95  0.  0.
   597  5.96  0.  0.
   598  5.97  0.  0.
   599  5.98  0.  0.
   600  5.99  0.  0.
   1                         1.8985755104876E+00 -7.7396499205354E-02
     1  0.0000000000000E+00 -1.6603313696129E-08 -5.6019750081793E-08
     2  1.0000000000000E-02  2.0290620991971E-03 -1.4618402902112E-04
     3  2.0000000000000E-02  8.1141952741082E-03 -5.6138435379443E-04
     4  3.0000000000000E-02  1.8248953455568E-02 -1.1765714056359E-03
     5  4.0000000000000E-02  3.2421648510744E-02 -1.8800772086139E-03
     6  5.0000000000000E-02  5.0613971320694E-02 -2.5225364586756E-03
     7  6.0000000000000E-02  7.2799136252313E-02 -2.9235468015364E-03
     8  7.0000000000000E-02  9.8939621122312E-02 -2.8798014887600E-03
     9  8.0000000000000E-02  1.2898459135414E-01 -2.1743915716997E-03
    10  9.0000000000000E-02  1.6286711080063E-01 -5.8692901694560E-04
    11  1.0000000000000E-01  2.0050125219798E-01  2.0958918252625E-03
    12  1.1000000000000E-01  2.4177922707801E-01  6.0696978690288E-03
    13  1.2000000000000E-01  2.8656865795654E-01  1.1502216592976E-02
    14  1.3000000000000E-01  3.3471011461353E-01  1.8523834400072E-02
    15  1.4000000000000E-01  3.8601503128327E-01  2.7219316233483E-02
    16  1.5000000000000E-01  4.4026411270341E-01  3.7621033911667E-02
    17  1.6000000000000E-01  4.9720632446934E-01  4.9704003402800E-02
    18  1.7000000000000E-01  5.5655854735873E-01  6.3382972922718E-02
    19  1.8000000000000E-01  6.1800595668534E-01  7.8511736109810E-02
    20  1.9000000000000E-01  6.8120316685600E-01  9.4884769715921E-02
    21  2.0000000000000E-01  7.4577615875838E-01  1.1224121562685E-01
    22  2.1000000000000E-01  8.1132498407290E-01  1.3027114513848E-01
    23  2.2000000000000E-01  8.7742721678920E-01  1.4862396192663E-01
    24  2.3000000000000E-01  9.4364209884038E-01  1.6691872174125E-01
    25  2.4000000000000E-01  1.0095153045620E+00  1.8475607414539E-01
    26  2.5000000000000E-01  1.0745842283279E+00  2.0173146708998E-01
    27  2.6000000000000E-01  1.1383836818502E+00  2.1744920101325E-01
    28  2.7000000000000E-01  1.2004518728255E+00  2.3153687744787E-01
    29  2.8000000000000E-01  1.2603365253524E+00  2.4365975939233E-01
    30  2.9000000000000E-01  1.3176009952163E+00  2.5353454815703E-01
    31  3.0000000000000E-01  1.3718302300087E+00  2.6094208473717E-01
    32  3.1000000000000E-01  1.4226364252704E+00  2.6573850324259E-01
    33  3.2000000000000E-01  1.4696642334332E+00  2.6786439926233E-01
    34  3.3000000000000E-01  1.5125953921875E+00  2.6735162648808E-01
    35  3.4000000000000E-01  1.5511526527684E+00  2.6432739922411E-01
    36  3.5000000000000E-01  1.5851029061904E+00  2.5901545485412E-01
    37  3.6000000000000E-01  1.6142594261858E+00  2.5173411680901E-01
    38  3.7000000000000E-01  1.6384831709515E+00  2.4289119260839E-01
    39  3.8000000000000E-01  1.6576831111233E+00  2.3297574038007E-01
    40  3.9000000000000E-01  1.6718155779636E+00  2.2254683793993E-01
    41  4.0000000000000E-01  1.6808826527949E+00  2.1221958795731E-01
    42  4.1000000000000E-01  1.6849296454550E+00  2.0264868783969E-01
    43  4.2000000000000E-01  1.6840417352055E+00  1.9450998070137E-01
    44  4.3000000000000E-01  1.6783398713181E+00  1.8848048125708E-01
    45  4.4000000000000E-01  1.6679760517906E+00  1.8521743507051E-01
    46  4.5000000000000E-01  1.6531281166382E+00  1.8533701898865E-01
    47  4.6000000000000E-01  1.6339942064136E+00  1.8939332291536E-01
    48  4.7000000000000E-01  1.6107870465646E+00  1.9785826689733E-01
    49  4.8000000000000E-01  1.5837282236026E+00  2.1110310191643E-01
    50  4.9000000000000E-01  1.5530426196134E+00  2.2938211746512E-01
    51  5.0000000000000E-01  1.5189531673274E+00  2.5281913416748E-01
    52  5.1000000000000E-01  1.4816760788414E+00  2.8139729622590E-01
    53  5.2000000000000E-01  1.4414166873582E+00  3.1495259772060E-01
    54  5.3000000000000E-01  1.3983660233366E+00  3.5317148071010E-01
    55  5.4000000000000E-01  1.3526982246851E+00  3.9559273410901E-01
    56  5.5000000000000E-01  1.3045688556891E+00  4.4161380333398E-01
    57  5.6000000000000E-01  1.2541141819178E+00  4.9050149493466E-01
    58  5.7000000000000E-01  1.2014514191849E+00  5.4140693137186E-01
    59  5.8000000000000E-01  1.1466799445707E+00  5.9338448244978E-01
    60  5.9000000000000E-01  1.0898834274219E+00  6.4541427540171E-01
    61  6.0000000000000E-01  1.0311328090002E+00  6.9642776898928E-01
    62  6.1000000000000E-01  9.7049003193402E-01  7.4533577177768E-01
    63  6.2000000000000E-01  9.0801239565364E-01  7.9105819431523E-01
    64  6.3000000000000E-01  8.4375739233315E-01  8.3255475225400E-01
    65  6.4000000000000E-01  7.7778786019877E-01  8.6885578502868E-01
    66  6.5000000000000E-01  7.1017727797010E-01  8.9909232457567E-01
    67  6.6000000000000E-01  6.4101501612413E-01  9.2252454213777E-01
    68  6.7000000000000E-01  5.7041135792648E-01  9.3856771924005E-01
    69  6.8000000000000E-01  4.9850210592031E-01  9.4681493153291E-01
    70  6.9000000000000E-01  4.2545259780806E-01  9.4705570078252E-01
    71  7.0000000000000E-01  3.5146096925333E-01  9.3928995955960E-01
    72  7.1000000000000E-01  2.7676051976085E-01  9.2373678317253E-01
    73  7.2000000000000E-01  2.0162106100942E-01  9.0083747153854E-01
    74  7.3000000000000E-01  1.2634915421919E-01  8.7125270683705E-01
    75  7.4000000000000E-01  5.1287173614921E-02  8.3585366729892E-01
    76  7.5000000000000E-01 -2.3188834014187E-02  7.9570713935968E-01
    77  7.6000000000000E-01 -9.6672489167792E-02  7.5205483529149E-01
    78  7.7000000000000E-01 -1.6873157932408E-01  7.0628728686674E-01
    79  7.8000000000000E-01 -2.3891364419382E-01  6.5991284305785E-01
    80  7.9000000000000E-01 -3.0675253895912E-01  6.1452244676492E-01
    81  8.0000000000000E-01 -3.7177583695998E-01  5.7175099783880E-01
    82  8.1000000000000E-01 -4.3351290560083E-01  5.3323622328221E-01
    83  8.2000000000000E-01 -4.9150346565928E-01  5.0057606697255E-01
    84  8.3000000000000E-01 -5.4530642542230E-01  4.7528567757957E-01
    85  8.4000000000000E-01 -5.9450876775455E-01  4.5875511224236E-01
    86  8.5000000000000E-01 -6.3873426078490E-01  4.5220888337614E-01
    87  8.6000000000000E-01 -6.7765176167833E-01  4.5666845586808E-01
    88  8.7000000000000E-01 -7.1098288807873E-01  4.7291875181349E-01
    89  8.8000000000000E-01 -7.3850884321923E-01  5.0147964061402E-01
    90  8.9000000000000E-01 -7.6007619818376E-01  5.4258328525857E-01
    91  9.0000000000000E-01 -7.7560145797696E-01  5.9615808328847E-01
    92  9.1000000000000E-01 -7.8507426636431E-01  6.6181978637382E-01
    93  9.2000000000000E-01 -7.8855913718256E-01  7.3887020930583E-01
    94  9.3000000000000E-01 -7.8619563615102E-01  8.2630375184676E-01
    95  9.4000000000000E-01 -7.7819697619948E-01  9.2282175997898E-01
    96  9.5000000000000E-01 -7.6484702993352E-01  1.0268545517488E+00
    97  9.6000000000000E-01 -7.4649580400410E-01  1.1365907323346E+00
    98  9.7000000000000E-01 -7.2355346070154E-01  1.2500132285955E+00
    99  9.8000000000000E-01 -6.9648301097935E-01  1.3649412902432E+00
   100  9.9000000000000E-01 -6.6579183920831E-01  1.4790775381451E+00
   101  1.0000000000000E+00 -6.3202225228544E-01  1.5900589945946E+00
   102  1.0100000000000E+00 -5.9574127333094E-01  1.6955109099308E+00
   103  1.0200000000000E+00 -5.5752992232220E-01  1.7931021080797E+00
   104  1.0300000000000E+00 -5.1797224193754E-01  1.8806005134095E+00
   105  1.0400000000000E+00 -4.7764433614935E-01  1.9559274945958E+00
   106  1.0500000000000E+00 -4.3710369137604E-01  2.0172096692549E+00
   107  1.0600000000000E+00 -3.9687904512913E-01  2.0628268561724E+00
   108  1.0700000000000E+00 -3.5746105517360E-01  2.0914549391997E+00
   109  1.0800000000000E+00 -3.1929400341643E-01  2.1021025171829E+00
   110  1.0900000000000E+00 -2.8276874363606E-01  2.0941403543699E+00
   111  1.1000000000000E+00 -2.4821707117271E-01  2.0673228134289E+00
   112  1.1100000000000E+00 -2.1590765681621E-01  2.0218006432853E+00
   113  1.1200000000000E+00 -1.8604364707393E-01  1.9581247028038E+00
   114  1.1300000000000E+00 -1.5876198993984E-01  1.8772404230438E+00
   115  1.1400000000000E+00 -1.3413450029260E-01  1.7804730400604E+00
   116  1.1500000000000E+00 -1.1217063329133E-01  1.6695038612717E+00
   117  1.1600000000000E+00 -9.2821888879515E-02  1.5463380550616E+00
   118  1.1700000000000E+00 -7.5987726915506E-02  1.4132646698850E+00
   119  1.1800000000000E+00 -6.1522831674355E-02  1.2728097901281E+00
   120  1.1900000000000E+00 -4.9245527740533E-02  1.1276839154474E+00
   121  1.2000000000000E+00 -3.8947117370560E-02  9.8072480476708E-01
   122  1.2100000000000E+00 -3.0401883517435E-02  8.3483714955068E-01
   123  1.2200000000000E+00 -2.3377471078795E-02  6.9293054588065E-01
   124  1.2300000000000E+00 -1.7645454019094E-02  5.5785716860972E-01
   125  1.2400000000000E+00 -1.2991496933996E-02  4.3235106008369E-01
   126  1.2500000000000E+00 -9.2471613803386E-03  3.1894383529966E-01
   127  1.2600000000000E+00 -6.2744971363052E-03  2.1993318614239E-01
   128  1.2700000000000E+00 -3.9354190777422E-03  1.3738771204761E-01
   129  1.2800000000000E+00 -2.1431870093047E-03  7.3059193738746E-02
   130  1.2900000000000E+00 -8.6760576670623E-04  2.8353164566339E-02
   131  1.3000000000000E+00 -1.4284653992117E-04  4.4008686903764E-03
   132  1.3100000000000E+00  1.0564032328860E-05 -3.1219436842161E-04
   133  1.3200000000000E+00 -2.1105601601501E-06  6.3698407480204E-05
   134  1.33  0.  0.
   135  1.34  0.  0.
   136  1.35  0.  0.
   137  1.36  0.  0.
   138  1.37  0.  0.
   139  1.38  0.  0.
   140  1.39  0.  0.
   141  1.40  0.  0.
   142  1.41  0.  0.
   143  1.42  0.  0.
   144  1.43  0.  0.
   145  1.44  0.  0.
   146  1.45  0.  0.
   147  1.46  0.  0.
   148  1.47  0.  0.
   149  1.48  0.  0.
   150  1.49  0.  0.
   151  1.50  0.  0.
   152  1.51  0.  0.
   153  1.52  0.  0.
   154  1.53  0.  0.
   155  1.54  0.  0.
   156  1.55  0.  0.
   157  1.56  0.  0.
   158  1.57  0.  0.
   159  1.58  0.  0.
   160  1.59  0.  0.
   161  1.60  0.  0.
   162  1.61  0.  0.
   163  1.62  0.  0.
   164  1.63  0.  0.
   165  1.64  0.  0.
   166  1.65  0.  0.
   167  1.66  0.  0.
   168  1.67  0.  0.
   169  1.68  0.  0.
   170  1.69  0.  0.
   171  1.70  0.  0.
   172  1.71  0.  0.
   173  1.72  0.  0.