Ti    ONCVPSP-4.0.1  r_core=   1.35405   1.30632   1.65946
     22.0000     12.0000      250217    zatom,zion,pspd
     8       2   2     4   600     0    pspcod,pspxc,lmax,lloc,mmax,r2well
  5.99000000  2.50000000  0.00000000    rchrg fchrg qchrg
     2     2     2     0    nproj
     3     1           extension_switch
     4     3     0    nprojso
   0                         1.0888128747687E+01  1.1398119065121E+00
     1  0.0000000000000E+00  3.4256317782422E-09 -1.0871348848918E-08
     2  1.0000000000000E-02  8.1798879717552E-02 -2.7846129561635E-02
     3  2.0000000000000E-02  1.6343662739312E-01 -5.5628374406549E-02
     4  3.0000000000000E-02  2.4475136582334E-01 -8.3279609792120E-02
     5  4.0000000000000E-02  3.2557976186220E-01 -1.1072633976954E-01
     6  5.0000000000000E-02  4.0575638348857E-01 -1.3788578079900E-01
     7  6.0000000000000E-02  4.8511315639037E-01 -1.6466326039084E-01
     8  7.0000000000000E-02  5.6347894908744E-01 -1.9095002260308E-01
     9  8.0000000000000E-02  6.4067931218975E-01 -2.1662152135430E-01
    10  9.0000000000000E-02  7.1653639326607E-01 -2.4153626944032E-01
    11  1.0000000000000E-01  7.9086904408303E-01 -2.6553529620012E-01
    12  1.1000000000000E-01  8.6349313178101E-01 -2.8844225033627E-01
    13  1.2000000000000E-01  9.3422206001081E-01 -3.1006416687072E-01
    14  1.3000000000000E-01  1.0028675003005E+00 -3.3019289904990E-01
    15  1.4000000000000E-01  1.0692403280978E+00 -3.4860719766423E-01
    16  1.5000000000000E-01  1.1331517521866E+00 -3.6507540218077E-01
    17  1.6000000000000E-01  1.1944146206496E+00 -3.7935869076787E-01
    18  1.7000000000000E-01  1.2528448813802E+00 -3.9121482016061E-01
    19  1.8000000000000E-01  1.3082631704753E+00 -4.0040227179586E-01
    20  1.9000000000000E-01  1.3604964977707E+00 -4.0668470811643E-01
    21  2.0000000000000E-01  1.4093799954378E+00 -4.0983563273926E-01
    22  2.1000000000000E-01  1.4547586930168E+00 -4.0964314058328E-01
    23  2.2000000000000E-01  1.4964892805956E+00 -4.0591463927379E-01
    24  2.3000000000000E-01  1.5344418211038E+00 -3.9848142133226E-01
    25  2.4000000000000E-01  1.5685013729017E+00 -3.8720296789800E-01
    26  2.5000000000000E-01  1.5985694850113E+00 -3.7197086901519E-01
    27  2.6000000000000E-01  1.6245655294381E+00 -3.5271225278029E-01
    28  2.7000000000000E-01  1.6464278380317E+00 -3.2939262573476E-01
    29  2.8000000000000E-01  1.6641146151612E+00 -3.0201803958693E-01
    30  2.9000000000000E-01  1.6776046020503E+00 -2.7063651437184E-01
    31  3.0000000000000E-01  1.6868974738396E+00 -2.3533866516111E-01
    32  3.1000000000000E-01  1.6920139561730E+00 -1.9625749802338E-01
    33  3.2000000000000E-01  1.6929956542356E+00 -1.5356736066599E-01
    34  3.3000000000000E-01  1.6899045935381E+00 -1.0748205358899E-01
    35  3.4000000000000E-01  1.6828224782056E+00 -5.8252128158465E-02
    36  3.5000000000000E-01  1.6718496789286E+00 -6.1614182521071E-03
    37  3.6000000000000E-01  1.6571039689163E+00  4.8477128457174E-02
    38  3.7000000000000E-01  1.6387190320062E+00  1.0532623542118E-01
    39  3.8000000000000E-01  1.6168427723860E+00  1.6402959787485E-01
    40  3.9000000000000E-01  1.5916354600364E+00  2.2421758466877E-01
    41  4.0000000000000E-01  1.5632677498958E+00  2.8551321519984E-01
    42  4.1000000000000E-01  1.5319186157701E+00  3.4753827675802E-01
    43  4.2000000000000E-01  1.4977732420842E+00  4.0991944215858E-01
    44  4.3000000000000E-01  1.4610209176392E+00  4.7229424542125E-01
    45  4.4000000000000E-01  1.4218529755567E+00  5.3431677458891E-01
    46  4.5000000000000E-01  1.3804608225529E+00  5.9566294557149E-01
    47  4.6000000000000E-01  1.3370340986032E+00  6.5603522909175E-01
    48  4.7000000000000E-01  1.2917590049669E+00  7.1516671425167E-01
    49  4.8000000000000E-01  1.2448168345089E+00  7.7282440670906E-01
    50  4.9000000000000E-01  1.1963827333653E+00  8.2881167664578E-01
    51  5.0000000000000E-01  1.1466247173586E+00  8.8296979125555E-01
    52  5.1000000000000E-01  1.0957029603077E+00  9.3517848794297E-01
    53  5.2000000000000E-01  1.0437693646350E+00  9.8535556732024E-01
    54  5.3000000000000E-01  9.9096741761113E-01  1.0334555088881E+00
    55  5.4000000000000E-01  9.3743232935663E-01  1.0794671364308E+00
    56  5.5000000000000E-01  8.8329144151996E-01  1.1234103840720E+00
    57  5.6000000000000E-01  8.2866488853657E-01  1.1653322370428E+00
    58  5.7000000000000E-01  7.7366648672673E-01  1.2053019429481E+00
    59  5.8000000000000E-01  7.1840482036745E-01  1.2434056091220E+00
    60  5.9000000000000E-01  6.6298448843774E-01  1.2797403190476E+00
    61  6.0000000000000E-01  6.0750747112303E-01  1.3144079153023E+00
    62  6.1000000000000E-01  5.5207457150185E-01  1.3475086077001E+00
    63  6.2000000000000E-01  4.9678688522429E-01  1.3791345728874E+00
    64  6.3000000000000E-01  4.4174724951109E-01  1.4093637153827E+00
    65  6.4000000000000E-01  3.8706162250387E-01  1.4382537597578E+00
    66  6.5000000000000E-01  3.3284034491159E-01  1.4658368392766E+00
    67  6.6000000000000E-01  2.7919923802021E-01  1.4921147378658E+00
    68  6.7000000000000E-01  2.2626049543447E-01  1.5170549299058E+00
    69  6.8000000000000E-01  1.7415333034188E-01  1.5405875462209E+00
    70  6.9000000000000E-01  1.2301434554421E-01  1.5626033751276E+00
    71  7.0000000000000E-01  7.2987599879291E-02  1.5829529848451E+00
    72  7.1000000000000E-01  2.4224351820247E-02  1.6014470284752E+00
    73  7.2000000000000E-01 -2.3117531165377E-02  1.6178577656392E+00
    74  7.3000000000000E-01 -6.8874500660717E-02  1.6319218063160E+00
    75  7.4000000000000E-01 -1.1287858738899E-01  1.6433440531028E+00
    76  7.5000000000000E-01 -1.5495897938742E-01  1.6518027886722E+00
    77  7.6000000000000E-01 -1.9494389583284E-01  1.6569558263141E+00
    78  7.7000000000000E-01 -2.3266272594053E-01  1.6584476138108E+00
    79  7.8000000000000E-01 -2.6794839473657E-01  1.6559171551498E+00
    80  7.9000000000000E-01 -3.0063991059652E-01  1.6490065913777E+00
    81  8.0000000000000E-01 -3.3058504342361E-01  1.6373702618063E+00
    82  8.1000000000000E-01 -3.5764307736565E-01  1.6206840503399E+00
    83  8.2000000000000E-01 -3.8168757817736E-01  1.5986548093260E+00
    84  8.3000000000000E-01 -4.0260911283480E-01  1.5710296454275E+00
    85  8.4000000000000E-01 -4.2031785788485E-01  1.5376048488176E+00
    86  8.5000000000000E-01 -4.3474603331658E-01  1.4982342486893E+00
    87  8.6000000000000E-01 -4.4585010049714E-01  1.4528367846990E+00
    88  8.7000000000000E-01 -4.5361266590771E-01  1.4014030954768E+00
    89  8.8000000000000E-01 -4.5804403700357E-01  1.3440009415646E+00
    90  8.9000000000000E-01 -4.5918338242786E-01  1.2807793008238E+00
    91  9.0000000000000E-01 -4.5709945592464E-01  1.2119709990926E+00
    92  9.1000000000000E-01 -4.5189085148493E-01  1.1378937672055E+00
    93  9.2000000000000E-01 -4.4368576635863E-01  1.0589496468430E+00
    94  9.3000000000000E-01 -4.3264125838607E-01  9.7562270141942E-01
    95  9.4000000000000E-01 -4.1894199444277E-01  8.8847502363241E-01
    96  9.5000000000000E-01 -4.0279849742788E-01  7.9814106764177E-01
    97  9.6000000000000E-01 -3.8444490993117E-01  7.0532037033183E-01
    98  9.7000000000000E-01 -3.6413630324726E-01  6.1076876192531E-01
    99  9.8000000000000E-01 -3.4214557054110E-01  5.1528820059425E-01
   100  9.9000000000000E-01 -3.1875995246598E-01  4.1971539783454E-01
   101  1.0000000000000E+00 -2.9427725218446E-01  3.2490943053186E-01
   102  1.0100000000000E+00 -2.6900180433352E-01  2.3173856113539E-01
   103  1.0200000000000E+00 -2.4324026883353E-01  1.4106650859124E-01
   104  1.0300000000000E+00 -2.1729732539874E-01  5.3738429102524E-02
   105  1.0400000000000E+00 -1.9147134804210E-01 -2.9433123024725E-02
   106  1.0500000000000E+00 -1.6605014068308E-01 -1.0768197854328E-01
   107  1.0600000000000E+00 -1.4130681509187E-01 -1.8030160465633E-01
   108  1.0700000000000E+00 -1.1749589082479E-01 -2.4665755479912E-01
   109  1.0800000000000E+00 -9.4849693511426E-02 -3.0619885874809E-01
   110  1.0900000000000E+00 -7.3575122924656E-02 -3.5846811232872E-01
   111  1.1000000000000E+00 -5.3850855740115E-02 -4.0311004873751E-01
   112  1.1100000000000E+00 -3.5825039938987E-02 -4.3987840107110E-01
   113  1.1200000000000E+00 -1.9613528537420E-02 -4.6864089768379E-01
   114  1.1300000000000E+00 -5.2986899453112E-03 -4.8938226775837E-01
   115  1.1400000000000E+00  7.0711790332268E-03 -5.0220517328835E-01
   116  1.1500000000000E+00  1.7481823524529E-02 -5.0732902477348E-01
   117  1.1600000000000E+00  2.5952382607116E-02 -5.0508668042870E-01
   118  1.1700000000000E+00  3.2534133987764E-02 -4.9591907175807E-01
   119  1.1800000000000E+00  3.7308654798092E-02 -4.8036784107737E-01
   120  1.1900000000000E+00  4.0385434100995E-02 -4.5906611792567E-01
   121  1.2000000000000E+00  4.1898984272810E-02 -4.3272760074310E-01
   122  1.2100000000000E+00  4.2005509050715E-02 -4.0213414632520E-01
   123  1.2200000000000E+00  4.0879195677760E-02 -3.6812210230268E-01
   124  1.2300000000000E+00  3.8708206822748E-02 -3.3156764582052E-01
   125  1.2400000000000E+00  3.5690454775902E-02 -2.9337141462776E-01
   126  1.2500000000000E+00  3.2029245588672E-02 -2.5444273414052E-01
   127  1.2600000000000E+00  2.7928884229331E-02 -2.1568375534669E-01
   128  1.2700000000000E+00  2.3590322930332E-02 -1.7797379991186E-01
   129  1.2800000000000E+00  1.9207022667520E-02 -1.4215440029699E-01
   130  1.2900000000000E+00  1.4959380238669E-02 -1.0901137040647E-01
   131  1.3000000000000E+00  1.1001781522905E-02 -7.9239297645656E-02
   132  1.3100000000000E+00  7.4858043267202E-03 -5.3491445381814E-02
   133  1.3200000000000E+00  4.5451198445197E-03 -3.2341486552524E-02
   134  1.3300000000000E+00  2.2843584917049E-03 -1.6248944170196E-02
   135  1.3400000000000E+00  7.7320969691607E-04 -5.5289073857846E-03
   136  1.3500000000000E+00  6.6302073874844E-05 -5.0607103577827E-04
   137  1.3600000000000E+00 -9.6738136786291E-06  6.1897283331084E-05
   138  1.3700000000000E+00  5.5112366948953E-07 -3.6174740993138E-06
   139  1.38  0.  0.
   140  1.39  0.  0.
   141  1.40  0.  0.
   142  1.41  0.  0.
   143  1.42  0.  0.
   144  1.43  0.  0.
   145  1.44  0.  0.
   146  1.45  0.  0.
   147  1.46  0.  0.
   148  1.47  0.  0.
   149  1.48  0.  0.
   150  1.49  0.  0.
   151  1.50  0.  0.
   152  1.51  0.  0.
   153  1.52  0.  0.
   154  1.53  0.  0.
   155  1.54  0.  0.
   156  1.55  0.  0.
   157  1.56  0.  0.
   158  1.57  0.  0.
   159  1.58  0.  0.
   160  1.59  0.  0.
   161  1.60  0.  0.
   162  1.61  0.  0.
   163  1.62  0.  0.
   164  1.63  0.  0.
   165  1.64  0.  0.
   166  1.65  0.  0.
   167  1.66  0.  0.
   168  1.67  0.  0.
   169  1.68  0.  0.
   170  1.69  0.  0.
   171  1.70  0.  0.
   172  1.71  0.  0.
   173  1.72  0.  0.
   174  1.73  0.  0.
   175  1.74  0.  0.
   176  1.75  0.  0.
   177  1.76  0.  0.
   178  1.77  0.  0.
   179  1.78  0.  0.
   180  1.79  0.  0.
   181  1.80  0.  0.
   182  1.81  0.  0.
   183  1.82  0.  0.
   184  1.83  0.  0.
   185  1.84  0.  0.
   186  1.85  0.  0.
   187  1.86  0.  0.
   188  1.87  0.  0.
   189  1.88  0.  0.
   190  1.89  0.  0.
   191  1.90  0.  0.
   192  1.91  0.  0.
   193  1.92  0.  0.
   194  1.93  0.  0.
   195  1.94  0.  0.
   196  1.95  0.  0.
   197  1.96  0.  0.
   198  1.97  0.  0.
   199  1.98  0.  0.
   200  1.99  0.  0.
   201  2.00  0.  0.
   202  2.01  0.  0.
   203  2.02  0.  0.
   204  2.03  0.  0.
   205  2.04  0.  0.
   206  2.05  0.  0.
   207  2.06  0.  0.
   208  2.07  0.  0.
   209  2.08  0.  0.
   210  2.09  0.  0.
   211  2.10  0.  0.
   212  2.11  0.  0.
   213  2.12  0.  0.
   214  2.13  0.  0.
   215  2.14  0.  0.
   216  2.15  0.  0.
   217  2.16  0.  0.
   218  2.17  0.  0.
   219  2.18  0.  0.
   220  2.19  0.  0.
   221  2.20  0.  0.
   222  2.21  0.  0.
   223  2.22  0.  0.
   224  2.23  0.  0.
   225  2.24  0.  0.
   226  2.25  0.  0.
   227  2.26  0.  0.
   228  2.27  0.  0.
   229  2.28  0.  0.
   230  2.29  0.  0.
   231  2.30  0.  0.
   232  2.31  0.  0.
   233  2.32  0.  0.
   234  2.33  0.  0.
   235  2.34  0.  0.
   236  2.35  0.  0.
   237  2.36  0.  0.
   238  2.37  0.  0.
   239  2.38  0.  0.
   240  2.39  0.  0.
   241  2.40  0.  0.
   242  2.41  0.  0.
   243  2.42  0.  0.
   244  2.43  0.  0.
   245  2.44  0.  0.
   246  2.45  0.  0.
   247  2.46  0.  0.
   248  2.47  0.  0.
   249  2.48  0.  0.
   250  2.49  0.  0.
   251  2.50  0.  0.
   252  2.51  0.  0.
   253  2.52  0.  0.
   254  2.53  0.  0.
   255  2.54  0.  0.
   256  2.55  0.  0.
   257  2.56  0.  0.
   258  2.57  0.  0.
   259  2.58  0.  0.
   260  2.59  0.  0.
   261  2.60  0.  0.
   262  2.61  0.  0.
   263  2.62  0.  0.
   264  2.63  0.  0.
   265  2.64  0.  0.
   266  2.65  0.  0.
   267  2.66  0.  0.
   268  2.67  0.  0.
   269  2.68  0.  0.
   270  2.69  0.  0.
   271  2.70  0.  0.
   272  2.71  0.  0.
   273  2.72  0.  0.
   274  2.73  0.  0.
   275  2.74  0.  0.
   276  2.75  0.  0.
   277  2.76  0.  0.
   278  2.77  0.  0.
   279  2.78  0.  0.
   280  2.79  0.  0.
   281  2.80  0.  0.
   282  2.81  0.  0.
   283  2.82  0.  0.
   284  2.83  0.  0.
   285  2.84  0.  0.
   286  2.85  0.  0.
   287  2.86  0.  0.
   288  2.87  0.  0.
   289  2.88  0.  0.
   290  2.89  0.  0.
   291  2.90  0.  0.
   292  2.91  0.  0.
   293  2.92  0.  0.
   294  2.93  0.  0.
   295  2.94  0.  0.
   296  2.95  0.  0.
   297  2.96  0.  0.
   298  2.97  0.  0.
   299  2.98  0.  0.
   300  2.99  0.  0.
   301  3.00  0.  0.
   302  3.01  0.  0.
   303  3.02  0.  0.
   304  3.03  0.  0.
   305  3.04  0.  0.
   306  3.05  0.  0.
   307  3.06  0.  0.
   308  3.07  0.  0.
   309  3.08  0.  0.
   310  3.09  0.  0.
   311  3.10  0.  0.
   312  3.11  0.  0.
   313  3.12  0.  0.
   314  3.13  0.  0.
   315  3.14  0.  0.
   316  3.15  0.  0.
   317  3.16  0.  0.
   318  3.17  0.  0.
   319  3.18  0.  0.
   320  3.19  0.  0.
   321  3.20  0.  0.
   322  3.21  0.  0.
   323  3.22  0.  0.
   324  3.23  0.  0.
   325  3.24  0.  0.
   326  3.25  0.  0.
   327  3.26  0.  0.
   328  3.27  0.  0.
   329  3.28  0.  0.
   330  3.29  0.  0.
   331  3.30  0.  0.
   332  3.31  0.  0.
   333  3.32  0.  0.
   334  3.33  0.  0.
   335  3.34  0.  0.
   336  3.35  0.  0.
   337  3.36  0.  0.
   338  3.37  0.  0.
   339  3.38  0.  0.
   340  3.39  0.  0.
   341  3.40  0.  0.
   342  3.41  0.  0.
   343  3.42  0.  0.
   344  3.43  0.  0.
   345  3.44  0.  0.
   346  3.45  0.  0.
   347  3.46  0.  0.
   348  3.47  0.  0.
   349  3.48  0.  0.
   350  3.49  0.  0.
   351  3.50  0.  0.
   352  3.51  0.  0.
   353  3.52  0.  0.
   354  3.53  0.  0.
   355  3.54  0.  0.
   356  3.55  0.  0.
   357  3.56  0.  0.
   358  3.57  0.  0.
   359  3.58  0.  0.
   360  3.59  0.  0.
   361  3.60  0.  0.
   362  3.61  0.  0.
   363  3.62  0.  0.
   364  3.63  0.  0.
   365  3.64  0.  0.
   366  3.65  0.  0.
   367  3.66  0.  0.
   368  3.67  0.  0.
   369  3.68  0.  0.
   370  3.69  0.  0.
   371  3.70  0.  0.
   372  3.71  0.  0.
   373  3.72  0.  0.
   374  3.73  0.  0.
   375  3.74  0.  0.
   376  3.75  0.  0.
   377  3.76  0.  0.
   378  3.77  0.  0.
   379  3.78  0.  0.
   380  3.79  0.  0.
   381  3.80  0.  0.
   382  3.81  0.  0.
   383  3.82  0.  0.
   384  3.83  0.  0.
   385  3.84  0.  0.
   386  3.85  0.  0.
   387  3.86  0.  0.
   388  3.87  0.  0.
   389  3.88  0.  0.
   390  3.89  0.  0.
   391  3.90  0.  0.
   392  3.91  0.  0.
   393  3.92  0.  0.
   394  3.93  0.  0.
   395  3.94  0.  0.
   396  3.95  0.  0.
   397  3.96  0.  0.
   398  3.97  0.  0.
   399  3.98  0.  0.
   400  3.99  0.  0.
   401  4.00  0.  0.
   402  4.01  0.  0.
   403  4.02  0.  0.
   404  4.03  0.  0.
   405  4.04  0.  0.
   406  4.05  0.  0.
   407  4.06  0.  0.
   408  4.07  0.  0.
   409  4.08  0.  0.
   410  4.09  0.  0.
   411  4.10  0.  0.
   412  4.11  0.  0.
   413  4.12  0.  0.
   414  4.13  0.  0.
   415  4.14  0.  0.
   416  4.15  0.  0.
   417  4.16  0.  0.
   418  4.17  0.  0.
   419  4.18  0.  0.
   420  4.19  0.  0.
   421  4.20  0.  0.
   422  4.21  0.  0.
   423  4.22  0.  0.
   424  4.23  0.  0.
   425  4.24  0.  0.
   426  4.25  0.  0.
   427  4.26  0.  0.
   428  4.27  0.  0.
   429  4.28  0.  0.
   430  4.29  0.  0.
   431  4.30  0.  0.
   432  4.31  0.  0.
   433  4.32  0.  0.
   434  4.33  0.  0.
   435  4.34  0.  0.
   436  4.35  0.  0.
   437  4.36  0.  0.
   438  4.37  0.  0.
   439  4.38  0.  0.
   440  4.39  0.  0.
   441  4.40  0.  0.
   442  4.41  0.  0.
   443  4.42  0.  0.
   444  4.43  0.  0.
   445  4.44  0.  0.
   446  4.45  0.  0.
   447  4.46  0.  0.
   448  4.47  0.  0.
   449  4.48  0.  0.
   450  4.49  0.  0.
   451  4.50  0.  0.
   452  4.51  0.  0.
   453  4.52  0.  0.
   454  4.53  0.  0.
   455  4.54  0.  0.
   456  4.55  0.  0.
   457  4.56  0.  0.
   458  4.57  0.  0.
   459  4.58  0.  0.
   460  4.59  0.  0.
   461  4.60  0.  0.
   462  4.61  0.  0.
   463  4.62  0.  0.
   464  4.63  0.  0.
   465  4.64  0.  0.
   466  4.65  0.  0.
   467  4.66  0.  0.
   468  4.67  0.  0.
   469  4.68  0.  0.
   470  4.69  0.  0.
   471  4.70  0.  0.
   472  4.71  0.  0.
   473  4.72  0.  0.
   474  4.73  0.  0.
   475  4.74  0.  0.
   476  4.75  0.  0.
   477  4.76  0.  0.
   478  4.77  0.  0.
   479  4.78  0.  0.
   480  4.79  0.  0.
   481  4.80  0.  0.
   482  4.81  0.  0.
   483  4.82  0.  0.
   484  4.83  0.  0.
   485  4.84  0.  0.
   486  4.85  0.  0.
   487  4.86  0.  0.
   488  4.87  0.  0.
   489  4.88  0.  0.
   490  4.89  0.  0.
   491  4.90  0.  0.
   492  4.91  0.  0.
   493  4.92  0.  0.
   494  4.93  0.  0.
   495  4.94  0.  0.
   496  4.95  0.  0.
   497  4.96  0.  0.
   498  4.97  0.  0.
   499  4.98  0.  0.
   500  4.99  0.  0.
   501  5.00  0.  0.
   502  5.01  0.  0.
   503  5.02  0.  0.
   504  5.03  0.  0.
   505  5.04  0.  0.
   506  5.05  0.  0.
   507  5.06  0.  0.
   508  5.07  0.  0.
   509  5.08  0.  0.
   510  5.09  0.  0.
   511  5.10  0.  0.
   512  5.11  0.  0.
   513  5.12  0.  0.
   514  5.13  0.  0.
   515  5.14  0.  0.
   516  5.15  0.  0.
   517  5.16  0.  0.
   518  5.17  0.  0.
   519  5.18  0.  0.
   520  5.19  0.  0.
   521  5.20  0.  0.
   522  5.21  0.  0.
   523  5.22  0.  0.
   524  5.23  0.  0.
   525  5.24  0.  0.
   526  5.25  0.  0.
   527  5.26  0.  0.
   528  5.27  0.  0.
   529  5.28  0.  0.
   530  5.29  0.  0.
   531  5.30  0.  0.
   532  5.31  0.  0.
   533  5.32  0.  0.
   534  5.33  0.  0.
   535  5.34  0.  0.
   536  5.35  0.  0.
   537  5.36  0.  0.
   538  5.37  0.  0.
   539  5.38  0.  0.
   540  5.39  0.  0.
   541  5.40  0.  0.
   542  5.41  0.  0.
   543  5.42  0.  0.
   544  5.43  0.  0.
   545  5.44  0.  0.
   546  5.45  0.  0.
   547  5.46  0.  0.
   548  5.47  0.  0.
   549  5.48  0.  0.
   550  5.49  0.  0.
   551  5.50  0.  0.
   552  5.51  0.  0.
   553  5.52  0.  0.
   554  5.53  0.  0.
   555  5.54  0.  0.
   556  5.55  0.  0.
   557  5.56  0.  0.
   558  5.57  0.  0.
   559  5.58  0.  0.
   560  5.59  0.  0.
   561  5.60  0.  0.
   562  5.61  0.  0.
   563  5.62  0.  0.
   564  5.63  0.  0.
   565  5.64  0.  0.
   566  5.65  0.  0.
   567  5.66  0.  0.
   568  5.67  0.  0.
   569  5.68  0.  0.
   570  5.69  0.  0.
   571  5.70  0.  0.
   572  5.71  0.  0.
   573  5.72  0.  0.
   574  5.73  0.  0.
   575  5.74  0.  0.
   576  5.75  0.  0.
   577  5.76  0.  0.
   578  5.77  0.  0.
   579  5.78  0.  0.
   580  5.79  0.  0.
   581  5.80  0.  0.
   582  5.81  0.  0.
   583  5.82  0.  0.
   584  5.83  0.  0.
   585  5.84  0.  0.
   586  5.85  0.  0.
   587  5.86  0.  0.
   588  5.87  0.  0.
   589  5.88  0.  0.
   590  5.89  0.  0.
   591  5.90  0.  0.
   592  5.91  0.  0.
   593  5.92  0.  0.
   594  5.93  0.  0.
   595  5.94  0.  0.
   596  5.95  0.  0.
   597  5.96  0.  0.
   598  5.97  0.  0.
   599  5.98  0.  0.
   600  5.99  0.  0.
   1                         1.8986662604233E+00 -7.7182067262548E-02
     1  0.0000000000000E+00 -1.6586772233484E-08 -5.6524975971996E-08
     2  1.0000000000000E-02  2.0278843385892E-03 -1.4632651126501E-04
     3  2.0000000000000E-02  8.1094972134479E-03 -5.6174930708866E-04
     4  3.0000000000000E-02  1.8238431598857E-02 -1.1766334221567E-03
     5  4.0000000000000E-02  3.2403064749339E-02 -1.8783333152944E-03
     6  5.0000000000000E-02  5.0585179707460E-02 -2.5161799190315E-03
     7  6.0000000000000E-02  7.2758110295421E-02 -2.9082029699666E-03
     8  7.0000000000000E-02  9.8884481610276E-02 -2.8493395818263E-03
     9  8.0000000000000E-02  1.2891363462934E-01 -2.1208234981423E-03
    10  9.0000000000000E-02  1.6277883729327E-01 -5.0040326286222E-04
    11  1.0000000000000E-01  2.0039439491981E-01  2.2269967155746E-03
    12  1.1000000000000E-01  2.4165277966189E-01  6.2585793403684E-03
    13  1.2000000000000E-01  2.8642190171928E-01  1.1763356519376E-02
    14  1.3000000000000E-01  3.3454264402074E-01  1.8872616484608E-02
    15  1.4000000000000E-01  3.8582677711253E-01  2.7671562466826E-02
    16  1.5000000000000E-01  4.4005536214063E-01  3.8192473438341E-02
    17  1.6000000000000E-01  4.9697773733703E-01  5.0409689993373E-02
    18  1.7000000000000E-01  5.5631116766828E-01  6.4236669606072E-02
    19  1.8000000000000E-01  6.1774121873059E-01  7.9525287290575E-02
    20  1.9000000000000E-01  6.8092289512431E-01  9.6067482228088E-02
    21  2.0000000000000E-01  7.4548256102801E-01  1.1359927060186E-01
    22  2.1000000000000E-01  8.1102063719167E-01  1.3180706227562E-01
    23  2.2000000000000E-01  8.7711504478638E-01  1.5033613673692E-01
    24  2.3000000000000E-01  9.4332534320800E-01  1.6880105461766E-01
    25  2.4000000000000E-01  1.0091974867496E+00  1.8679770773262E-01
    26  2.5000000000000E-01  1.0742691047197E+00  2.0391664545143E-01
    27  2.6000000000000E-01  1.1380751917284E+00  2.1975726060572E-01
    28  2.7000000000000E-01  1.2001540800644E+00  2.3394237601444E-01
    29  2.8000000000000E-01  1.2600535548197E+00  2.4613274469337E-01
    30  2.9000000000000E-01  1.3173369650835E+00  2.5604096409645E-01
    31  3.0000000000000E-01  1.3715891813711E+00  2.6344430804897E-01
    32  3.1000000000000E-01  1.4224222506518E+00  2.6819599961327E-01
    33  3.2000000000000E-01  1.4694806058876E+00  2.7023448371678E-01
    34  3.3000000000000E-01  1.5124456968040E+00  2.6959030919297E-01
    35  3.4000000000000E-01  1.5510399224334E+00  2.6639029468328E-01
    36  3.5000000000000E-01  1.5850297634559E+00  2.6085872989754E-01
    37  3.6000000000000E-01  1.6142280330324E+00  2.5331545090079E-01
    38  3.7000000000000E-01  1.6384951881182E+00  2.4417072289460E-01
    39  3.8000000000000E-01  1.6577396685047E+00  2.3391696361487E-01
    40  3.9000000000000E-01  1.6719172573495E+00  2.2311744199327E-01
    41  4.0000000000000E-01  1.6810294839515E+00  2.1239218702443E-01
    42  4.1000000000000E-01  1.6851211162298E+00  2.0240143771228E-01
    43  4.2000000000000E-01  1.6842768159788E+00  1.9382705347769E-01
    44  4.3000000000000E-01  1.6786170537444E+00  1.8735238258546E-01
    45  4.4000000000000E-01  1.6682934013682E+00  1.8364115134191E-01
    46  4.5000000000000E-01  1.6534833382369E+00  1.8331598670234E-01
    47  4.6000000000000E-01  1.6343847214864E+00  1.8693721760187E-01
    48  4.7000000000000E-01  1.6112100803794E+00  1.9498261434863E-01
    49  4.8000000000000E-01  1.5841809004699E+00  2.0782871988753E-01
    50  4.9000000000000E-01  1.5535220637647E+00  2.2573440131186E-01
    51  5.0000000000000E-01  1.5194566068305E+00  2.4882720491340E-01
    52  5.1000000000000E-01  1.4822009497267E+00  2.7709303414711E-01
    53  5.2000000000000E-01  1.4419607349938E+00  3.1036958855801E-01
    54  5.3000000000000E-01  1.3989273980230E+00  3.4834390492789E-01
    55  5.4000000000000E-01  1.3532755684596E+00  3.9055423210367E-01
    56  5.5000000000000E-01  1.3051613774320E+00  4.3639635106599E-01
    57  5.6000000000000E-01  1.2547217180388E+00  4.8513432503846E-01
    58  5.7000000000000E-01  1.2020744774384E+00  5.3591553435765E-01
    59  5.8000000000000E-01  1.1473197288985E+00  5.8778972113242E-01
    60  5.9000000000000E-01  1.0905418421431E+00  6.3973164319682E-01
    61  6.0000000000000E-01  1.0318124411551E+00  6.9066681925399E-01
    62  6.1000000000000E-01  9.7119411112676E-01  7.3949974101882E-01
    63  6.2000000000000E-01  9.0874473132049E-01  7.8514383695161E-01
    64  6.3000000000000E-01  8.4452228896609E-01  8.2655239882789E-01
    65  6.4000000000000E-01  7.7859001167418E-01  8.6274962946960E-01
    66  6.5000000000000E-01  7.1102164274188E-01  8.9286093949572E-01
    67  6.6000000000000E-01  6.4190667563092E-01  9.1614161436680E-01
    68  6.7000000000000E-01  5.7135536111287E-01  9.3200299107947E-01
    69  6.8000000000000E-01  4.9950330326819E-01  9.4003532671666E-01
    70  6.9000000000000E-01  4.2651546869960E-01  9.4002660806925E-01
    71  7.0000000000000E-01  3.5258944682938E-01  9.3197664142983E-01
    72  7.1000000000000E-01  2.7795781768459E-01  9.1610587243380E-01
    73  7.2000000000000E-01  2.0288950668577E-01  8.9285851490414E-01
    74  7.3000000000000E-01  1.2769003304814E-01  8.6289971186535E-01
    75  7.4000000000000E-01  5.2700588768022E-02  8.2710660756451E-01
    76  7.5000000000000E-01 -2.1704082013750E-02  7.8655337243904E-01
    77  7.6000000000000E-01 -9.5118999105839E-02  7.4249038912879E-01
    78  7.7000000000000E-01 -1.6711341867923E-01  6.9631797233244E-01
    79  7.8000000000000E-01 -2.3723638826864E-01  6.4955515400164E-01
    80  7.9000000000000E-01 -3.0502327741917E-01  6.0380421351474E-01
    81  8.0000000000000E-01 -3.7000314615707E-01  5.6071176581627E-01
    82  8.1000000000000E-01 -4.3170678583719E-01  5.2192733505372E-01
    83  8.2000000000000E-01 -4.8967524337561E-01  4.8906043346934E-01
    84  8.3000000000000E-01 -5.4346862114488E-01  4.6363723221984E-01
    85  8.4000000000000E-01 -5.9267493149477E-01  4.4705795005778E-01
    86  8.5000000000000E-01 -6.3691877742538E-01  4.4055609577289E-01
    87  8.6000000000000E-01 -6.7586962968362E-01  4.4516068010083E-01
    88  8.7000000000000E-01 -7.0924947561201E-01  4.6166246239464E-01
    89  8.8000000000000E-01 -7.3683962641088E-01  4.9058521748940E-01
    90  8.9000000000000E-01 -7.5848648686369E-01  5.3216290043808E-01
    91  9.0000000000000E-01 -7.7410611463336E-01  5.8632345352734E-01
    92  9.1000000000000E-01 -7.8368742441408E-01  6.5267984427567E-01
    93  9.2000000000000E-01 -7.8729392482059E-01  7.3052874871848E-01
    94  9.3000000000000E-01 -7.8506391208055E-01  8.1885710551756E-01
    95  9.4000000000000E-01 -7.7720908342852E-01  9.1635656805733E-01
    96  9.5000000000000E-01 -7.6401157355386E-01  1.0214456788143E+00
    97  9.6000000000000E-01 -7.4581945845179E-01  1.1322993881946E+00
    98  9.7000000000000E-01 -7.2304081143961E-01  1.2468853441688E+00
    99  9.8000000000000E-01 -6.9613643485509E-01  1.3630061945035E+00
   100  9.9000000000000E-01 -6.6561142693372E-01  1.4783469754615E+00
   101  1.0000000000000E+00 -6.3200577558810E-01  1.5905265140218E+00
   102  1.0100000000000E+00 -5.9588419834373E-01  1.6971516492634E+00
   103  1.0200000000000E+00 -5.5782546974736E-01  1.7958729859987E+00
   104  1.0300000000000E+00 -5.1841149345739E-01  1.8844408330593E+00
   105  1.0400000000000E+00 -4.7821638548892E-01  1.9607599516839E+00
   106  1.0500000000000E+00 -4.3779583737743E-01  2.0229417475327E+00
   107  1.0600000000000E+00 -3.9767702320004E-01  2.0693525831994E+00
   108  1.0700000000000E+00 -3.5834930254812E-01  2.0986569658738E+00
   109  1.0800000000000E+00 -3.2025595283908E-01  2.1098544758994E+00
   110  1.0900000000000E+00 -2.8378713937053E-01  2.1023094430687E+00
   111  1.1000000000000E+00 -2.4927430066594E-01  2.0757725464336E+00
   112  1.1100000000000E+00 -2.1698609092981E-01  2.0303937048894E+00
   113  1.1200000000000E+00 -1.8712598154223E-01  1.9667258361785E+00
   114  1.1300000000000E+00 -1.5983158063487E-01  1.8857192853237E+00
   115  1.1400000000000E+00 -1.3517568497469E-01  1.7887069544808E+00
   116  1.1500000000000E+00 -1.1316903280007E-01  1.6773803989896E+00
   117  1.1600000000000E+00 -9.3764681168225E-02  1.5537573827810E+00
   118  1.1700000000000E+00 -7.6863887944604E-02  1.4201416045377E+00
   119  1.1800000000000E+00 -6.2323337941446E-02  1.2790755085349E+00
   120  1.1900000000000E+00 -4.9963516121123E-02  1.1332872749264E+00
   121  1.2000000000000E+00 -3.9577998952408E-02  9.8563323989388E-01
   122  1.2100000000000E+00 -3.0943409210192E-02  8.3903712046671E-01
   123  1.2200000000000E+00 -2.3829747929779E-02  6.9642752475347E-01
   124  1.2300000000000E+00 -1.8010912475580E-02  5.6067515976543E-01
   125  1.2400000000000E+00 -1.3274810205631E-02  4.3453166862646E-01
   126  1.2500000000000E+00 -9.4551434024331E-03  3.2054433522183E-01
   127  1.2600000000000E+00 -6.4159272116683E-03  2.2102477816021E-01
   128  1.2700000000000E+00 -4.0208022455242E-03  1.3805441068423E-01
   129  1.2800000000000E+00 -2.1845163494935E-03  7.3395384868363E-02
   130  1.2900000000000E+00 -8.7805905320738E-04  2.8461041411933E-02
   131  1.3000000000000E+00 -1.3633853193281E-04  4.3860723188195E-03
   132  1.3100000000000E+00  1.5645529978739E-05 -3.3250510782205E-04
   133  1.3200000000000E+00 -2.7292222932805E-06  6.6231368572889E-05
   134  1.33  0.  0.
   135  1.34  0.  0.
   136  1.35  0.  0.
   137  1.36  0.  0.
   138  1.37  0.  0.
   139  1.38  0.  0.
   140  1.39  0.  0.
   141  1.40  0.  0.
   142  1.41  0.  0.
   143  1.42  0.  0.
   144  1.43  0.  0.
   145  1.44  0.  0.
   146  1.45  0.  0.
   147  1.46  0.  0.
   148  1.47  0.  0.
   149  1.48  0.  0.
   150  1.49  0.  0.
   151  1.50  0.  0.
   152  1.51  0.  0.
   153  1.52  0.  0.
   154  1.53  0.  0.
   155  1.54  0.  0.
   156  1.55  0.  0.
   157  1.56  0.  0.
   158  1.57  0.  0.
   159  1.58  0.  0.
   160  1.59  0.  0.
   161  1.60  0.  0.
   162  1.61  0.  0.
   163  1.62  0.  0.
   164  1.63  0.  0.
   165  1.64  0.  0.
   166  1.65  0.  0.
   167  1.66  0.  0.
   168  1.67  0.  0.
   169  1.68  0.  0.
   170  1.69  0.  0.
   171  1.70  0.  0.
   172  1.71  0.  0.