Te    ONCVPSP-4.0.1  r_core=   2.25420   1.90656   1.80662
     52.0000     16.0000      231019    zatom,zion,pspd
     8       2   2     4   600     0    pspcod,pspxc,lmax,lloc,mmax,r2well
  5.99000000  5.00000000  0.00000000    rchrg fchrg qchrg
     2     2     2     0     0    nproj
     1     1           extension_switch
   0                         6.3894253131275E+00  7.8532940513097E-01
     1  0.0000000000000E+00  4.7194304020337E-11 -1.1477882533306E-10
     2  1.0000000000000E-02  1.6543947522464E-02 -1.9076062111799E-03
     3  2.0000000000000E-02  3.3113034025444E-02 -3.8587567866888E-03
     4  3.0000000000000E-02  4.9732186836998E-02 -5.8965796723137E-03
     5  4.0000000000000E-02  6.6425911532869E-02 -8.0633734750011E-03
     6  5.0000000000000E-02  8.3218084929814E-02 -1.0400201509785E-02
     7  6.0000000000000E-02  1.0013175268872E-01 -1.2946496224584E-02
     8  7.0000000000000E-02  1.1718893300840E-01 -1.5739677326688E-02
     9  8.0000000000000E-02  1.3441042784387E-01 -1.8814786819963E-02
    10  9.0000000000000E-02  1.5181564302443E-01 -2.2204144020232E-02
    11  1.0000000000000E-01  1.6942241857815E-01 -2.5937023448837E-02
    12  1.1000000000000E-01  1.8724687049021E-01 -3.0039358312604E-02
    13  1.2000000000000E-01  2.0530324503403E-01 -3.4533472063804E-02
    14  1.3000000000000E-01  2.2360378671666E-01 -3.9437840298001E-02
    15  1.4000000000000E-01  2.4215862077482E-01 -4.4766884992878E-02
    16  1.5000000000000E-01  2.6097565104484E-01 -5.0530802819119E-02
    17  1.6000000000000E-01  2.8006047391140E-01 -5.6735428967895E-02
    18  1.7000000000000E-01  2.9941630891500E-01 -6.3382137640142E-02
    19  1.8000000000000E-01  3.1904394646966E-01 -7.0467780033815E-02
    20  1.9000000000000E-01  3.3894171300993E-01 -7.7984660348544E-02
    21  2.0000000000000E-01  3.5910545375171E-01 -8.5920550005863E-02
    22  2.1000000000000E-01  3.7952853311524E-01 -9.4258739959425E-02
    23  2.2000000000000E-01  4.0020185272269E-01 -1.0297813064674E-01
    24  2.3000000000000E-01  4.2111388674698E-01 -1.1205335881407E-01
    25  2.4000000000000E-01  4.4225073425523E-01 -1.2145496013233E-01
    26  2.5000000000000E-01  4.6359618805946E-01 -1.3114956621643E-01
    27  2.6000000000000E-01  4.8513181946061E-01 -1.4110013436644E-01
    28  2.7000000000000E-01  5.0683707815033E-01 -1.5126620806833E-01
    29  2.8000000000000E-01  5.2868940641935E-01 -1.6160420602753E-01
    30  2.9000000000000E-01  5.5066436671238E-01 -1.7206773726254E-01
    31  3.0000000000000E-01  5.7273578146860E-01 -1.8260793955969E-01
    32  3.1000000000000E-01  5.9487588409432E-01 -1.9317383838727E-01
    33  3.2000000000000E-01  6.1705547983131E-01 -2.0371272318776E-01
    34  3.3000000000000E-01  6.3924411521119E-01 -2.1417053781369E-01
    35  3.4000000000000E-01  6.6141025472392E-01 -2.2449228174654E-01
    36  3.5000000000000E-01  6.8352146327688E-01 -2.3462241864046E-01
    37  3.6000000000000E-01  7.0554459298152E-01 -2.4450528866407E-01
    38  3.7000000000000E-01  7.2744597277641E-01 -2.5408552107540E-01
    39  3.8000000000000E-01  7.4919159938004E-01 -2.6330844345716E-01
    40  3.9000000000000E-01  7.7074732806306E-01 -2.7212048406274E-01
    41  4.0000000000000E-01  7.9207906173887E-01 -2.8046956377655E-01
    42  4.1000000000000E-01  8.1315293689225E-01 -2.8830547427694E-01
    43  4.2000000000000E-01  8.3393550489954E-01 -2.9558023910350E-01
    44  4.3000000000000E-01  8.5439390733891E-01 -3.0224845447368E-01
    45  4.4000000000000E-01  8.7449604394611E-01 -3.0826760686468E-01
    46  4.5000000000000E-01  8.9421073193924E-01 -3.1359836457431E-01
    47  4.6000000000000E-01  9.1350785551438E-01 -3.1820484069739E-01
    48  4.7000000000000E-01  9.3235850440277E-01 -3.2205482520054E-01
    49  4.8000000000000E-01  9.5073510047784E-01 -3.2511998404630E-01
    50  4.9000000000000E-01  9.6861151150675E-01 -3.2737602360423E-01
    51  5.0000000000000E-01  9.8596315125519E-01 -3.2880281889124E-01
    52  5.1000000000000E-01  1.0027670652747E+00 -3.2938450450173E-01
    53  5.2000000000000E-01  1.0190020018284E+00 -3.2910952741874E-01
    54  5.3000000000000E-01  1.0346484675414E+00 -3.2797066123680E-01
    55  5.4000000000000E-01  1.0496887674988E+00 -3.2596498167324E-01
    56  5.5000000000000E-01  1.0641070296483E+00 -3.2309380359346E-01
    57  5.6000000000000E-01  1.0778892135063E+00 -3.1936258012566E-01
    58  5.7000000000000E-01  1.0910231033033E+00 -3.1478076478670E-01
    59  5.8000000000000E-01  1.1034982858422E+00 -3.0936163788232E-01
    60  5.9000000000000E-01  1.1153061134800E+00 -3.0312209877705E-01
    61  6.0000000000000E-01  1.1264396527747E+00 -2.9608242594954E-01
    62  6.1000000000000E-01  1.1368936194679E+00 -2.8826600705585E-01
    63  6.2000000000000E-01  1.1466643005948E+00 -2.7969904151110E-01
    64  6.3000000000000E-01  1.1557494646323E+00 -2.7041021836951E-01
    65  6.4000000000000E-01  1.1641482606993E+00 -2.6043037252835E-01
    66  6.5000000000000E-01  1.1718611079278E+00 -2.4979212250327E-01
    67  6.6000000000000E-01  1.1788895762099E+00 -2.3852949321652E-01
    68  6.7000000000000E-01  1.1852362596080E+00 -2.2667752740491E-01
    69  6.8000000000000E-01  1.1909046437831E+00 -2.1427188938917E-01
    70  6.9000000000000E-01  1.1958989688535E+00 -2.0134846504865E-01
    71  7.0000000000000E-01  1.2002240891403E+00 -1.8794296191444E-01
    72  7.1000000000000E-01  1.2038853312903E+00 -1.7409051332851E-01
    73  7.2000000000000E-01  1.2068883522819E+00 -1.5982529061636E-01
    74  7.3000000000000E-01  1.2092389988303E+00 -1.4518012718454E-01
    75  7.4000000000000E-01  1.2109431696944E+00 -1.3018615838365E-01
    76  7.5000000000000E-01  1.2120066823726E+00 -1.1487248087058E-01
    77  7.6000000000000E-01  1.2124351456336E+00 -9.9265835062755E-02
    78  7.7000000000000E-01  1.2122338392851E+00 -8.3390314102313E-02
    79  7.8000000000000E-01  1.2114076025193E+00 -6.7267102540173E-02
    80  7.9000000000000E-01  1.2099607321006E+00 -5.0914247711180E-02
    81  8.0000000000000E-01  1.2078968915772E+00 -3.4346466503041E-02
    82  8.1000000000000E-01  1.2052190325982E+00 -1.7574989925521E-02
    83  8.2000000000000E-01  1.2019293293143E+00 -6.0744756525721E-04
    84  8.3000000000000E-01  1.1980291267174E+00  1.6552206332628E-02
    85  8.4000000000000E-01  1.1935189036544E+00  3.3903723779228E-02
    86  8.5000000000000E-01  1.1883982511122E+00  5.1450549957144E-02
    87  8.6000000000000E-01  1.1826658662311E+00  6.9199765535672E-02
    88  8.7000000000000E-01  1.1763195623594E+00  8.7161984191987E-02
    89  8.8000000000000E-01  1.1693562953097E+00  1.0535120555672E-01
    90  8.9000000000000E-01  1.1617722058239E+00  1.2378462422025E-01
    91  9.0000000000000E-01  1.1535626781006E+00  1.4248239585302E-01
    92  9.1000000000000E-01  1.1447224140793E+00  1.6146736190713E-01
    93  9.2000000000000E-01  1.1352455230251E+00  1.8076473477339E-01
    94  9.3000000000000E-01  1.1251256258023E+00  2.0040174566398E-01
    95  9.4000000000000E-01  1.1143559730770E+00  2.2040725787300E-01
    96  9.5000000000000E-01  1.1029295765460E+00  2.4081134843079E-01
    97  9.6000000000000E-01  1.0908393521502E+00  2.6164486151100E-01
    98  9.7000000000000E-01  1.0780782741024E+00  2.8293893726752E-01
    99  9.8000000000000E-01  1.0646395384357E+00  3.0472452006926E-01
   100  9.9000000000000E-01  1.0505167346704E+00  3.2703185036086E-01
   101  1.0000000000000E+00  1.0357040240934E+00  3.4988994460442E-01
   102  1.0100000000000E+00  1.0201963230594E+00  3.7332606794927E-01
   103  1.0200000000000E+00  1.0039894896435E+00  3.9736520443002E-01
   104  1.0300000000000E+00  9.8708051191684E-01  4.2202952960774E-01
   105  1.0400000000000E+00  9.6946769606639E-01  4.4733789064204E-01
   106  1.0500000000000E+00  9.5115085254890E-01  4.7330529881280E-01
   107  1.0600000000000E+00  9.3213147845123E-01  4.9994243949751E-01
   108  1.0700000000000E+00  9.1241293422778E-01  5.2725520455456E-01
   109  1.0800000000000E+00  8.9200061300024E-01  5.5524425196264E-01
   110  1.0900000000000E+00  8.7090210063492E-01  5.8390459742321E-01
   111  1.1000000000000E+00  8.4912732485957E-01  6.1322524244636E-01
   112  1.1100000000000E+00  8.2668869174286E-01  6.4318884321247E-01
   113  1.1200000000000E+00  8.0360120793771E-01  6.7377142423255E-01
   114  1.1300000000000E+00  7.7988258718087E-01  7.0494214052338E-01
   115  1.1400000000000E+00  7.5555333964841E-01  7.3666309166763E-01
   116  1.1500000000000E+00  7.3063684288568E-01  7.6888919075212E-01
   117  1.1600000000000E+00  7.0515939316360E-01  8.0156809076449E-01
   118  1.1700000000000E+00  6.7915023625660E-01  8.3464017059238E-01
   119  1.1800000000000E+00  6.5264157679283E-01  8.6803858230194E-01
   120  1.1900000000000E+00  6.2566856549078E-01  9.0168936088909E-01
   121  1.2000000000000E+00  5.9826926376910E-01  9.3551159719132E-01
   122  1.2100000000000E+00  5.7048458539518E-01  9.6941767413123E-01
   123  1.2200000000000E+00  5.4235821502213E-01  1.0033135659357E+00
   124  1.2300000000000E+00  5.1393650365230E-01  1.0370991994409E+00
   125  1.2400000000000E+00  4.8526834125522E-01  1.0706688760612E+00
   126  1.2500000000000E+00  4.5640500695944E-01  1.1039117524694E+00
   127  1.2600000000000E+00  4.2739999742776E-01  1.1367123775127E+00
   128  1.2700000000000E+00  3.9830883421247E-01  1.1689512823813E+00
   129  1.2800000000000E+00  3.6918885107184E-01  1.2005056205519E+00
   130  1.2900000000000E+00  3.4009896240614E-01  1.2312498535577E+00
   131  1.3000000000000E+00  3.1109941414229E-01  1.2610564781913E+00
   132  1.3100000000000E+00  2.8225151855871E-01  1.2897967903285E+00
   133  1.3200000000000E+00  2.5361737469357E-01  1.3173416801800E+00
   134  1.3300000000000E+00  2.2525957611948E-01  1.3435624534294E+00
   135  1.3400000000000E+00  1.9724090799613E-01  1.3683316724125E+00
   136  1.3500000000000E+00  1.6962403542551E-01  1.3915240112262E+00
   137  1.3600000000000E+00  1.4247118523275E-01  1.4130171184423E+00
   138  1.3700000000000E+00  1.1584382337856E-01  1.4326924809317E+00
   139  1.3800000000000E+00  8.9802330274867E-02  1.4504362821822E+00
   140  1.3900000000000E+00  6.4405676323286E-02  1.4661402484343E+00
   141  1.4000000000000E+00  3.9711100026461E-02  1.4797024759367E+00
   142  1.4100000000000E+00  1.5773791033732E-02  1.4910282326704E+00
   143  1.4200000000000E+00 -7.3534195243680E-03  1.5000307279799E+00
   144  1.4300000000000E+00 -2.9620359084421E-02  1.5066318436991E+00
   145  1.4400000000000E+00 -5.0979801797388E-02  1.5107628205590E+00
   146  1.4500000000000E+00 -7.1387742554618E-02  1.5123648939200E+00
   147  1.4600000000000E+00 -9.0803654753637E-02  1.5113898731691E+00
   148  1.4700000000000E+00 -1.0919072976415E-01  1.5078006594812E+00
   149  1.4800000000000E+00 -1.2651609617097E-01  1.5015716970349E+00
   150  1.4900000000000E+00 -1.4275101700288E-01  1.4926893532195E+00
   151  1.5000000000000E+00 -1.5787106330431E-01  1.4811522238483E+00
   152  1.5100000000000E+00 -1.7185626256814E-01  1.4669713599142E+00
   153  1.5200000000000E+00 -1.8469122072316E-01  1.4501704129721E+00
   154  1.5300000000000E+00 -1.9636521655561E-01  1.4307856968155E+00
   155  1.5400000000000E+00 -2.0687226764038E-01  1.4088661637153E+00
   156  1.5500000000000E+00 -2.1621116706342E-01  1.3844732941166E+00
   157  1.5600000000000E+00 -2.2438549042789E-01  1.3576808993260E+00
   158  1.5700000000000E+00 -2.3140357285446E-01  1.3285748373687E+00
   159  1.5800000000000E+00 -2.3727845590702E-01  1.2972526428514E+00
   160  1.5900000000000E+00 -2.4202780459764E-01  1.2638230723155E+00
   161  1.6000000000000E+00 -2.4567379484744E-01  1.2284055672157E+00
   162  1.6100000000000E+00 -2.4824297200122E-01  1.1911296372899E+00
   163  1.6200000000000E+00 -2.4976608121064E-01  1.1521341677104E+00
   164  1.6300000000000E+00 -2.5027787071345E-01  1.1115666540008E+00
   165  1.6400000000000E+00 -2.4981686924064E-01  1.0695823692759E+00
   166  1.6500000000000E+00 -2.4842513898016E-01  1.0263434689045E+00
   167  1.6600000000000E+00 -2.4614800571149E-01  9.8201803819641E-01
   168  1.6700000000000E+00 -2.4303376789947E-01  9.3677908918479E-01
   169  1.6800000000000E+00 -2.3913338669631E-01  8.9080351299365E-01
   170  1.6900000000000E+00 -2.3450015894716E-01  8.4427099465758E-01
   171  1.7000000000000E+00 -2.2918937542420E-01  7.9736289758309E-01
   172  1.7100000000000E+00 -2.2325796662785E-01  7.5026112511313E-01
   173  1.7200000000000E+00 -2.1676413858891E-01  7.0314696687122E-01
   174  1.7300000000000E+00 -2.0976700118198E-01  6.5619993771933E-01
   175  1.7400000000000E+00 -2.0232619151789E-01  6.0959661726197E-01
   176  1.7500000000000E+00 -1.9450149502017E-01  5.6350949786766E-01
   177  1.7600000000000E+00 -1.8635246680825E-01  5.1810584915623E-01
   178  1.7700000000000E+00 -1.7793805600675E-01  4.7354660681759E-01
   179  1.7800000000000E+00 -1.6931623552969E-01  4.2998529317105E-01
   180  1.7900000000000E+00 -1.6054363991355E-01  3.8756697721449E-01
   181  1.8000000000000E+00 -1.5167521606585E-01  3.4642729651527E-01
   182  1.8100000000000E+00 -1.4276387516859E-01  3.0669145571872E-01
   183  1.8200000000000E+00 -1.3386023772093E-01  2.6847379879674E-01
   184  1.8300000000000E+00 -1.2501252740712E-01  2.3187825621002E-01
   185  1.8400000000000E+00 -1.1626644801149E-01  1.9699851632954E-01
   186  1.8500000000000E+00 -1.0766496330255E-01  1.6391745420025E-01
   187  1.8600000000000E+00 -9.9248106296164E-02  1.3270668918180E-01
   188  1.8700000000000E+00 -9.1052809696210E-02  1.0342620810796E-01
   189  1.8800000000000E+00 -8.3112760613460E-02  7.6124070881155E-02
   190  1.8900000000000E+00 -7.5458280494754E-02  5.0836200608568E-02
   191  1.9000000000000E+00 -6.8116230988810E-02  2.7586259777031E-02
   192  1.9100000000000E+00 -6.1109946294802E-02  6.3856134891412E-03
   193  1.9200000000000E+00 -5.4459192330802E-02 -1.2766619874073E-02
   194  1.9300000000000E+00 -4.8180152847291E-02 -2.9883430861060E-02
   195  1.9400000000000E+00 -4.2285442398478E-02 -4.4989694985966E-02
   196  1.9500000000000E+00 -3.6784145869648E-02 -5.8121864214472E-02
   197  1.9600000000000E+00 -3.1681884054483E-02 -6.9327576149481E-02
   198  1.9700000000000E+00 -2.6980904565190E-02 -7.8665183813612E-02
   199  1.9800000000000E+00 -2.2680197160803E-02 -8.6203209527243E-02
   200  1.9900000000000E+00 -1.8775632387349E-02 -9.2019726962234E-02
   201  2.0000000000000E+00 -1.5260122239460E-02 -9.6201676006773E-02
   202  2.0100000000000E+00 -1.2123801380926E-02 -9.8844115593019E-02
   203  2.0200000000000E+00 -9.3542272970439E-03 -1.0004942012955E-01
   204  2.0300000000000E+00 -6.9365976134357E-03 -9.9926425589675E-02
   205  2.0400000000000E+00 -4.8539826690640E-03 -9.8589531737583E-02
   206  2.0500000000000E+00 -3.0875713233226E-03 -9.6157767286572E-02
   207  2.0600000000000E+00 -1.6169278713896E-03 -9.2753825086030E-02
   208  2.0700000000000E+00 -4.2025785773809E-04 -8.8503074669665E-02
   209  2.0800000000000E+00  5.2531948772418E-04 -8.3532559674372E-02
   210  2.0900000000000E+00  1.2434945154782E-03 -7.7969987765807E-02
   211  2.1000000000000E+00  1.7584906611554E-03 -7.1942726522093E-02
   212  2.1100000000000E+00  2.0947762528766E-03 -6.5576775298232E-02
   213  2.1200000000000E+00  2.2767916911691E-03 -5.8995785870367E-02
   214  2.1300000000000E+00  2.3287381323500E-03 -5.2320254495474E-02
   215  2.1400000000000E+00  2.2741477914110E-03 -4.5666151143518E-02
   216  2.1500000000000E+00  2.1330223103949E-03 -3.9137147858055E-02
   217  2.1600000000000E+00  1.9230809880602E-03 -3.2827690312556E-02
   218  2.1700000000000E+00  1.6666119478270E-03 -2.6840853351907E-02
   219  2.1800000000000E+00  1.3845182886442E-03 -2.1272477931453E-02
   220  2.1900000000000E+00  1.0956700764487E-03 -1.6209297557006E-02
   221  2.2000000000000E+00  8.1696245660480E-04 -1.1728941599018E-02
   222  2.2100000000000E+00  5.6309197334452E-04 -7.8992152857631E-03
   223  2.2200000000000E+00  3.4652517974577E-04 -4.7792523588017E-03
   224  2.2300000000000E+00  1.7638202153922E-04 -2.4054895535515E-03
   225  2.2400000000000E+00  6.1334533379870E-05 -8.3201353185118E-04
   226  2.2500000000000E+00  7.9486119367485E-06 -1.0860585020265E-04
   227  2.2600000000000E+00 -2.7983812980342E-06  3.7055355296247E-05
   228  2.2700000000000E+00  5.0894566718276E-07 -6.7793585021624E-06
   229  2.28  0. -0.
   230  2.29 -0.  0.
   231  2.30  0. -0.
   232  2.31  0.  0.
   233  2.32  0.  0.
   234  2.33  0.  0.
   235  2.34  0.  0.
   236  2.35  0.  0.
   237  2.36  0.  0.
   238  2.37  0.  0.
   239  2.38  0.  0.
   240  2.39  0.  0.
   241  2.40  0.  0.
   242  2.41  0.  0.
   243  2.42  0.  0.
   244  2.43  0.  0.
   245  2.44  0.  0.
   246  2.45  0.  0.
   247  2.46  0.  0.
   248  2.47  0.  0.
   249  2.48  0.  0.
   250  2.49  0.  0.
   251  2.50  0.  0.
   252  2.51  0.  0.
   253  2.52  0.  0.
   254  2.53  0.  0.
   255  2.54  0.  0.
   256  2.55  0.  0.
   257  2.56  0.  0.
   258  2.57  0.  0.
   259  2.58  0.  0.
   260  2.59  0.  0.
   261  2.60  0.  0.
   262  2.61  0.  0.
   263  2.62  0.  0.
   264  2.63  0.  0.
   265  2.64  0.  0.
   266  2.65  0.  0.
   267  2.66  0.  0.
   268  2.67  0.  0.
   269  2.68  0.  0.
   270  2.69  0.  0.
   271  2.70  0.  0.
   272  2.71  0.  0.
   273  2.72  0.  0.
   274  2.73  0.  0.
   275  2.74  0.  0.
   276  2.75  0.  0.
   277  2.76  0.  0.
   278  2.77  0.  0.
   279  2.78  0.  0.
   280  2.79  0.  0.
   281  2.80  0.  0.
   282  2.81  0.  0.
   283  2.82  0.  0.
   284  2.83  0.  0.
   285  2.84  0.  0.
   286  2.85  0.  0.
   287  2.86  0.  0.
   288  2.87  0.  0.
   289  2.88  0.  0.
   290  2.89  0.  0.
   291  2.90  0.  0.
   292  2.91  0.  0.
   293  2.92  0.  0.
   294  2.93  0.  0.
   295  2.94  0.  0.
   296  2.95  0.  0.
   297  2.96  0.  0.
   298  2.97  0.  0.
   299  2.98  0.  0.
   300  2.99  0.  0.
   301  3.00  0.  0.
   302  3.01  0.  0.
   303  3.02  0.  0.
   304  3.03  0.  0.
   305  3.04  0.  0.
   306  3.05  0.  0.
   307  3.06  0.  0.
   308  3.07  0.  0.
   309  3.08  0.  0.
   310  3.09  0.  0.
   311  3.10  0.  0.
   312  3.11  0.  0.
   313  3.12  0.  0.
   314  3.13  0.  0.
   315  3.14  0.  0.
   316  3.15  0.  0.
   317  3.16  0.  0.
   318  3.17  0.  0.
   319  3.18  0.  0.
   320  3.19  0.  0.
   321  3.20  0.  0.
   322  3.21  0.  0.
   323  3.22  0.  0.
   324  3.23  0.  0.
   325  3.24  0.  0.
   326  3.25  0.  0.
   327  3.26  0.  0.
   328  3.27  0.  0.
   329  3.28  0.  0.
   330  3.29  0.  0.
   331  3.30  0.  0.
   332  3.31  0.  0.
   333  3.32  0.  0.
   334  3.33  0.  0.
   335  3.34  0.  0.
   336  3.35  0.  0.
   337  3.36  0.  0.
   338  3.37  0.  0.
   339  3.38  0.  0.
   340  3.39  0.  0.
   341  3.40  0.  0.
   342  3.41  0.  0.
   343  3.42  0.  0.
   344  3.43  0.  0.
   345  3.44  0.  0.
   346  3.45  0.  0.
   347  3.46  0.  0.
   348  3.47  0.  0.
   349  3.48  0.  0.
   350  3.49  0.  0.
   351  3.50  0.  0.
   352  3.51  0.  0.
   353  3.52  0.  0.
   354  3.53  0.  0.
   355  3.54  0.  0.
   356  3.55  0.  0.
   357  3.56  0.  0.
   358  3.57  0.  0.
   359  3.58  0.  0.
   360  3.59  0.  0.
   361  3.60  0.  0.
   362  3.61  0.  0.
   363  3.62  0.  0.
   364  3.63  0.  0.
   365  3.64  0.  0.
   366  3.65  0.  0.
   367  3.66  0.  0.
   368  3.67  0.  0.
   369  3.68  0.  0.
   370  3.69  0.  0.
   371  3.70  0.  0.
   372  3.71  0.  0.
   373  3.72  0.  0.
   374  3.73  0.  0.
   375  3.74  0.  0.
   376  3.75  0.  0.
   377  3.76  0.  0.
   378  3.77  0.  0.
   379  3.78  0.  0.
   380  3.79  0.  0.
   381  3.80  0.  0.
   382  3.81  0.  0.
   383  3.82  0.  0.
   384  3.83  0.  0.
   385  3.84  0.  0.
   386  3.85  0.  0.
   387  3.86  0.  0.
   388  3.87  0.  0.
   389  3.88  0.  0.
   390  3.89  0.  0.
   391  3.90  0.  0.
   392  3.91  0.  0.
   393  3.92  0.  0.
   394  3.93  0.  0.
   395  3.94  0.  0.
   396  3.95  0.  0.
   397  3.96  0.  0.
   398  3.97  0.  0.
   399  3.98  0.  0.
   400  3.99  0.  0.
   401  4.00  0.  0.
   402  4.01  0.  0.
   403  4.02  0.  0.
   404  4.03  0.  0.
   405  4.04  0.  0.
   406  4.05  0.  0.
   407  4.06  0.  0.
   408  4.07  0.  0.
   409  4.08  0.  0.
   410  4.09  0.  0.
   411  4.10  0.  0.
   412  4.11  0.  0.
   413  4.12  0.  0.
   414  4.13  0.  0.
   415  4.14  0.  0.
   416  4.15  0.  0.
   417  4.16  0.  0.
   418  4.17  0.  0.
   419  4.18  0.  0.
   420  4.19  0.  0.
   421  4.20  0.  0.
   422  4.21  0.  0.
   423  4.22  0.  0.
   424  4.23  0.  0.
   425  4.24  0.  0.
   426  4.25  0.  0.
   427  4.26  0.  0.
   428  4.27  0.  0.
   429  4.28  0.  0.
   430  4.29  0.  0.
   431  4.30  0.  0.
   432  4.31  0.  0.
   433  4.32  0.  0.
   434  4.33  0.  0.
   435  4.34  0.  0.
   436  4.35  0.  0.
   437  4.36  0.  0.
   438  4.37  0.  0.
   439  4.38  0.  0.
   440  4.39  0.  0.
   441  4.40  0.  0.
   442  4.41  0.  0.
   443  4.42  0.  0.
   444  4.43  0.  0.
   445  4.44  0.  0.
   446  4.45  0.  0.
   447  4.46  0.  0.
   448  4.47  0.  0.
   449  4.48  0.  0.
   450  4.49  0.  0.
   451  4.50  0.  0.
   452  4.51  0.  0.
   453  4.52  0.  0.
   454  4.53  0.  0.
   455  4.54  0.  0.
   456  4.55  0.  0.
   457  4.56  0.  0.
   458  4.57  0.  0.
   459  4.58  0.  0.
   460  4.59  0.  0.
   461  4.60  0.  0.
   462  4.61  0.  0.
   463  4.62  0.  0.
   464  4.63  0.  0.
   465  4.64  0.  0.
   466  4.65  0.  0.
   467  4.66  0.  0.
   468  4.67  0.  0.
   469  4.68  0.  0.
   470  4.69  0.  0.
   471  4.70  0.  0.
   472  4.71  0.  0.
   473  4.72  0.  0.
   474  4.73  0.  0.
   475  4.74  0.  0.
   476  4.75  0.  0.
   477  4.76  0.  0.
   478  4.77  0.  0.
   479  4.78  0.  0.
   480  4.79  0.  0.
   481  4.80  0.  0.
   482  4.81  0.  0.
   483  4.82  0.  0.
   484  4.83  0.  0.
   485  4.84  0.  0.
   486  4.85  0.  0.
   487  4.86  0.  0.
   488  4.87  0.  0.
   489  4.88  0.  0.
   490  4.89  0.  0.
   491  4.90  0.  0.
   492  4.91  0.  0.
   493  4.92  0.  0.
   494  4.93  0.  0.
   495  4.94  0.  0.
   496  4.95  0.  0.
   497  4.96  0.  0.
   498  4.97  0.  0.
   499  4.98  0.  0.
   500  4.99  0.  0.
   501  5.00  0.  0.
   502  5.01  0.  0.
   503  5.02  0.  0.
   504  5.03  0.  0.
   505  5.04  0.  0.
   506  5.05  0.  0.
   507  5.06  0.  0.
   508  5.07  0.  0.
   509  5.08  0.  0.
   510  5.09  0.  0.
   511  5.10  0.  0.
   512  5.11  0.  0.
   513  5.12  0.  0.
   514  5.13  0.  0.
   515  5.14  0.  0.
   516  5.15  0.  0.
   517  5.16  0.  0.
   518  5.17  0.  0.
   519  5.18  0.  0.
   520  5.19  0.  0.
   521  5.20  0.  0.
   522  5.21  0.  0.
   523  5.22  0.  0.
   524  5.23  0.  0.
   525  5.24  0.  0.
   526  5.25  0.  0.
   527  5.26  0.  0.
   528  5.27  0.  0.
   529  5.28  0.  0.
   530  5.29  0.  0.
   531  5.30  0.  0.
   532  5.31  0.  0.
   533  5.32  0.  0.
   534  5.33  0.  0.
   535  5.34  0.  0.
   536  5.35  0.  0.
   537  5.36  0.  0.
   538  5.37  0.  0.
   539  5.38  0.  0.
   540  5.39  0.  0.
   541  5.40  0.  0.
   542  5.41  0.  0.
   543  5.42  0.  0.
   544  5.43  0.  0.
   545  5.44  0.  0.
   546  5.45  0.  0.
   547  5.46  0.  0.
   548  5.47  0.  0.
   549  5.48  0.  0.
   550  5.49  0.  0.
   551  5.50  0.  0.
   552  5.51  0.  0.
   553  5.52  0.  0.
   554  5.53  0.  0.
   555  5.54  0.  0.
   556  5.55  0.  0.
   557  5.56  0.  0.
   558  5.57  0.  0.
   559  5.58  0.  0.
   560  5.59  0.  0.
   561  5.60  0.  0.
   562  5.61  0.  0.
   563  5.62  0.  0.
   564  5.63  0.  0.
   565  5.64  0.  0.
   566  5.65  0.  0.
   567  5.66  0.  0.
   568  5.67  0.  0.
   569  5.68  0.  0.
   570  5.69  0.  0.
   571  5.70  0.  0.
   572  5.71  0.  0.
   573  5.72  0.  0.
   574  5.73  0.  0.
   575  5.74  0.  0.
   576  5.75  0.  0.
   577  5.76  0.  0.
   578  5.77  0.  0.
   579  5.78  0.  0.
   580  5.79  0.  0.
   581  5.80  0.  0.
   582  5.81  0.  0.
   583  5.82  0.  0.
   584  5.83  0.  0.
   585  5.84  0.  0.
   586  5.85  0.  0.
   587  5.86  0.  0.
   588  5.87  0.  0.
   589  5.88  0.  0.
   590  5.89  0.  0.
   591  5.90  0.  0.
   592  5.91  0.  0.
   593  5.92  0.  0.
   594  5.93  0.  0.
   595  5.94  0.  0.
   596  5.95  0.  0.
   597  5.96  0.  0.
   598  5.97  0.  0.
   599  5.98  0.  0.
   600  5.99  0.  0.
   1                         5.4057878474036E+00  1.0616279185291E+00
     1  0.0000000000000E+00  6.0679367641647E-09 -9.2676662455382E-09
     2  1.0000000000000E-02  1.1904861953244E-03 -1.3237663112880E-03
     3  2.0000000000000E-02  4.7459899543202E-03 -5.2715027910634E-03
     4  3.0000000000000E-02  1.0618884393561E-02 -1.1772881705880E-02
     5  4.0000000000000E-02  1.8730579960216E-02 -2.0711883723388E-02
     6  5.0000000000000E-02  2.8972695439477E-02 -3.1928570099182E-02
     7  6.0000000000000E-02  4.1208673790563E-02 -4.5221527702829E-02
     8  7.0000000000000E-02  5.5275819629852E-02 -6.0350951452722E-02
     9  8.0000000000000E-02  7.0987729111739E-02 -7.7042319461787E-02
    10  9.0000000000000E-02  8.8137077296099E-02 -9.4990607553902E-02
    11  1.0000000000000E-01  1.0649872291453E-01 -1.1386498191562E-01
    12  1.1000000000000E-01  1.2583308582827E-01 -1.3331390161056E-01
    13  1.2000000000000E-01  1.4588974847374E-01 -1.5297055660454E-01
    14  1.3000000000000E-01  1.6641122927308E-01 -1.7245856191393E-01
    15  1.4000000000000E-01  1.8713687339445E-01 -1.9139782457110E-01
    16  1.5000000000000E-01  2.0780680441716E-01 -2.0941049735521E-01
    17  1.6000000000000E-01  2.2816587941679E-01 -2.2612693170524E-01
    18  1.7000000000000E-01  2.4796758975208E-01 -2.4119154193969E-01
    19  1.8000000000000E-01  2.6697785041261E-01 -2.5426849386027E-01
    20  1.9000000000000E-01  2.8497862216942E-01 -2.6504713300613E-01
    21  2.0000000000000E-01  3.0177131294172E-01 -2.7324707122296E-01
    22  2.1000000000000E-01  3.1717990772473E-01 -2.7862285477481E-01
    23  2.2000000000000E-01  3.3105378007758E-01 -2.8096814289511E-01
    24  2.3000000000000E-01  3.4327014249821E-01 -2.8011933237254E-01
    25  2.4000000000000E-01  3.5373609795660E-01 -2.7595857140697E-01
    26  2.5000000000000E-01  3.6239026035211E-01 -2.6841611444814E-01
    27  2.6000000000000E-01  3.6920391763149E-01 -2.5747197892993E-01
    28  2.7000000000000E-01  3.7418171767013E-01 -2.4315687461123E-01
    29  2.8000000000000E-01  3.7736186369441E-01 -2.2555238649613E-01
    30  2.9000000000000E-01  3.7881581291607E-01 -2.0479040289141E-01
    31  3.0000000000000E-01  3.7864747906667E-01 -1.8105179092156E-01
    32  3.1000000000000E-01  3.7699194656444E-01 -1.5456433261217E-01
    33  3.2000000000000E-01  3.7401371102047E-01 -1.2559994532219E-01
    34  3.3000000000000E-01  3.6990446759970E-01 -9.4471220703932E-02
    35  3.4000000000000E-01  3.6488047529890E-01 -6.1527326352361E-02
    36  3.5000000000000E-01  3.5917953139886E-01 -2.7149323730321E-02
    37  3.6000000000000E-01  3.5305759610205E-01  8.2550353102054E-03
    38  3.7000000000000E-01  3.4678511260003E-01  4.4256963173446E-02
    39  3.8000000000000E-01  3.4064307245123E-01  8.0412665108763E-02
    40  3.9000000000000E-01  3.3491888012193E-01  1.1626965856820E-01
    41  4.0000000000000E-01  3.2990207379345E-01  1.5137329532869E-01
    42  4.1000000000000E-01  3.2587996201750E-01  1.8527339474287E-01
    43  4.2000000000000E-01  3.2313323746992E-01  2.1753089410533E-01
    44  4.3000000000000E-01  3.2193162988416E-01  2.4772442104071E-01
    45  4.4000000000000E-01  3.2252966022135E-01  2.7545669305944E-01
    46  4.5000000000000E-01  3.2516255725005E-01  3.0036065099296E-01
    47  4.6000000000000E-01  3.3004239597130E-01  3.2210523589965E-01
    48  4.7000000000000E-01  3.3735451475172E-01  3.4040072319656E-01
    49  4.8000000000000E-01  3.4725426464909E-01  3.5500353317108E-01
    50  4.9000000000000E-01  3.5986414027112E-01  3.6572044359680E-01
    51  5.0000000000000E-01  3.7527133665124E-01  3.7241213783682E-01
    52  5.1000000000000E-01  3.9352577111531E-01  3.7499603046908E-01
    53  5.2000000000000E-01  4.1463860302222E-01  3.7344832200020E-01
    54  5.3000000000000E-01  4.3858127766733E-01  3.6780524452352E-01
    55  5.4000000000000E-01  4.6528511362696E-01  3.5816347108745E-01
    56  5.5000000000000E-01  4.9464144548823E-01  3.4467967292825E-01
    57  5.6000000000000E-01  5.2650232634736E-01  3.2756922043327E-01
    58  5.7000000000000E-01  5.6068178677407E-01  3.0710403558069E-01
    59  5.8000000000000E-01  5.9695763923229E-01  2.8360961548610E-01
    60  5.9000000000000E-01  6.3507380932371E-01  2.5746125841486E-01
    61  6.0000000000000E-01  6.7474316778448E-01  2.2907953502820E-01
    62  6.1000000000000E-01  7.1565083001947E-01  1.9892505856301E-01
    63  6.2000000000000E-01  7.5745788320249E-01  1.6749261794620E-01
    64  6.3000000000000E-01  7.9980549469897E-01  1.3530474736880E-01
    65  6.4000000000000E-01  8.4231934986973E-01  1.0290481445462E-01
    66  6.5000000000000E-01  8.8461436227206E-01  7.0849716729344E-02
    67  6.6000000000000E-01  9.2629959496095E-01  3.9702282514609E-02
    68  6.7000000000000E-01  9.6698332807427E-01  1.0023477540483E-02
    69  6.8000000000000E-01  1.0062782052143E+00 -1.7635477592659E-02
    70  6.9000000000000E-01  1.0438063893585E+00 -4.2740971530569E-02
    71  7.0000000000000E-01  1.0792046581751E+00 -6.4784739288332E-02
    72  7.1000000000000E-01  1.1121293687059E+00 -8.3291364278886E-02
    73  7.2000000000000E-01  1.1422612224122E+00 -9.7825439091988E-02
    74  7.3000000000000E-01  1.1693097635616E+00 -1.0799828228011E-01
    75  7.4000000000000E-01  1.1930175468331E+00 -1.1347411325068E-01
    76  7.5000000000000E-01  1.2131639138210E+00 -1.1397559358752E-01
    77  7.6000000000000E-01  1.2295683227635E+00 -1.0928865065762E-01
    78  7.7000000000000E-01  1.2420931812683E+00 -9.9266508112134E-02
    79  7.8000000000000E-01  1.2506461379821E+00 -8.3832857757795E-02
    80  7.9000000000000E-01  1.2551817959756E+00 -6.2984118134260E-02
    81  8.0000000000000E-01  1.2557028180140E+00 -3.6790736846648E-02
    82  8.1000000000000E-01  1.2522604017467E+00 -5.3975061225970E-03