Te    ONCVPSP-4.0.1  r_core=   2.25420   1.90656   1.80662
     52.0000     16.0000      250217    zatom,zion,pspd
     8       2   2     4   600     0    pspcod,pspxc,lmax,lloc,mmax,r2well
  5.99000000  5.00000000  0.00000000    rchrg fchrg qchrg
     2     3     2     0    nproj
     3     1           extension_switch
     4     3     0    nprojso
   0                         6.3881964197195E+00  7.8441517209930E-01
     1  0.0000000000000E+00  4.7035847439147E-11 -1.1440777838989E-10
     2  1.0000000000000E-02  1.6508397845021E-02 -1.8894912921620E-03
     3  2.0000000000000E-02  3.3041946389977E-02 -3.8225087704584E-03
     4  3.0000000000000E-02  4.9625585106538E-02 -5.8421630739033E-03
     5  4.0000000000000E-02  6.6283832557888E-02 -7.9907372361236E-03
     6  5.0000000000000E-02  8.3040579802565E-02 -1.0309281575611E-02
     7  6.0000000000000E-02  9.9918888394558E-02 -1.2837218936008E-02
     8  7.0000000000000E-02  1.1694079445620E-01 -1.5611963591336E-02
     9  8.0000000000000E-02  1.3412712025345E-01 -1.8668557016643E-02
    10  9.0000000000000E-02  1.5149729464495E-01 -2.2039323583364E-02
    11  1.0000000000000E-01  1.6906918370776E-01 -2.5753549071709E-02
    12  1.1000000000000E-01  1.8685893276350E-01 -2.9837184701179E-02
    13  1.2000000000000E-01  2.0488082094093E-01 -3.4312579166259E-02
    14  1.3000000000000E-01  2.2314712931341E-01 -3.9198240929382E-02
    15  1.4000000000000E-01  2.4166802354495E-01 -4.4508632769027E-02
    16  1.5000000000000E-01  2.6045145186636E-01 -5.0254000309841E-02
    17  1.6000000000000E-01  2.7950305908413E-01 -5.6440235975622E-02
    18  1.7000000000000E-01  2.9882611720094E-01 -6.3068779507844E-02
    19  1.8000000000000E-01  3.1842147309834E-01 -7.0136555883963E-02
    20  1.9000000000000E-01  3.3828751359998E-01 -7.7635951154157E-02
    21  2.0000000000000E-01  3.5842014809996E-01 -8.5554826394567E-02
    22  2.1000000000000E-01  3.7881280880507E-01 -9.3876569652510E-02
    23  2.2000000000000E-01  3.9945646850407E-01 -1.0258018543692E-01
    24  2.3000000000000E-01  4.2033967564186E-01 -1.1164042098851E-01
    25  2.4000000000000E-01  4.4144860634375E-01 -1.2102792825107E-01
    26  2.5000000000000E-01  4.6276713290441E-01 -1.3070946016088E-01
    27  2.6000000000000E-01  4.8427690813014E-01 -1.4064809957788E-01
    28  2.7000000000000E-01  5.0595746480169E-01 -1.5080351890258E-01
    29  2.8000000000000E-01  5.2778632940982E-01 -1.6113226815864E-01
    30  2.9000000000000E-01  5.4973914920694E-01 -1.7158808907605E-01
    31  3.0000000000000E-01  5.7178983151791E-01 -1.8212225248401E-01
    32  3.1000000000000E-01  5.9391069416064E-01 -1.9268391612062E-01
    33  3.2000000000000E-01  6.1607262574439E-01 -2.0322049978714E-01
    34  3.3000000000000E-01  6.3824525454082E-01 -2.1367807462207E-01
    35  3.4000000000000E-01  6.6039712456052E-01 -2.2400176314444E-01
    36  3.5000000000000E-01  6.8249587741643E-01 -2.3413614661820E-01
    37  3.6000000000000E-01  7.0450843851614E-01 -2.4402567622134E-01
    38  3.7000000000000E-01  7.2640120609694E-01 -2.5361508446534E-01
    39  3.8000000000000E-01  7.4814024160196E-01 -2.6284979330255E-01
    40  3.9000000000000E-01  7.6969145989220E-01 -2.7167631538203E-01
    41  4.0000000000000E-01  7.9102081779809E-01 -2.8004264496793E-01
    42  4.1000000000000E-01  8.1209449953539E-01 -2.8789863511827E-01
    43  4.2000000000000E-01  8.3287909754328E-01 -2.9519635783548E-01
    44  4.3000000000000E-01  8.5334178734784E-01 -3.0189044404272E-01
    45  4.4000000000000E-01  8.7345049511040E-01 -3.0793840041043E-01
    46  4.5000000000000E-01  8.9317405658829E-01 -3.1330090025473E-01
    47  4.6000000000000E-01  9.1248236631342E-01 -3.1794204595140E-01
    48  4.7000000000000E-01  9.3134651588270E-01 -3.2182960055495E-01
    49  4.8000000000000E-01  9.4973892035137E-01 -3.2493518657915E-01
    50  4.9000000000000E-01  9.6763343182660E-01 -3.2723445018172E-01
    51  5.0000000000000E-01  9.8500543947200E-01 -3.2870718929917E-01
    52  5.1000000000000E-01  1.0018319552540E+00 -3.2933744459532E-01
    53  5.2000000000000E-01  1.0180916848870E+00 -3.2911355241675E-01
    54  5.3000000000000E-01  1.0337650835649E+00 -3.2802815928674E-01
    55  5.4000000000000E-01  1.0488343962006E+00 -3.2607819781425E-01
    56  5.5000000000000E-01  1.0632836820322E+00 -3.2326482424260E-01
    57  5.6000000000000E-01  1.0770988235921E+00 -3.1959331821075E-01
    58  5.7000000000000E-01  1.0902675201753E+00 -3.1507294564600E-01
    59  5.8000000000000E-01  1.1027792660765E+00 -3.0971678604688E-01
    60  5.9000000000000E-01  1.1146253140069E+00 -3.0354152574628E-01
    61  6.0000000000000E-01  1.1257986242273E+00 -2.9656721906470E-01
    62  6.1000000000000E-01  1.1362938000663E+00 -2.8881701956845E-01
    63  6.2000000000000E-01  1.1461070106122E+00 -2.8031688393584E-01
    64  6.3000000000000E-01  1.1552359014826E+00 -2.7109525120210E-01
    65  6.4000000000000E-01  1.1636794946855E+00 -2.6118270039925E-01
    66  6.5000000000000E-01  1.1714380786817E+00 -2.5061158982817E-01
    67  6.6000000000000E-01  1.1785130898522E+00 -2.3941568139335E-01
    68  6.7000000000000E-01  1.1849069866498E+00 -2.2762975359615E-01
    69  6.8000000000000E-01  1.1906231177866E+00 -2.1528920691618E-01
    70  6.9000000000000E-01  1.1956655858618E+00 -2.0242966541279E-01
    71  7.0000000000000E-01  1.2000391078836E+00 -1.8908657844739E-01
    72  7.1000000000000E-01  1.2037488741656E+00 -1.7529482646179E-01
    73  7.2000000000000E-01  1.2068004071025E+00 -1.6108833474732E-01
    74  7.3000000000000E-01  1.2091994213305E+00 -1.4649969910407E-01
    75  7.4000000000000E-01  1.2109516867731E+00 -1.3155982721812E-01
    76  7.5000000000000E-01  1.2120628960513E+00 -1.1629759947875E-01
    77  7.6000000000000E-01  1.2125385376996E+00 -1.0073955281693E-01
    78  7.7000000000000E-01  1.2123837765854E+00 -8.4909590971452E-02
    79  7.8000000000000E-01  1.2116033428653E+00 -6.8828724382449E-02
    80  7.9000000000000E-01  1.2102014307394E+00 -5.2514842673347E-02
    81  8.0000000000000E-01  1.2081816081800E+00 -3.5982522414788E-02
    82  8.1000000000000E-01  1.2055467387131E+00 -1.9242872568717E-02
    83  8.2000000000000E-01  1.2022989162259E+00 -2.3034196904404E-03
    84  8.3000000000000E-01  1.1984394136542E+00  1.4831965376616E-02
    85  8.4000000000000E-01  1.1939686462803E+00  3.2163097942084E-02
    86  8.5000000000000E-01  1.1888861502366E+00  4.9693466054275E-02
    87  8.6000000000000E-01  1.1831905766715E+00  6.7430172633115E-02
    88  8.7000000000000E-01  1.1768797018878E+00  8.5383832958142E-02
    89  8.8000000000000E-01  1.1699504536135E+00  1.0356842773127E-01
    90  8.9000000000000E-01  1.1623989534130E+00  1.2200111235015E-01
    91  9.0000000000000E-01  1.1542205750910E+00  1.4070198344385E-01
    92  9.1000000000000E-01  1.1454100187868E+00  1.5969380413562E-01
    93  9.2000000000000E-01  1.1359614003022E+00  1.7900168990275E-01
    94  9.3000000000000E-01  1.1258683550543E+00  1.9865275729875E-01
    95  9.4000000000000E-01  1.1151241558963E+00  2.1867573818387E-01
    96  9.5000000000000E-01  1.1037218439063E+00  2.3910056247240E-01
    97  9.6000000000000E-01  1.0916543711058E+00  2.5995791274759E-01
    98  9.7000000000000E-01  1.0789147539427E+00  2.8127875441182E-01
    99  9.8000000000000E-01  1.0654962362488E+00  3.0309384532969E-01
   100  9.9000000000000E-01  1.0513924602746E+00  3.2543322918123E-01
   101  1.0000000000000E+00  1.0365976443019E+00  3.4832571696839E-01
   102  1.0100000000000E+00  1.0211067652470E+00  3.7179836130936E-01
   103  1.0200000000000E+00  1.0049157445927E+00  3.9587592830788E-01
   104  1.0300000000000E+00  9.8802163592460E-01  4.2058037189911E-01
   105  1.0400000000000E+00  9.7042281230010E-01  4.4593031564593E-01
   106  1.0500000000000E+00  9.5211915164672E-01  4.7194054699023E-01
   107  1.0600000000000E+00  9.3311221836798E-01  4.9862152895140E-01
   108  1.0700000000000E+00  9.1340543933451E-01  5.2597893420777E-01
   109  1.0800000000000E+00  8.9300427245168E-01  5.5401320639771E-01
   110  1.0900000000000E+00  8.7191636602586E-01  5.8271915333303E-01
   111  1.1000000000000E+00  8.5015170719699E-01  6.1208557663207E-01
   112  1.1100000000000E+00  8.2772275776716E-01  6.4209494205169E-01
   113  1.1200000000000E+00  8.0464457583163E-01  6.7272309452903E-01
   114  1.1300000000000E+00  7.8093492171081E-01  7.0393902163703E-01
   115  1.1400000000000E+00  7.5661434678733E-01  7.3570466881375E-01
   116  1.1500000000000E+00  7.3170626397199E-01  7.6797480934791E-01
   117  1.1600000000000E+00  7.0623699865450E-01  8.0069697169287E-01
   118  1.1700000000000E+00  6.8023581913813E-01  8.3381142624440E-01
   119  1.1800000000000E+00  6.5373494571227E-01  8.6725123325284E-01
   120  1.1900000000000E+00  6.2676953767974E-01  9.0094235305740E-01
   121  1.2000000000000E+00  5.9937765782776E-01  9.3480381932598E-01
   122  1.2100000000000E+00  5.7160021400977E-01  9.6874797546887E-01
   123  1.2200000000000E+00  5.4348087768864E-01  1.0026807738684E+00
   124  1.2300000000000E+00  5.1506597947979E-01  1.0365021370342E+00
   125  1.2400000000000E+00  4.8640438192170E-01  1.0701063792643E+00
   126  1.2500000000000E+00  4.5754732989253E-01  1.1033826868601E+00
   127  1.2600000000000E+00  4.2854827928045E-01  1.1362156544247E+00
   128  1.2700000000000E+00  3.9946270470258E-01  1.1684858742666E+00
   129  1.2800000000000E+00  3.7034788725045E-01  1.2000705754360E+00
   130  1.2900000000000E+00  3.4126268341725E-01  1.2308443084552E+00
   131  1.3000000000000E+00  3.1226727653191E-01  1.2606796713556E+00
   132  1.3100000000000E+00  2.8342291218709E-01  1.2894480722225E+00
   133  1.3200000000000E+00  2.5479161929920E-01  1.3170205230609E+00
   134  1.3300000000000E+00  2.2643591857836E-01  1.3432684594590E+00
   135  1.3400000000000E+00  1.9841852031361E-01  1.3680645802101E+00
   136  1.3500000000000E+00  1.7080201349197E-01  1.3912837008013E+00
   137  1.3600000000000E+00  1.4364854836793E-01  1.4128036144533E+00
   138  1.3700000000000E+00  1.1701951468237E-01  1.4325059542338E+00
   139  1.3800000000000E+00  9.0975217795554E-02  1.4502770496439E+00
   140  1.3900000000000E+00  6.5574555046933E-02  1.4660087710140E+00
   141  1.4000000000000E+00  4.0874694684168E-02  1.4795993550292E+00
   142  1.4100000000000E+00  1.6930759715862E-02  1.4909542047475E+00
   143  1.4200000000000E+00 -6.2044809648358E-03  1.4999866575647E+00
   144  1.4300000000000E+00 -2.8480911864477E-02  1.5066187147281E+00
   145  1.4400000000000E+00 -4.9851358304557E-02  1.5107817262028E+00
   146  1.4500000000000E+00 -7.0271859754281E-02  1.5124170249445E+00
   147  1.4600000000000E+00 -8.9701926948355E-02  1.5114765049365E+00
   148  1.4700000000000E+00 -1.0810478075634E-01  1.5079231376982E+00
   149  1.4800000000000E+00 -1.2544757088606E-01  1.5017314223726E+00
   150  1.4900000000000E+00 -1.4170157263544E-01  1.4928877649353E+00
   151  1.5000000000000E+00 -1.5684236005419E-01  1.4813907825551E+00
   152  1.5100000000000E+00 -1.7084995403839E-01  1.4672515296453E+00
   153  1.5200000000000E+00 -1.8370894405470E-01  1.4504936427025E+00
   154  1.5300000000000E+00 -1.9540858237703E-01  1.4311534016033E+00
   155  1.5400000000000E+00 -2.0594284991370E-01  1.4092797056333E+00
   156  1.5500000000000E+00 -2.1531049290821E-01  1.3849339631455E+00
   157  1.5600000000000E+00 -2.2351503000745E-01  1.3581898943843E+00
   158  1.5700000000000E+00 -2.3056472940809E-01  1.3291332476535E+00
   159  1.5800000000000E+00 -2.3647255601210E-01  1.2978614296631E+00
   160  1.5900000000000E+00 -2.4125608874423E-01  1.2644830515370E+00
   161  1.6000000000000E+00 -2.4493740840643E-01  1.2291173926116E+00
   162  1.6100000000000E+00 -2.4754295666449E-01  1.1918937847863E+00
   163  1.6200000000000E+00 -2.4910336697889E-01  1.1529509208079E+00
   164  1.6300000000000E+00 -2.4965326850327E-01  1.1124360904645E+00
   165  1.6400000000000E+00 -2.4923106417820E-01  1.0705043492381E+00
   166  1.6500000000000E+00 -2.4787868444390E-01  1.0273176245008E+00
   167  1.6600000000000E+00 -2.4564131818066E-01  9.8304376484807E-01
   168  1.6700000000000E+00 -2.4256712265905E-01  9.3785553862283E-01
   169  1.6800000000000E+00 -2.3870691444287E-01  8.9192958810850E-01
   170  1.6900000000000E+00 -2.3411384333258E-01  8.4544534624105E-01
   171  1.7000000000000E+00 -2.2884305156737E-01  7.9858392301440E-01
   172  1.7100000000000E+00 -2.2295132061670E-01  7.5152696902382E-01
   173  1.7200000000000E+00 -2.1649670798710E-01  7.0445552380689E-01
   174  1.7300000000000E+00 -2.0953817654682E-01  6.5754885679842E-01
   175  1.7400000000000E+00 -2.0213521892758E-01  6.1098330881497E-01
   176  1.7500000000000E+00 -1.9434747960063E-01  5.6493114202177E-01
   177  1.7600000000000E+00 -1.8623437724126E-01  5.1955940631369E-01
   178  1.7700000000000E+00 -1.7785472999322E-01  4.7502882995853E-01
   179  1.7800000000000E+00 -1.6926638617405E-01  4.3149274189471E-01
   180  1.7900000000000E+00 -1.6052586298731E-01  3.8909603341655E-01
   181  1.8000000000000E+00 -1.5168799809860E-01  3.4797418159307E-01
   182  1.8100000000000E+00 -1.4280560232303E-01  3.0825224912646E-01
   183  1.8200000000000E+00 -1.3392920530200E-01  2.7004445810165E-01
   184  1.8300000000000E+00 -1.2510694981741E-01  2.3345463902040E-01
   185  1.8400000000000E+00 -1.1638446917205E-01  1.9857640384307E-01
   186  1.8500000000000E+00 -1.0780466761397E-01  1.6549257577389E-01
   187  1.8600000000000E+00 -9.9407530050234E-02  1.3427474776848E-01
   188  1.8700000000000E+00 -9.1229952857116E-02  1.0498290636317E-01
   189  1.8800000000000E+00 -8.3305598881253E-02  7.7665137742171E-02
   190  1.8900000000000E+00 -7.5664777561341E-02  5.2357418144071E-02
   191  1.9000000000000E+00 -6.8334350894667E-02  2.9083490100469E-02
   192  1.9100000000000E+00 -6.1337665793386E-02  7.8548255273184E-03
   193  1.9200000000000E+00 -5.4694513167066E-02 -1.1329323966519E-02
   194  1.9300000000000E+00 -4.8421113856888E-02 -2.8481789849535E-02
   195  1.9400000000000E+00 -4.2530131335209E-02 -4.3627263471635E-02
   196  1.9500000000000E+00 -3.7030710870332E-02 -5.6801988519086E-02
   197  1.9600000000000E+00 -3.1928544652850E-02 -6.8053371364506E-02
   198  1.9700000000000E+00 -2.7225962169463E-02 -7.7439512201475E-02
   199  1.9800000000000E+00 -2.2922044913416E-02 -8.5028660453504E-02
   200  1.9900000000000E+00 -1.9012764329693E-02 -9.0898598526952E-02
   201  2.0000000000000E+00 -1.5491141709589E-02 -9.5135958531581E-02
   202  2.0100000000000E+00 -1.2347428577776E-02 -9.7835477107403E-02
   203  2.0200000000000E+00 -9.5693059509180E-03 -9.9099193985406E-02
   204  2.0300000000000E+00 -7.1421007091555E-03 -9.9035600318003E-02
   205  2.0400000000000E+00 -5.0490171752823E-03 -9.7758743244926E-02
   206  2.0500000000000E+00 -3.2713818890128E-03 -9.5387293471528E-02
   207  2.0600000000000E+00 -1.7888994583230E-03 -9.2043582938515E-02
   208  2.0700000000000E+00 -5.7991728581488E-04 -8.7852619897261E-02
   209  2.0800000000000E+00  3.7830309708965E-04 -8.2941088881194E-02
   210  2.0900000000000E+00  1.1093104043492E-03 -7.7436343190396E-02
   211  2.1000000000000E+00  1.6371882062551E-03 -7.1465403326053E-02
   212  2.1100000000000E+00  1.9862678330324E-03 -6.5153931349533E-02
   213  2.1200000000000E+00  2.1808566325853E-03 -5.8625253998752E-02
   214  2.1300000000000E+00  2.2450276863067E-03 -5.1999557226550E-02
   215  2.1400000000000E+00  2.2021912028346E-03 -4.5392517571898E-02
   216  2.1500000000000E+00  2.0722338046685E-03 -3.8907527039424E-02
   217  2.1600000000000E+00  1.8727674355680E-03 -3.2638769315081E-02
   218  2.1700000000000E+00  1.6259811511858E-03 -2.6689091736936E-02
   219  2.1800000000000E+00  1.3526888012705E-03 -2.1154133586968E-02
   220  2.1900000000000E+00  1.0716817616280E-03 -1.6120453227944E-02
   221  2.2000000000000E+00  7.9978760600314E-04 -1.1665533143136E-02
   222  2.2100000000000E+00  5.5164697172254E-04 -7.8570609853232E-03
   223  2.2200000000000E+00  3.3968040193745E-04 -4.7540749330343E-03
   224  2.2300000000000E+00  1.7298999152300E-04 -2.3930056194170E-03
   225  2.2400000000000E+00  6.0205166213849E-05 -8.2782520008062E-04
   226  2.2500000000000E+00  7.8542448387645E-06 -1.0820172841459E-04
   227  2.2600000000000E+00 -2.7149140868333E-06  3.6781421560604E-05
   228  2.2700000000000E+00  4.9572115056168E-07 -6.7346391326572E-06
   229  2.28  0.  0.
   230  2.29  0.  0.
   231  2.30  0.  0.
   232  2.31  0.  0.
   233  2.32  0.  0.
   234  2.33  0.  0.
   235  2.34  0.  0.
   236  2.35  0.  0.
   237  2.36  0.  0.
   238  2.37  0.  0.
   239  2.38  0.  0.
   240  2.39  0.  0.
   241  2.40  0.  0.
   242  2.41  0.  0.
   243  2.42  0.  0.
   244  2.43  0.  0.
   245  2.44  0.  0.
   246  2.45  0.  0.
   247  2.46  0.  0.
   248  2.47  0.  0.
   249  2.48  0.  0.
   250  2.49  0.  0.
   251  2.50  0.  0.
   252  2.51  0.  0.
   253  2.52  0.  0.
   254  2.53  0.  0.
   255  2.54  0.  0.
   256  2.55  0.  0.
   257  2.56  0.  0.
   258  2.57  0.  0.
   259  2.58  0.  0.
   260  2.59  0.  0.
   261  2.60  0.  0.
   262  2.61  0.  0.
   263  2.62  0.  0.
   264  2.63  0.  0.
   265  2.64  0.  0.
   266  2.65  0.  0.
   267  2.66  0.  0.
   268  2.67  0.  0.
   269  2.68  0.  0.
   270  2.69  0.  0.
   271  2.70  0.  0.
   272  2.71  0.  0.
   273  2.72  0.  0.
   274  2.73  0.  0.
   275  2.74  0.  0.
   276  2.75  0.  0.
   277  2.76  0.  0.
   278  2.77  0.  0.
   279  2.78  0.  0.
   280  2.79  0.  0.
   281  2.80  0.  0.
   282  2.81  0.  0.
   283  2.82  0.  0.
   284  2.83  0.  0.
   285  2.84  0.  0.
   286  2.85  0.  0.
   287  2.86  0.  0.
   288  2.87  0.  0.
   289  2.88  0.  0.
   290  2.89  0.  0.
   291  2.90  0.  0.
   292  2.91  0.  0.
   293  2.92  0.  0.
   294  2.93  0.  0.
   295  2.94  0.  0.
   296  2.95  0.  0.
   297  2.96  0.  0.
   298  2.97  0.  0.
   299  2.98  0.  0.
   300  2.99  0.  0.
   301  3.00  0.  0.
   302  3.01  0.  0.
   303  3.02  0.  0.
   304  3.03  0.  0.
   305  3.04  0.  0.
   306  3.05  0.  0.
   307  3.06  0.  0.
   308  3.07  0.  0.
   309  3.08  0.  0.
   310  3.09  0.  0.
   311  3.10  0.  0.
   312  3.11  0.  0.
   313  3.12  0.  0.
   314  3.13  0.  0.
   315  3.14  0.  0.
   316  3.15  0.  0.
   317  3.16  0.  0.
   318  3.17  0.  0.
   319  3.18  0.  0.
   320  3.19  0.  0.
   321  3.20  0.  0.
   322  3.21  0.  0.
   323  3.22  0.  0.
   324  3.23  0.  0.
   325  3.24  0.  0.
   326  3.25  0.  0.
   327  3.26  0.  0.
   328  3.27  0.  0.
   329  3.28  0.  0.
   330  3.29  0.  0.
   331  3.30  0.  0.
   332  3.31  0.  0.
   333  3.32  0.  0.
   334  3.33  0.  0.
   335  3.34  0.  0.
   336  3.35  0.  0.
   337  3.36  0.  0.
   338  3.37  0.  0.
   339  3.38  0.  0.
   340  3.39  0.  0.
   341  3.40  0.  0.
   342  3.41  0.  0.
   343  3.42  0.  0.
   344  3.43  0.  0.
   345  3.44  0.  0.
   346  3.45  0.  0.
   347  3.46  0.  0.
   348  3.47  0.  0.
   349  3.48  0.  0.
   350  3.49  0.  0.
   351  3.50  0.  0.
   352  3.51  0.  0.
   353  3.52  0.  0.
   354  3.53  0.  0.
   355  3.54  0.  0.
   356  3.55  0.  0.
   357  3.56  0.  0.
   358  3.57  0.  0.
   359  3.58  0.  0.
   360  3.59  0.  0.
   361  3.60  0.  0.
   362  3.61  0.  0.
   363  3.62  0.  0.
   364  3.63  0.  0.
   365  3.64  0.  0.
   366  3.65  0.  0.
   367  3.66  0.  0.
   368  3.67  0.  0.
   369  3.68  0.  0.
   370  3.69  0.  0.
   371  3.70  0.  0.
   372  3.71  0.  0.
   373  3.72  0.  0.
   374  3.73  0.  0.
   375  3.74  0.  0.
   376  3.75  0.  0.
   377  3.76  0.  0.
   378  3.77  0.  0.
   379  3.78  0.  0.
   380  3.79  0.  0.
   381  3.80  0.  0.
   382  3.81  0.  0.
   383  3.82  0.  0.
   384  3.83  0.  0.
   385  3.84  0.  0.
   386  3.85  0.  0.
   387  3.86  0.  0.
   388  3.87  0.  0.
   389  3.88  0.  0.
   390  3.89  0.  0.
   391  3.90  0.  0.
   392  3.91  0.  0.
   393  3.92  0.  0.
   394  3.93  0.  0.
   395  3.94  0.  0.
   396  3.95  0.  0.
   397  3.96  0.  0.
   398  3.97  0.  0.
   399  3.98  0.  0.
   400  3.99  0.  0.
   401  4.00  0.  0.
   402  4.01  0.  0.
   403  4.02  0.  0.
   404  4.03  0.  0.
   405  4.04  0.  0.
   406  4.05  0.  0.
   407  4.06  0.  0.
   408  4.07  0.  0.
   409  4.08  0.  0.
   410  4.09  0.  0.
   411  4.10  0.  0.
   412  4.11  0.  0.
   413  4.12  0.  0.
   414  4.13  0.  0.
   415  4.14  0.  0.
   416  4.15  0.  0.
   417  4.16  0.  0.
   418  4.17  0.  0.
   419  4.18  0.  0.
   420  4.19  0.  0.
   421  4.20  0.  0.
   422  4.21  0.  0.
   423  4.22  0.  0.
   424  4.23  0.  0.
   425  4.24  0.  0.
   426  4.25  0.  0.
   427  4.26  0.  0.
   428  4.27  0.  0.
   429  4.28  0.  0.
   430  4.29  0.  0.
   431  4.30  0.  0.
   432  4.31  0.  0.
   433  4.32  0.  0.
   434  4.33  0.  0.
   435  4.34  0.  0.
   436  4.35  0.  0.
   437  4.36  0.  0.
   438  4.37  0.  0.
   439  4.38  0.  0.
   440  4.39  0.  0.
   441  4.40  0.  0.
   442  4.41  0.  0.
   443  4.42  0.  0.
   444  4.43  0.  0.
   445  4.44  0.  0.
   446  4.45  0.  0.
   447  4.46  0.  0.
   448  4.47  0.  0.
   449  4.48  0.  0.
   450  4.49  0.  0.
   451  4.50  0.  0.
   452  4.51  0.  0.
   453  4.52  0.  0.
   454  4.53  0.  0.
   455  4.54  0.  0.
   456  4.55  0.  0.
   457  4.56  0.  0.
   458  4.57  0.  0.
   459  4.58  0.  0.
   460  4.59  0.  0.
   461  4.60  0.  0.
   462  4.61  0.  0.
   463  4.62  0.  0.
   464  4.63  0.  0.
   465  4.64  0.  0.
   466  4.65  0.  0.
   467  4.66  0.  0.
   468  4.67  0.  0.
   469  4.68  0.  0.
   470  4.69  0.  0.
   471  4.70  0.  0.
   472  4.71  0.  0.
   473  4.72  0.  0.
   474  4.73  0.  0.
   475  4.74  0.  0.
   476  4.75  0.  0.
   477  4.76  0.  0.
   478  4.77  0.  0.
   479  4.78  0.  0.
   480  4.79  0.  0.
   481  4.80  0.  0.
   482  4.81  0.  0.
   483  4.82  0.  0.
   484  4.83  0.  0.
   485  4.84  0.  0.
   486  4.85  0.  0.
   487  4.86  0.  0.
   488  4.87  0.  0.
   489  4.88  0.  0.
   490  4.89  0.  0.
   491  4.90  0.  0.
   492  4.91  0.  0.
   493  4.92  0.  0.
   494  4.93  0.  0.
   495  4.94  0.  0.
   496  4.95  0.  0.
   497  4.96  0.  0.
   498  4.97  0.  0.
   499  4.98  0.  0.
   500  4.99  0.  0.
   501  5.00  0.  0.
   502  5.01  0.  0.
   503  5.02  0.  0.
   504  5.03  0.  0.
   505  5.04  0.  0.
   506  5.05  0.  0.
   507  5.06  0.  0.
   508  5.07  0.  0.
   509  5.08  0.  0.
   510  5.09  0.  0.
   511  5.10  0.  0.
   512  5.11  0.  0.
   513  5.12  0.  0.
   514  5.13  0.  0.
   515  5.14  0.  0.
   516  5.15  0.  0.
   517  5.16  0.  0.
   518  5.17  0.  0.
   519  5.18  0.  0.
   520  5.19  0.  0.
   521  5.20  0.  0.
   522  5.21  0.  0.
   523  5.22  0.  0.
   524  5.23  0.  0.
   525  5.24  0.  0.
   526  5.25  0.  0.
   527  5.26  0.  0.
   528  5.27  0.  0.
   529  5.28  0.  0.
   530  5.29  0.  0.
   531  5.30  0.  0.
   532  5.31  0.  0.
   533  5.32  0.  0.
   534  5.33  0.  0.
   535  5.34  0.  0.
   536  5.35  0.  0.
   537  5.36  0.  0.
   538  5.37  0.  0.
   539  5.38  0.  0.
   540  5.39  0.  0.
   541  5.40  0.  0.
   542  5.41  0.  0.
   543  5.42  0.  0.
   544  5.43  0.  0.
   545  5.44  0.  0.
   546  5.45  0.  0.
   547  5.46  0.  0.
   548  5.47  0.  0.
   549  5.48  0.  0.
   550  5.49  0.  0.
   551  5.50  0.  0.
   552  5.51  0.  0.
   553  5.52  0.  0.
   554  5.53  0.  0.
   555  5.54  0.  0.
   556  5.55  0.  0.
   557  5.56  0.  0.
   558  5.57  0.  0.
   559  5.58  0.  0.
   560  5.59  0.  0.
   561  5.60  0.  0.
   562  5.61  0.  0.
   563  5.62  0.  0.
   564  5.63  0.  0.
   565  5.64  0.  0.
   566  5.65  0.  0.
   567  5.66  0.  0.
   568  5.67  0.  0.
   569  5.68  0.  0.
   570  5.69  0.  0.
   571  5.70  0.  0.
   572  5.71  0.  0.
   573  5.72  0.  0.
   574  5.73  0.  0.
   575  5.74  0.  0.
   576  5.75  0.  0.
   577  5.76  0.  0.
   578  5.77  0.  0.
   579  5.78  0.  0.
   580  5.79  0.  0.
   581  5.80  0.  0.
   582  5.81  0.  0.
   583  5.82  0.  0.
   584  5.83  0.  0.
   585  5.84  0.  0.
   586  5.85  0.  0.
   587  5.86  0.  0.
   588  5.87  0.  0.
   589  5.88  0.  0.
   590  5.89  0.  0.
   591  5.90  0.  0.
   592  5.91  0.  0.
   593  5.92  0.  0.
   594  5.93  0.  0.
   595  5.94  0.  0.
   596  5.95  0.  0.
   597  5.96  0.  0.
   598  5.97  0.  0.
   599  5.98  0.  0.
   600  5.99  0.  0.
   1                         5.4402683606394E+00  1.0722735753151E+00  3.0292836588458E-02
     1  0.0000000000000E+00  6.1224836034324E-09 -9.2832081466376E-09  5.3501810447221E-09
     2  1.0000000000000E-02  1.1969447952111E-03 -1.3182313831025E-03  3.3564725590639E-04
     3  2.0000000000000E-02  4.7716859254877E-03 -5.2493381439045E-03  1.3294993024900E-03
     4  3.0000000000000E-02  1.0676183352464E-02 -1.1722918326625E-02  2.9424960562262E-03
     5  4.0000000000000E-02  1.8831166001775E-02 -2.0622830822655E-02  5.1102313096671E-03
     6  5.0000000000000E-02  2.9127313268728E-02 -3.1788970418307E-02  7.7439831655746E-03
     7  6.0000000000000E-02  4.1426885339756E-02 -4.5019716765442E-02  1.0732135866653E-02
     8  7.0000000000000E-02  5.5565778939644E-02 -6.0075021784980E-02  1.3941972587572E-02
     9  8.0000000000000E-02  7.1355978992013E-02 -7.6680090730092E-02  1.7221813405786E-02
    10  9.0000000000000E-02  8.8588370967844E-02 -9.4529603479132E-02  2.0403467673416E-02
    11  1.0000000000000E-01  1.0703587347360E-01 -1.1329241471983E-01  2.3304965444998E-02
    12  1.1000000000000E-01  1.2645684596971E-01 -1.3261666463727E-01  2.5733528537270E-02
    13  1.2000000000000E-01  1.4659872247714E-01 -1.5213522562842E-01  2.7488738265629E-02
    14  1.3000000000000E-01  1.6720181878170E-01 -1.7147140552236E-01  2.8365853966195E-02
    15  1.4000000000000E-01  1.8800325802940E-01 -1.9024482385970E-01  2.8159234114835E-02
    16  1.5000000000000E-01  2.0874095776041E-01 -2.0807737503485E-01  2.6665810227341E-02
    17  1.6000000000000E-01  2.2915762037990E-01 -2.2459919057064E-01  2.3688562792457E-02
    18  1.7000000000000E-01  2.4900466882837E-01 -2.3945451250217E-01  1.9039948266188E-02
    19  1.8000000000000E-01  2.6804606979697E-01 -2.5230739080103E-01  1.2545226646073E-02
    20  1.9000000000000E-01  2.8606198822860E-01 -2.6284711996443E-01  4.0456403436448E-03
    21  2.0000000000000E-01  3.0285221903655E-01 -2.7079333329695E-01 -6.5986030330700E-03
    22  2.1000000000000E-01  3.1823934493037E-01 -2.7590067798442E-01 -1.9505588810776E-02
    23  2.2000000000000E-01  3.3207157292606E-01 -2.7796299973747E-01 -3.4769235918834E-02
    24  2.3000000000000E-01  3.4422520648431E-01 -2.7681697249311E-01 -5.2457157920084E-02
    25  2.4000000000000E-01  3.5460671520961E-01 -2.7234511631535E-01 -7.2608877890182E-02
    26  2.5000000000000E-01  3.6315436958737E-01 -2.6447815512777E-01 -9.5234425802569E-02
    27  2.6000000000000E-01  3.6983941426027E-01 -2.5319667512704E-01 -1.2031334182642E-01
    28  2.7000000000000E-01  3.7466675976916E-01 -2.3853205454132E-01 -1.4779410334222E-01
    29  2.8000000000000E-01  3.7767517941861E-01 -2.2056664567682E-01 -1.7759398760213E-01
    30  2.9000000000000E-01  3.7893700488312E-01 -1.9943320079930E-01 -2.0959937588785E-01
    31  3.0000000000000E-01  3.7855732124990E-01 -1.7531354417806E-01 -2.4366649883050E-01
    32  3.1000000000000E-01  3.7667266930213E-01 -1.4843650342921E-01 -2.7962261634079E-01
    33  3.2000000000000E-01  3.7344926988424E-01 -1.1907512398292E-01 -3.1726761943652E-01
    34  3.3000000000000E-01  3.6908079206019E-01 -8.7543200916039E-02 -3.5637603523587E-01
    35  3.4000000000000E-01  3.6378569338211E-01 -5.4191172391076E-02 -3.9669941059020E-01
    36  3.5000000000000E-01  3.5780416683698E-01 -1.9401428384038E-02 -4.3796904434106E-01
    37  3.6000000000000E-01  3.5139473484503E-01  1.6416902867647E-02 -4.7989903308024E-01
    38  3.7000000000000E-01  3.4483053596404E-01  5.2833620335053E-02 -5.2218959063903E-01
    39  3.8000000000000E-01  3.3839535463106E-01  8.9403490225619E-02 -5.6453059740331E-01
    40  3.9000000000000E-01  3.3237944828176E-01  1.2567257724674E-01 -6.0660533200053E-01
    41  4.0000000000000E-01  3.2707522946641E-01  1.6118477894555E-01 -6.4809433498788E-01
    42  4.1000000000000E-01  3.2277286308286E-01  1.9548847132686E-01 -6.8867935193095E-01
    43  4.2000000000000E-01  3.1975584052999E-01  2.2814317157020E-01 -7.2804730173299E-01
    44  4.3000000000000E-01  3.1829659342344E-01  2.5872612258446E-01 -7.6589421528387E-01
    45  4.4000000000000E-01  3.1865220949043E-01  2.8683870437864E-01 -8.0192908945822E-01
    46  4.5000000000000E-01  3.2106031236865E-01  3.1211257879607E-01 -8.3587760221201E-01
    47  4.6000000000000E-01  3.2573516528029E-01  3.3421547704425E-01 -8.6748563599897E-01
    48  4.7000000000000E-01  3.3286405595633E-01  3.5285654362337E-01 -8.9652255893955E-01
    49  4.8000000000000E-01  3.4260401677673E-01  3.6779115566592E-01 -9.2278421610001E-01
    50  4.9000000000000E-01  3.5507892991064E-01  3.7882514328119E-01 -9.4609558684182E-01
    51  5.0000000000000E-01  3.7037706233961E-01  3.8581834417174E-01 -9.6631306844000E-01
    52  5.1000000000000E-01  3.8854907008683E-01  3.8868743445547E-01 -9.8332635098740E-01
    53  5.2000000000000E-01  4.0960650482873E-01  3.8740798717638E-01 -9.9705985394119E-01
    54  5.3000000000000E-01  4.3352084941132E-01  3.8201572029479E-01 -1.0074737004581E+00
    55  5.4000000000000E-01  4.6022310171940E-01  3.7260690687804E-01 -1.0145642118308E+00
    56  5.5000000000000E-01  4.8960391894566E-01  3.5933793162156E-01 -1.0183639107997E+00
    57  5.6000000000000E-01  5.2151432667700E-01  3.4242398956349E-01 -1.0189410291834E+00
    58  5.7000000000000E-01  5.5576698946011E-01  3.2213693475743E-01 -1.0163985220658E+00
    59  5.8000000000000E-01  5.9213803173058E-01  2.9880229857468E-01 -1.0108725975927E+00
    60  5.9000000000000E-01  6.3036939029696E-01  2.7279550905691E-01 -1.0025307781967E+00
    61  6.0000000000000E-01  6.7017167206752E-01  2.4453735417057E-01 -9.9156951566237E-01
    62  6.1000000000000E-01  7.1122748349648E-01  2.1448874276648E-01 -9.7821138881011E-01