Te    ONCVPSP-4.0.1  r_core=   2.25420   1.90656   1.80662
     52.0000     16.0000      250925    zatom,zion,pspd
     8   -1012   2     4   600     0    pspcod,pspxc,lmax,lloc,mmax,r2well
  5.99000000  5.00000000  0.00000000    rchrg fchrg qchrg
     2     3     2     0    nproj
     3     1           extension_switch
     4     3     0    nprojso
   0                         6.3897799496167E+00  7.8482654844902E-01
     1  0.0000000000000E+00  4.7020332072378E-11 -1.1440382322037E-10
     2  1.0000000000000E-02  1.6505051169997E-02 -1.8878355207149E-03
     3  2.0000000000000E-02  3.3035265565556E-02 -3.8192127191318E-03
     4  3.0000000000000E-02  4.9615595117409E-02 -5.8372575974796E-03
     5  4.0000000000000E-02  6.6270570715085E-02 -7.9842682968592E-03
     6  5.0000000000000E-02  8.3024095545452E-02 -1.0301309862027E-02
     7  6.0000000000000E-02  9.9899243028763E-02 -1.2827819359088E-02
     8  7.0000000000000E-02  1.1691806082917E-01 -1.5601224661909E-02
     9  8.0000000000000E-02  1.3410138236966E-01 -1.8656580108663E-02
    10  9.0000000000000E-02  1.5146864722329E-01 -2.2026222088639E-02
    11  1.0000000000000E-01  1.6903773168372E-01 -2.5739447452460E-02
    12  1.1000000000000E-01  1.8682479073959E-01 -2.9822217447623E-02
    13  1.2000000000000E-01  2.0484411258854E-01 -3.4296889667132E-02
    14  1.3000000000000E-01  2.2310798673006E-01 -3.9181980263985E-02
    15  1.4000000000000E-01  2.4162658657101E-01 -4.4491958430039E-02
    16  1.5000000000000E-01  2.6040786736546E-01 -5.0237074866645E-02
    17  1.6000000000000E-01  2.7945748019188E-01 -5.6423225688482E-02
    18  1.7000000000000E-01  2.9877870254674E-01 -6.3051852903542E-02
    19  1.8000000000000E-01  3.1837238600512E-01 -7.0119882304016E-02
    20  1.9000000000000E-01  3.3823692126694E-01 -7.7619699286846E-02
    21  2.0000000000000E-01  3.5836822077349E-01 -8.5539162802330E-02
    22  2.1000000000000E-01  3.7875971894303E-01 -9.3861657306212E-02
    23  2.2000000000000E-01  3.9940238993860E-01 -1.0256618226868E-01
    24  2.3000000000000E-01  4.2028478274614E-01 -1.1162747847457E-01
    25  2.4000000000000E-01  4.4139307320765E-01 -1.2101619003610E-01
    26  2.5000000000000E-01  4.6271113252432E-01 -1.3069906073486E-01
    27  2.6000000000000E-01  4.8422061161789E-01 -1.4063916301641E-01
    28  2.7000000000000E-01  5.0590104061751E-01 -1.5079615768094E-01
    29  2.8000000000000E-01  5.2772994262380E-01 -1.6112658204963E-01
    30  2.9000000000000E-01  5.4968296079366E-01 -1.7158416414081E-01
    31  3.0000000000000E-01  5.7173399768833E-01 -1.8212016016475E-01
    32  3.1000000000000E-01  5.9385536573514E-01 -1.9268371244298E-01
    33  3.2000000000000E-01  6.1601794757070E-01 -2.0322222467959E-01
    34  3.3000000000000E-01  6.3819136495998E-01 -2.1368175135861E-01
    35  3.4000000000000E-01  6.6034415492387E-01 -2.2400739791610E-01
    36  3.5000000000000E-01  6.8244395165622E-01 -2.3414372823779E-01
    37  3.6000000000000E-01  7.0445767277178E-01 -2.4403517596502E-01
    38  3.7000000000000E-01  7.2635170839872E-01 -2.5362645605337E-01
    39  3.8000000000000E-01  7.4809211161350E-01 -2.6286297302072E-01
    40  3.9000000000000E-01  7.6964478871248E-01 -2.7169122234402E-01
    41  4.0000000000000E-01  7.9097568782354E-01 -2.8005918151778E-01
    42  4.1000000000000E-01  8.1205098438182E-01 -2.8791668737108E-01
    43  4.2000000000000E-01  8.3283726202739E-01 -2.9521579635329E-01
    44  4.3000000000000E-01  8.5330168752714E-01 -3.0191112464144E-01
    45  4.4000000000000E-01  8.7341217838033E-01 -3.0796016509266E-01
    46  4.5000000000000E-01  8.9313756183451E-01 -3.1332357826210E-01
    47  4.6000000000000E-01  9.1244772411721E-01 -3.1796545492921E-01
    48  4.7000000000000E-01  9.3131374877669E-01 -3.2185354782096E-01
    49  4.8000000000000E-01  9.4970804312258E-01 -3.2495947048712E-01
    50  4.9000000000000E-01  9.6760445186338E-01 -3.2725886156986E-01
    51  5.0000000000000E-01  9.8497835715114E-01 -3.2873151301261E-01
    52  5.1000000000000E-01  1.0018067643639E+00 -3.2936146107112E-01
    53  5.2000000000000E-01  1.0180683730827E+00 -3.2913703931922E-01
    54  5.3000000000000E-01  1.0337436328501E+00 -3.2805089318042E-01
    55  5.4000000000000E-01  1.0488147834322E+00 -3.2609995586148E-01
    56  5.5000000000000E-01  1.0632658794425E+00 -3.2328538591211E-01
    57  5.6000000000000E-01  1.0770827993232E+00 -3.1961246698361E-01
    58  5.7000000000000E-01  1.0902532388204E+00 -3.1509047070514E-01
    59  5.8000000000000E-01  1.1027666892241E+00 -3.0973248393631E-01
    60  5.9000000000000E-01  1.1146144007809E+00 -3.0355520198622E-01
    61  6.0000000000000E-01  1.1257893318197E+00 -2.9657868970920E-01
    62  6.1000000000000E-01  1.1362860842561E+00 -2.8882611269223E-01
    63  6.2000000000000E-01  1.1461008262661E+00 -2.8032344103764E-01
    64  6.3000000000000E-01  1.1552312030330E+00 -2.7109912851230E-01
    65  6.4000000000000E-01  1.1636762365809E+00 -2.6118377008032E-01
    66  6.5000000000000E-01  1.1714362158058E+00 -2.5060974105711E-01
    67  6.6000000000000E-01  1.1785125779070E+00 -2.3941082131631E-01
    68  6.7000000000000E-01  1.1849077825001E+00 -2.2762180814620E-01
    69  6.8000000000000E-01  1.1906251797617E+00 -2.1527812148650E-01
    70  6.9000000000000E-01  1.1956688740128E+00 -2.0241540537851E-01
    71  7.0000000000000E-01  1.2000435841927E+00 -1.8906912953049E-01
    72  7.1000000000000E-01  1.2037545027066E+00 -1.7527419493483E-01
    73  7.2000000000000E-01  1.2068071541502E+00 -1.6106454747316E-01
    74  7.3000000000000E-01  1.2092072554192E+00 -1.4647280340987E-01
    75  7.4000000000000E-01  1.2109605787031E+00 -1.3152989060350E-01
    76  7.5000000000000E-01  1.2120728188432E+00 -1.1626470915941E-01
    77  7.6000000000000E-01  1.2125494664983E+00 -1.0070381510627E-01
    78  7.7000000000000E-01  1.2123956885142E+00 -8.4871130504363E-02
    79  7.8000000000000E-01  1.2116162168318E+00 -6.8787683186640E-02
    80  7.9000000000000E-01  1.2102152471959E+00 -5.2471379095153E-02
    81  8.0000000000000E-01  1.2081963488409E+00 -3.5936809907622E-02
    82  8.1000000000000E-01  1.2055623862327E+00 -1.9195098353462E-02
    83  8.2000000000000E-01  1.2023154538400E+00 -2.2537832986323E-03
    84  8.3000000000000E-01  1.1984568247901E+00  1.4883253665249E-02
    85  8.4000000000000E-01  1.1939869141391E+00  3.2215818754769E-02
    86  8.5000000000000E-01  1.1889052573535E+00  4.9747392659315E-02
    87  8.6000000000000E-01  1.1832105044581E+00  6.7485072738508E-02
    88  8.7000000000000E-01  1.1769004301631E+00  8.5439470559307E-02
    89  8.8000000000000E-01  1.1699719601282E+00  1.0362456499203E-01
    90  8.9000000000000E-01  1.1624212133736E+00  1.2205751150073E-01
    91  9.0000000000000E-01  1.1542435606894E+00  1.4075840867921E-01
    92  9.1000000000000E-01  1.1454336987412E+00  1.5975002349737E-01
    93  9.2000000000000E-01  1.1359857394154E+00  1.7905747712777E-01
    94  9.3000000000000E-01  1.1258933137955E+00  1.9870789361803E-01
    95  9.4000000000000E-01  1.1151496900120E+00  2.1873001405495E-01
    96  9.5000000000000E-01  1.1037479040657E+00  2.3915377922967E-01
    97  9.6000000000000E-01  1.0916809025869E+00  2.6000988415499E-01
    98  9.7000000000000E-01  1.0789416963632E+00  2.8132930810327E-01
    99  9.8000000000000E-01  1.0655235233471E+00  3.0314282412366E-01
   100  9.9000000000000E-01  1.0514200197450E+00  3.2548049225652E-01
   101  1.0000000000000E+00  1.0366253976887E+00  3.4837114088959E-01
   102  1.0100000000000E+00  1.0211346278995E+00  3.7184184089158E-01
   103  1.0200000000000E+00  1.0049436256855E+00  3.9591737731185E-01
   104  1.0300000000000E+00  9.8804943854430E-01  4.2061972354902E-01
   105  1.0400000000000E+00  9.7045043360108E-01  4.4596752296398E-01
   106  1.0500000000000E+00  9.5214648307636E-01  4.7197558294369E-01
   107  1.0600000000000E+00  9.3313914596224E-01  4.9865438640924E-01
   108  1.0700000000000E+00  9.1343184408339E-01  5.2600962570617E-01
   109  1.0800000000000E+00  8.9303003073377E-01  5.5404176371496E-01
   110  1.0900000000000E+00  8.7194135011031E-01  5.8274562687664E-01
   111  1.1000000000000E+00  8.5017578581067E-01  6.1211003464212E-01
   112  1.1100000000000E+00  8.2774579672398E-01  6.4211746962681E-01
   113  1.1200000000000E+00  8.0466643872058E-01  6.7274379248239E-01
   114  1.1300000000000E+00  7.8095547063818E-01  7.0395800519227E-01
   115  1.1400000000000E+00  7.5663344316852E-01  7.3572206615129E-01
   116  1.1500000000000E+00  7.3172376936726E-01  7.6799076001478E-01
   117  1.1600000000000E+00  7.0625277564283E-01  8.0071162488945E-01
   118  1.1700000000000E+00  6.8024973222254E-01  8.3382493900374E-01
   119  1.1800000000000E+00  6.5374686224982E-01  8.6726376852875E-01
   120  1.1900000000000E+00  6.2677932882876E-01  9.0095407773875E-01
   121  1.2000000000000E+00  5.9938519950475E-01  9.3481490219576E-01
   122  1.2100000000000E+00  5.7160538784805E-01  9.6875858512675E-01
   123  1.2200000000000E+00  5.4348357199048E-01  1.0026910766367E+00
   124  1.2300000000000E+00  5.1506609015402E-01  1.0365122948671E+00
   125  1.2400000000000E+00  4.8640181339826E-01  1.0701165476805E+00
   126  1.2500000000000E+00  4.5754199600579E-01  1.1033930129191E+00
   127  1.2600000000000E+00  4.2854010411310E-01  1.1362262747672E+00
   128  1.2700000000000E+00  3.9945162338198E-01  1.1684969132376E+00
   129  1.2800000000000E+00  3.7033384668971E-01  1.2000821433113E+00
   130  1.2900000000000E+00  3.4124564299356E-01  1.2308564997878E+00
   131  1.3000000000000E+00  3.1224720869494E-01  1.2606925634616E+00
   132  1.3100000000000E+00  2.8339980299100E-01  1.2894617238205E+00
   133  1.3200000000000E+00  2.5476546885196E-01  1.3170349730828E+00
   134  1.3300000000000E+00  2.2640674140298E-01  1.3432837260430E+00
   135  1.3400000000000E+00  1.9838634561634E-01  1.3680806598905E+00
   136  1.3500000000000E+00  1.7076688533334E-01  1.3913005679038E+00
   137  1.3600000000000E+00  1.4361052573314E-01  1.4128212207058E+00
   138  1.3700000000000E+00  1.1697867144840E-01  1.4325242285988E+00
   139  1.3800000000000E+00  9.0931642593252E-02  1.4502958983771E+00
   140  1.3900000000000E+00  6.5528351016976E-02  1.4660280779520E+00
   141  1.4000000000000E+00  4.0825979126926E-02  1.4796189821075E+00
   142  1.4100000000000E+00  1.6879663635897E-02  1.4909739927462E+00
   143  1.4200000000000E+00 -6.2578134179473E-03  1.5000064270785E+00
   144  1.4300000000000E+00 -2.8536324056366E-02  1.5066382673554E+00
   145  1.4400000000000E+00 -4.9908681873904E-02  1.5108008459452E+00
   146  1.4500000000000E+00 -7.0330915463928E-02  1.5124354798064E+00
   147  1.4600000000000E+00 -8.9762525624527E-02  1.5114940487137E+00
   148  1.4700000000000E+00 -1.0816672430994E-01  1.5079395119407E+00
   149  1.4800000000000E+00 -1.2551065340938E-01  1.5017463585055E+00
   150  1.4900000000000E+00 -1.4176558156671E-01  1.4929009865218E+00
   151  1.5000000000000E+00 -1.5690707740192E-01  1.4814020076802E+00
   152  1.5100000000000E+00 -1.7091515765669E-01  1.4672604734017E+00
   153  1.5200000000000E+00 -1.8377440896035E-01  1.4505000197560E+00
   154  1.5300000000000E+00 -1.9547408209854E-01  1.4311569288153E+00
   155  1.5400000000000E+00 -2.0600815786219E-01  1.4092801047155E+00
   156  1.5500000000000E+00 -2.1537538375972E-01  1.3849309633250E+00
   157  1.5600000000000E+00 -2.2357928108594E-01  1.3581832350516E+00
   158  1.5700000000000E+00 -2.3062812205845E-01  1.3291226809703E+00
   159  1.5800000000000E+00 -2.3653487695217E-01  1.2978467231034E+00
   160  1.5900000000000E+00 -2.4131713138506E-01  1.2644639903383E+00
   161  1.6000000000000E+00 -2.4499697413020E-01  1.2290937821101E+00
   162  1.6100000000000E+00 -2.4760085604950E-01  1.1918654526134E+00
   163  1.6200000000000E+00 -2.4915942096156E-01  1.1529177189252E+00
   164  1.6300000000000E+00 -2.4970730946731E-01  1.1123978970146E+00
   165  1.6400000000000E+00 -2.4928293696181E-01  1.0704610701915E+00
   166  1.6500000000000E+00 -2.4792824725620E-01  1.0272691950795E+00
   167  1.6600000000000E+00 -2.4568844341927E-01  9.8299015070833E-01
   168  1.6700000000000E+00 -2.4261169762157E-01  9.3779673678182E-01
   169  1.6800000000000E+00 -2.3874884192556E-01  8.9186562760088E-01
   170  1.6900000000000E+00 -2.3415304211052E-01  8.4537628849411E-01
   171  1.7000000000000E+00 -2.2887945675129E-01  7.9850986193249E-01
   172  1.7100000000000E+00 -2.2298488388246E-01  7.5144803077508E-01
   173  1.7200000000000E+00 -2.1652739767493E-01  7.0437186630756E-01
   174  1.7300000000000E+00 -2.0956597762832E-01  6.5746066889296E-01
   175  1.7400000000000E+00 -2.0216013283949E-01  6.1089080915192E-01
   176  1.7500000000000E+00 -1.9436952394554E-01  5.6483457762878E-01
   177  1.7600000000000E+00 -1.8625358535628E-01  5.1945905087682E-01
   178  1.7700000000000E+00 -1.7787115038883E-01  4.7492498181377E-01
   179  1.7800000000000E+00 -1.6928008184628E-01  4.3138572174211E-01
   180  1.7900000000000E+00 -1.6053691060724E-01  3.8898618176948E-01
   181  1.8000000000000E+00 -1.5169648708636E-01  3.4786185598655E-01
   182  1.8100000000000E+00 -1.4281163380291E-01  3.0813782105588E-01
   183  1.8200000000000E+00 -1.3393289100709E-01  2.6992831001894E-01
   184  1.8300000000000E+00 -1.2510841105268E-01  2.3333716188276E-01
   185  1.8400000000000E+00 -1.1638383581021E-01  1.9845799500654E-01
   186  1.8500000000000E+00 -1.0780207703696E-01  1.6537363675150E-01
   187  1.8600000000000E+00 -9.9403126050237E-02  1.3415568190421E-01
   188  1.8700000000000E+00 -9.1223884503586E-02  1.0486411643267E-01
   189  1.8800000000000E+00 -8.3298019362584E-02  7.7547023500980E-02
   190  1.8900000000000E+00 -7.5655843009889E-02  5.2240373844232E-02
   191  1.9000000000000E+00 -6.8324219204114E-02  2.8967901997356E-02
   192  1.9100000000000E+00 -6.1326495437517E-02  7.7410693983950E-03
   193  1.9200000000000E+00 -5.4682462029141E-02 -1.1440885268822E-02
   194  1.9300000000000E+00 -4.8408338078742E-02 -2.8590808788826E-02
   195  1.9400000000000E+00 -4.2516784195105E-02 -4.3733410140711E-02
   196  1.9500000000000E+00 -3.7016941698494E-02 -5.6904952853727E-02
   197  1.9600000000000E+00 -3.1914497793239E-02 -6.8152865237369E-02
   198  1.9700000000000E+00 -2.7211775996167E-02 -7.7535271376024E-02
   199  1.9800000000000E+00 -2.2907850909575E-02 -8.5120446379009E-02
   200  1.9900000000000E+00 -1.8998686236419E-02 -9.0986199956848E-02
   201  2.0000000000000E+00 -1.5477294751838E-02 -9.5219192948663E-02
   202  2.0100000000000E+00 -1.2333918773593E-02 -9.7914191940733E-02
   203  2.0200000000000E+00 -9.5562295097243E-03 -9.9173267605717E-02
   204  2.0300000000000E+00 -7.1295435241895E-03 -9.9104942799748E-02
   205  2.0400000000000E+00 -5.0370544145314E-03 -9.7823296885087E-02
   206  2.0500000000000E+00 -3.2600776881635E-03 -9.5447033057361E-02
   207  2.0600000000000E+00 -1.7783067184989E-03 -9.2098515758256E-02
   208  2.0700000000000E+00 -5.7007757807316E-04 -8.7902785489846E-02
   209  2.0800000000000E+00  3.8735951946278E-04 -8.2986558523373E-02
   210  2.0900000000000E+00  1.1175644854821E-03 -7.7477219121556E-02
   211  2.1000000000000E+00  1.6446318592292E-03 -7.1501817710973E-02
   212  2.1100000000000E+00  1.9929036085577E-03 -6.5186044996509E-02
   213  2.1200000000000E+00  2.1866972829761E-03 -5.8653254825976E-02
   214  2.1300000000000E+00  2.2500956140987E-03 -5.2023658434493E-02
   215  2.1400000000000E+00  2.2065178482968E-03 -4.5412955725258E-02
   216  2.1500000000000E+00  2.0758597928449E-03 -3.8924562779983E-02
   217  2.1600000000000E+00  1.8757422156718E-03 -3.2652686396022E-02
   218  2.1700000000000E+00  1.6283603365755E-03 -2.6700188354608E-02
   219  2.1800000000000E+00  1.3545331077403E-03 -2.1162719347576E-02
   220  2.1900000000000E+00  1.0730560228807E-03 -1.6126846448658E-02
   221  2.2000000000000E+00  8.0075967842322E-04 -1.1670057823464E-02
   222  2.2100000000000E+00  5.5228661787780E-04 -7.8600437601486E-03
   223  2.2200000000000E+00  3.4005826599609E-04 -4.7558425493781E-03
   224  2.2300000000000E+00  1.7317559611098E-04 -2.3938777536660E-03
   225  2.2400000000000E+00  6.0267778941743E-05 -8.2812113385445E-04
   226  2.2500000000000E+00  7.8622479649144E-06 -1.0823976590142E-04
   227  2.2600000000000E+00 -2.7175376605614E-06  3.6794032163654E-05
   228  2.2700000000000E+00  4.9621247203462E-07 -6.7369840518585E-06
   229  2.28  0.  0.
   230  2.29  0.  0.
   231  2.30  0.  0.
   232  2.31  0.  0.
   233  2.32  0.  0.
   234  2.33  0.  0.
   235  2.34  0.  0.
   236  2.35  0.  0.
   237  2.36  0.  0.
   238  2.37  0.  0.
   239  2.38  0.  0.
   240  2.39  0.  0.
   241  2.40  0.  0.
   242  2.41  0.  0.
   243  2.42  0.  0.
   244  2.43  0.  0.
   245  2.44  0.  0.
   246  2.45  0.  0.
   247  2.46  0.  0.
   248  2.47  0.  0.
   249  2.48  0.  0.
   250  2.49  0.  0.
   251  2.50  0.  0.
   252  2.51  0.  0.
   253  2.52  0.  0.
   254  2.53  0.  0.
   255  2.54  0.  0.
   256  2.55  0.  0.
   257  2.56  0.  0.
   258  2.57  0.  0.
   259  2.58  0.  0.
   260  2.59  0.  0.
   261  2.60  0.  0.
   262  2.61  0.  0.
   263  2.62  0.  0.
   264  2.63  0.  0.
   265  2.64  0.  0.
   266  2.65  0.  0.
   267  2.66  0.  0.
   268  2.67  0.  0.
   269  2.68  0.  0.
   270  2.69  0.  0.
   271  2.70  0.  0.
   272  2.71  0.  0.
   273  2.72  0.  0.
   274  2.73  0.  0.
   275  2.74  0.  0.
   276  2.75  0.  0.
   277  2.76  0.  0.
   278  2.77  0.  0.
   279  2.78  0.  0.
   280  2.79  0.  0.
   281  2.80  0.  0.
   282  2.81  0.  0.
   283  2.82  0.  0.
   284  2.83  0.  0.
   285  2.84  0.  0.
   286  2.85  0.  0.
   287  2.86  0.  0.
   288  2.87  0.  0.
   289  2.88  0.  0.
   290  2.89  0.  0.
   291  2.90  0.  0.
   292  2.91  0.  0.
   293  2.92  0.  0.
   294  2.93  0.  0.
   295  2.94  0.  0.
   296  2.95  0.  0.
   297  2.96  0.  0.
   298  2.97  0.  0.
   299  2.98  0.  0.
   300  2.99  0.  0.
   301  3.00  0.  0.
   302  3.01  0.  0.
   303  3.02  0.  0.
   304  3.03  0.  0.
   305  3.04  0.  0.
   306  3.05  0.  0.
   307  3.06  0.  0.
   308  3.07  0.  0.
   309  3.08  0.  0.
   310  3.09  0.  0.
   311  3.10  0.  0.
   312  3.11  0.  0.
   313  3.12  0.  0.
   314  3.13  0.  0.
   315  3.14  0.  0.
   316  3.15  0.  0.
   317  3.16  0.  0.
   318  3.17  0.  0.
   319  3.18  0.  0.
   320  3.19  0.  0.
   321  3.20  0.  0.
   322  3.21  0.  0.
   323  3.22  0.  0.
   324  3.23  0.  0.
   325  3.24  0.  0.
   326  3.25  0.  0.
   327  3.26  0.  0.
   328  3.27  0.  0.
   329  3.28  0.  0.
   330  3.29  0.  0.
   331  3.30  0.  0.
   332  3.31  0.  0.
   333  3.32  0.  0.
   334  3.33  0.  0.
   335  3.34  0.  0.
   336  3.35  0.  0.
   337  3.36  0.  0.
   338  3.37  0.  0.
   339  3.38  0.  0.
   340  3.39  0.  0.
   341  3.40  0.  0.
   342  3.41  0.  0.
   343  3.42  0.  0.
   344  3.43  0.  0.
   345  3.44  0.  0.
   346  3.45  0.  0.
   347  3.46  0.  0.
   348  3.47  0.  0.
   349  3.48  0.  0.
   350  3.49  0.  0.
   351  3.50  0.  0.
   352  3.51  0.  0.
   353  3.52  0.  0.
   354  3.53  0.  0.
   355  3.54  0.  0.
   356  3.55  0.  0.
   357  3.56  0.  0.
   358  3.57  0.  0.
   359  3.58  0.  0.
   360  3.59  0.  0.
   361  3.60  0.  0.
   362  3.61  0.  0.
   363  3.62  0.  0.
   364  3.63  0.  0.
   365  3.64  0.  0.
   366  3.65  0.  0.
   367  3.66  0.  0.
   368  3.67  0.  0.
   369  3.68  0.  0.
   370  3.69  0.  0.
   371  3.70  0.  0.
   372  3.71  0.  0.
   373  3.72  0.  0.
   374  3.73  0.  0.
   375  3.74  0.  0.
   376  3.75  0.  0.
   377  3.76  0.  0.
   378  3.77  0.  0.
   379  3.78  0.  0.
   380  3.79  0.  0.
   381  3.80  0.  0.
   382  3.81  0.  0.
   383  3.82  0.  0.
   384  3.83  0.  0.
   385  3.84  0.  0.
   386  3.85  0.  0.
   387  3.86  0.  0.
   388  3.87  0.  0.
   389  3.88  0.  0.
   390  3.89  0.  0.
   391  3.90  0.  0.
   392  3.91  0.  0.
   393  3.92  0.  0.
   394  3.93  0.  0.
   395  3.94  0.  0.
   396  3.95  0.  0.
   397  3.96  0.  0.
   398  3.97  0.  0.
   399  3.98  0.  0.
   400  3.99  0.  0.
   401  4.00  0.  0.
   402  4.01  0.  0.
   403  4.02  0.  0.
   404  4.03  0.  0.
   405  4.04  0.  0.
   406  4.05  0.  0.
   407  4.06  0.  0.
   408  4.07  0.  0.
   409  4.08  0.  0.
   410  4.09  0.  0.
   411  4.10  0.  0.
   412  4.11  0.  0.
   413  4.12  0.  0.
   414  4.13  0.  0.
   415  4.14  0.  0.
   416  4.15  0.  0.
   417  4.16  0.  0.
   418  4.17  0.  0.
   419  4.18  0.  0.
   420  4.19  0.  0.
   421  4.20  0.  0.
   422  4.21  0.  0.
   423  4.22  0.  0.
   424  4.23  0.  0.
   425  4.24  0.  0.
   426  4.25  0.  0.
   427  4.26  0.  0.
   428  4.27  0.  0.
   429  4.28  0.  0.
   430  4.29  0.  0.
   431  4.30  0.  0.
   432  4.31  0.  0.
   433  4.32  0.  0.
   434  4.33  0.  0.
   435  4.34  0.  0.
   436  4.35  0.  0.
   437  4.36  0.  0.
   438  4.37  0.  0.
   439  4.38  0.  0.
   440  4.39  0.  0.
   441  4.40  0.  0.
   442  4.41  0.  0.
   443  4.42  0.  0.
   444  4.43  0.  0.
   445  4.44  0.  0.
   446  4.45  0.  0.
   447  4.46  0.  0.
   448  4.47  0.  0.
   449  4.48  0.  0.
   450  4.49  0.  0.
   451  4.50  0.  0.
   452  4.51  0.  0.
   453  4.52  0.  0.
   454  4.53  0.  0.
   455  4.54  0.  0.
   456  4.55  0.  0.
   457  4.56  0.  0.
   458  4.57  0.  0.
   459  4.58  0.  0.
   460  4.59  0.  0.
   461  4.60  0.  0.
   462  4.61  0.  0.
   463  4.62  0.  0.
   464  4.63  0.  0.
   465  4.64  0.  0.
   466  4.65  0.  0.
   467  4.66  0.  0.
   468  4.67  0.  0.
   469  4.68  0.  0.
   470  4.69  0.  0.
   471  4.70  0.  0.
   472  4.71  0.  0.
   473  4.72  0.  0.
   474  4.73  0.  0.
   475  4.74  0.  0.
   476  4.75  0.  0.
   477  4.76  0.  0.
   478  4.77  0.  0.
   479  4.78  0.  0.
   480  4.79  0.  0.
   481  4.80  0.  0.
   482  4.81  0.  0.
   483  4.82  0.  0.
   484  4.83  0.  0.
   485  4.84  0.  0.
   486  4.85  0.  0.
   487  4.86  0.  0.
   488  4.87  0.  0.
   489  4.88  0.  0.
   490  4.89  0.  0.
   491  4.90  0.  0.
   492  4.91  0.  0.
   493  4.92  0.  0.
   494  4.93  0.  0.
   495  4.94  0.  0.
   496  4.95  0.  0.
   497  4.96  0.  0.
   498  4.97  0.  0.
   499  4.98  0.  0.
   500  4.99  0.  0.
   501  5.00  0.  0.
   502  5.01  0.  0.
   503  5.02  0.  0.
   504  5.03  0.  0.
   505  5.04  0.  0.
   506  5.05  0.  0.
   507  5.06  0.  0.
   508  5.07  0.  0.
   509  5.08  0.  0.
   510  5.09  0.  0.
   511  5.10  0.  0.
   512  5.11  0.  0.
   513  5.12  0.  0.
   514  5.13  0.  0.
   515  5.14  0.  0.
   516  5.15  0.  0.
   517  5.16  0.  0.
   518  5.17  0.  0.
   519  5.18  0.  0.
   520  5.19  0.  0.
   521  5.20  0.  0.
   522  5.21  0.  0.
   523  5.22  0.  0.
   524  5.23  0.  0.
   525  5.24  0.  0.
   526  5.25  0.  0.
   527  5.26  0.  0.
   528  5.27  0.  0.
   529  5.28  0.  0.
   530  5.29  0.  0.
   531  5.30  0.  0.
   532  5.31  0.  0.
   533  5.32  0.  0.
   534  5.33  0.  0.
   535  5.34  0.  0.
   536  5.35  0.  0.
   537  5.36  0.  0.
   538  5.37  0.  0.
   539  5.38  0.  0.
   540  5.39  0.  0.
   541  5.40  0.  0.
   542  5.41  0.  0.
   543  5.42  0.  0.
   544  5.43  0.  0.
   545  5.44  0.  0.
   546  5.45  0.  0.
   547  5.46  0.  0.
   548  5.47  0.  0.
   549  5.48  0.  0.
   550  5.49  0.  0.
   551  5.50  0.  0.
   552  5.51  0.  0.
   553  5.52  0.  0.
   554  5.53  0.  0.
   555  5.54  0.  0.
   556  5.55  0.  0.
   557  5.56  0.  0.
   558  5.57  0.  0.
   559  5.58  0.  0.
   560  5.59  0.  0.
   561  5.60  0.  0.
   562  5.61  0.  0.
   563  5.62  0.  0.
   564  5.63  0.  0.
   565  5.64  0.  0.
   566  5.65  0.  0.
   567  5.66  0.  0.
   568  5.67  0.  0.
   569  5.68  0.  0.
   570  5.69  0.  0.
   571  5.70  0.  0.
   572  5.71  0.  0.
   573  5.72  0.  0.
   574  5.73  0.  0.
   575  5.74  0.  0.
   576  5.75  0.  0.
   577  5.76  0.  0.
   578  5.77  0.  0.
   579  5.78  0.  0.
   580  5.79  0.  0.
   581  5.80  0.  0.
   582  5.81  0.  0.
   583  5.82  0.  0.
   584  5.83  0.  0.
   585  5.84  0.  0.
   586  5.85  0.  0.
   587  5.86  0.  0.
   588  5.87  0.  0.
   589  5.88  0.  0.
   590  5.89  0.  0.
   591  5.90  0.  0.
   592  5.91  0.  0.
   593  5.92  0.  0.
   594  5.93  0.  0.
   595  5.94  0.  0.
   596  5.95  0.  0.
   597  5.96  0.  0.
   598  5.97  0.  0.
   599  5.98  0.  0.
   600  5.99  0.  0.
   1                         5.4411444430793E+00  1.0722729115955E+00  3.0287139059058E-02
     1  0.0000000000000E+00  6.1191235412039E-09 -9.2837472709384E-09  5.3536298900980E-09
     2  1.0000000000000E-02  1.1966125862538E-03 -1.3186168762167E-03  3.3621598908168E-04
     3  2.0000000000000E-02  4.7703652713491E-03 -5.2508774034903E-03  1.3317670683215E-03
     4  3.0000000000000E-02  1.0673242432226E-02 -1.1726371514939E-02  2.9475717579880E-03
     5  4.0000000000000E-02  1.8826013256041E-02 -2.0628944674862E-02  5.1191885364610E-03
     6  5.0000000000000E-02  2.9119412606488E-02 -3.1798473062601E-02  7.7578467885822E-03
     7  6.0000000000000E-02  4.1415770463334E-02 -4.5033312731733E-02  1.0751869344619E-02
     8  7.0000000000000E-02  5.5551066558093E-02 -6.0093387252624E-02  1.3968466166695E-02
     9  8.0000000000000E-02  7.1337380709659E-02 -7.6703869062625E-02  1.7255873385911E-02
    10  9.0000000000000E-02  8.8565703654143E-02 -9.4559401090982E-02  2.0445806897307E-02
    11  1.0000000000000E-01  1.0700906794282E-01 -1.1332879731644E-01  2.3356195149425E-02
    12  1.1000000000000E-01  1.2642595382381E-01 -1.3266015386613E-01  2.5794151685221E-02
    13  1.2000000000000E-01  1.4656392099245E-01 -1.5218629617416E-01  2.7559144457192E-02
    14  1.3000000000000E-01  1.6716341374863E-01 -1.7153048267426E-01  2.8446316002796E-02
    15  1.4000000000000E-01  1.8796168448499E-01 -1.9031228157500E-01  2.8249906267420E-02
    16  1.5000000000000E-01  2.0869677858476E-01 -2.0815353451570E-01  2.6766728233933E-02
    17  1.6000000000000E-01  2.2911152275901E-01 -2.2468431936725E-01  2.3799645585561E-02
    18  1.7000000000000E-01  2.4895745861825E-01 -2.3954882414856E-01  1.9161001404616E-02
    19  1.8000000000000E-01  2.6799866385486E-01 -2.5241104498443E-01  1.2675947400878E-02
    20  1.9000000000000E-01  2.8601540480815E-01 -2.6296022322280E-01  4.1856243630648E-03
    21  2.0000000000000E-01  3.0280756637273E-01 -2.7091594023387E-01 -6.4498535781285E-03
    22  2.1000000000000E-01  3.1819780816794E-01 -2.7603279298419E-01 -1.9348655721743E-02
    23  2.2000000000000E-01  3.3203439957046E-01 -2.7810457915781E-01 -3.4604774246287E-02
    24  2.3000000000000E-01  3.4419369057715E-01 -2.7696792730730E-01 -5.2285884182682E-02
    25  2.4000000000000E-01  3.5458218045108E-01 -2.7250531517033E-01 -7.2431557412255E-02
    26  2.5000000000000E-01  3.6313815164475E-01 -2.6464742777984E-01 -9.5051859361133E-02
    27  2.6000000000000E-01  3.6983284251572E-01 -2.5337481621217E-01 -1.2012635180943E-01
    28  2.7000000000000E-01  3.7467113876979E-01 -2.3871882763307E-01 -1.4760351962858E-01
    29  2.8000000000000E-01  3.7769177029838E-01 -2.2076178758111E-01 -1.7740063337930E-01
    30  2.9000000000000E-01  3.7896700702855E-01 -1.9963642603240E-01 -2.0940405362520E-01
    31  3.0000000000000E-01  3.7860185448014E-01 -1.7552454957138E-01 -2.4346997662606E-01
    32  3.1000000000000E-01  3.7673275682880E-01 -1.4865497280289E-01 -2.7942561485459E-01
    33  3.2000000000000E-01  3.7352582230718E-01 -1.1930073282896E-01 -3.1707079961707E-01
    34  3.3000000000000E-01  3.6917459264242E-01 -8.7775621031078E-02 -3.5617998703604E-01
    35  3.4000000000000E-01  3.6389738483110E-01 -5.4430076399265E-02 -3.9650464285542E-01
    36  3.5000000000000E-01  3.5793423979913E-01 -1.9646494091384E-02 -4.3777597603735E-01
    37  3.6000000000000E-01  3.5154351829801E-01  1.6165988344505E-02 -4.7970798601054E-01
    38  3.7000000000000E-01  3.4499818966538E-01  5.2577156720243E-02 -5.2200078377602E-01
    39  3.8000000000000E-01  3.3858186375395E-01  8.9141760567132E-02 -5.6434414294379E-01
    40  3.9000000000000E-01  3.3258462033837E-01  1.2540584477899E-01 -6.0642123322162E-01
    41  4.0000000000000E-01  3.2729869358783E-01  1.6091328437472E-01 -6.4791248595963E-01
    42  4.1000000000000E-01  3.2301407169140E-01  1.9521243057735E-01 -6.8849953911236E-01
    43  4.2000000000000E-01  3.2001407340630E-01  2.2786277402481E-01 -7.2786920745091E-01
    44  4.3000000000000E-01  3.1857096413668E-01  2.5844152984495E-01 -7.6571742306579E-01
    45  4.4000000000000E-01  3.1894167412638E-01  2.8655004956665E-01 -8.0175309116205E-01
    46  4.5000000000000E-01  3.2136368045715E-01  3.1181996640760E-01 -8.3570180686819E-01
    47  4.6000000000000E-01  3.2605111279203E-01  3.3391898336346E-01 -8.6730938025345E-01
    48  4.7000000000000E-01  3.3319114020836E-01  3.5255621769440E-01 -8.9634511896087E-01
    49  4.8000000000000E-01  3.4294069305798E-01  3.6748702081358E-01 -9.2260482078943E-01
    50  4.9000000000000E-01  3.5542356961298E-01  3.7851719916409E-01 -9.4591343216414E-01
    51  5.0000000000000E-01  3.7072797235690E-01  3.8550656934385E-01 -9.6612733267246E-01
    52  5.1000000000000E-01  3.8890451322457E-01  3.8837178940484E-01 -9.8313621066777E-01
    53  5.2000000000000E-01  4.0996472095071E-01  3.8708841780287E-01 -9.9686450028162E-01
    54  5.3000000000000E-01  4.3388007703680E-01  3.8169216178182E-01 -1.0072723559808E+00
    55  5.4000000000000E-01  4.6058159977569E-01  3.7227928790754E-01 -1.0143561469739E+00
    56  5.5000000000000E-01  4.8995998837609E-01  3.5900617887544E-01 -1.0181484602370E+00
    57  5.6000000000000E-01  5.2186633160394E-01  3.4208803245011E-01 -1.0187176076035E+00
    58  5.7000000000000E-01  5.5611337760597E-01  3.2179671029745E-01 -1.0161666391548E+00
    59  5.8000000000000E-01  5.9247735380757E-01  2.9845775637711E-01 -1.0106318719777E+00
    60  5.9000000000000E-01  6.3070031808835E-01  2.7244661631374E-01 -1.0022809501112E+00
    61  6.0000000000000E-01  6.7049301493850E-01  2.4418410059662E-01 -9.9131045811478E-01
    62  6.1000000000000E-01  7.1153820309257E-01  2.1413114541064E-01 -9.7794311704841E-01