Hf    ONCVPSP-4.0.1  r_core=   1.70784   1.70784   1.70784   2.40178
     72.0000     12.0000      250217    zatom,zion,pspd
     8       2   3     4   600     0    pspcod,pspxc,lmax,lloc,mmax,r2well
  5.99000000  5.40000000  0.00000000    rchrg fchrg qchrg
     2     3     2     2    nproj
     3     1           extension_switch
     3     4     3    nprojso
   0                         5.9473913807406E+00 -4.2892561323259E-01
     1  0.0000000000000E+00 -5.7295113098377E-11  3.2392931392788E-09
     2  1.0000000000000E-02  5.2800572399316E-02  2.3291673040602E-02
     3  2.0000000000000E-02  1.0552796184061E-01  4.6682033040699E-02
     4  3.0000000000000E-02  1.5810913635032E-01  7.0266649349614E-02
     5  4.0000000000000E-02  2.1047136496370E-01  9.4134909679168E-02
     6  5.0000000000000E-02  2.6254236584393E-01  1.1836706240057E-01
     7  6.0000000000000E-02  3.1425045158059E-01  1.4303141623677E-01
     8  7.0000000000000E-02  3.6552467079557E-01  1.6818174594815E-01
     9  8.0000000000000E-02  4.1629494524233E-01  1.9385494936977E-01
    10  9.0000000000000E-02  4.6649220165366E-01  2.2006899720293E-01
    11  1.0000000000000E-01  5.1604849767471E-01  2.4682121235066E-01
    12  1.1000000000000E-01  5.6489714130863E-01  2.7408691038801E-01
    13  1.2000000000000E-01  6.1297280340227E-01  3.0181842705149E-01
    14  1.3000000000000E-01  6.6021162280495E-01  3.2994455250489E-01
    15  1.4000000000000E-01  7.0655130394517E-01  3.5837038568482E-01
    16  1.5000000000000E-01  7.5193120668383E-01  3.8697761534670E-01
    17  1.6000000000000E-01  7.9629242841815E-01  4.1562522762318E-01
    18  1.7000000000000E-01  8.3957787852471E-01  4.4415063307637E-01
    19  1.8000000000000E-01  8.8173234534184E-01  4.7237119947759E-01
    20  1.9000000000000E-01  9.2270255599783E-01  5.0008616998847E-01
    21  2.0000000000000E-01  9.6243722949203E-01  5.2707894014478E-01
    22  2.1000000000000E-01  1.0008871235269E+00  5.5311966115944E-01
    23  2.2000000000000E-01  1.0380050756705E+00  5.7796813165308E-01
    24  2.3000000000000E-01  1.0737460395000E+00  6.0137693507530E-01
    25  2.4000000000000E-01  1.1080671164296E+00  6.2309477587525E-01
    26  2.5000000000000E-01  1.1409275839756E+00  6.4286996398120E-01
    27  2.6000000000000E-01  1.1722889212320E+00  6.6045399441432E-01
    28  2.7000000000000E-01  1.2021148323467E+00  6.7560516693749E-01
    29  2.8000000000000E-01  1.2303712687832E+00  6.8809218955678E-01
    30  2.9000000000000E-01  1.2570264511327E+00  6.9769770947577E-01
    31  3.0000000000000E-01  1.2820508912048E+00  7.0422171575588E-01
    32  3.1000000000000E-01  1.3054174150747E+00  7.0748475945606E-01
    33  3.2000000000000E-01  1.3271011876969E+00  7.0733093939297E-01
    34  3.3000000000000E-01  1.3470797396162E+00  7.0363060484800E-01
    35  3.4000000000000E-01  1.3653329962112E+00  6.9628273050535E-01
    36  3.5000000000000E-01  1.3818433098037E+00  6.8521692358020E-01
    37  3.6000000000000E-01  1.3965954948489E+00  6.7039502842245E-01
    38  3.7000000000000E-01  1.4095768663030E+00  6.5181229977882E-01
    39  3.8000000000000E-01  1.4207772811309E+00  6.2949812228311E-01
    40  3.9000000000000E-01  1.4301891827886E+00  6.0351626052199E-01
    41  4.0000000000000E-01  1.4378076483776E+00  5.7396463109377E-01
    42  4.1000000000000E-01  1.4436304380349E+00  5.4097459533528E-01
    43  4.2000000000000E-01  1.4476580459918E+00  5.0470977872459E-01
    44  4.3000000000000E-01  1.4498937526084E+00  4.6536443026679E-01
    45  4.4000000000000E-01  1.4503436765713E+00  4.2316134232452E-01
    46  4.5000000000000E-01  1.4490168263335E+00  3.7834935825175E-01
    47  4.6000000000000E-01  1.4459251497787E+00  3.3120050172557E-01
    48  4.7000000000000E-01  1.4410835810069E+00  2.8200676774004E-01
    49  4.8000000000000E-01  1.4345100830716E+00  2.3107662073589E-01
    50  4.9000000000000E-01  1.4262256854467E+00  1.7873125019944E-01
    51  5.0000000000000E-01  1.4162545149684E+00  1.2530063819387E-01
    52  5.1000000000000E-01  1.4046238189841E+00  7.1119496621158E-02
    53  5.2000000000000E-01  1.3913639794471E+00  1.6523134488934E-02
    54  5.3000000000000E-01  1.3765085167228E+00 -3.8156682964019E-02
    55  5.4000000000000E-01  1.3600940819219E+00 -9.2595820785127E-02
    56  5.5000000000000E-01  1.3421604366441E+00 -1.4648174427352E-01
    57  5.6000000000000E-01  1.3227504191059E+00 -1.9951731145798E-01
    58  5.7000000000000E-01  1.3019098957367E+00 -2.5142432935433E-01
    59  5.8000000000000E-01  1.2796876974539E+00 -3.0194681839056E-01
    60  5.9000000000000E-01  1.2561355399731E+00 -3.5085393339145E-01
    61  6.0000000000000E-01  1.2313079276729E+00 -3.9794249434474E-01
    62  6.1000000000000E-01  1.2052620407036E+00 -4.4303908576603E-01
    63  6.2000000000000E-01  1.1780576052208E+00 -4.8600168975957E-01
    64  6.3000000000000E-01  1.1497567468156E+00 -5.2672082475084E-01
    65  6.4000000000000E-01  1.1204238274162E+00 -5.6512016924522E-01
    66  6.5000000000000E-01  1.0901252661425E+00 -6.0115665773849E-01
    67  6.6000000000000E-01  1.0589293448000E+00 -6.3482004395591E-01
    68  6.7000000000000E-01  1.0269059989043E+00 -6.6613193481015E-01
    69  6.8000000000000E-01  9.9412659532739E-01 -6.9514430671816E-01
    70  6.9000000000000E-01  9.6066369784830E-01 -7.2193752408350E-01
    71  7.0000000000000E-01  9.2659082207238E-01 -7.4661788770572E-01
    72  7.1000000000000E-01  8.9198218134971E-01 -7.6931474850199E-01
    73  7.2000000000000E-01  8.5691242547575E-01 -7.9017722909823E-01
    74  7.3000000000000E-01  8.2145637408939E-01 -8.0937060245512E-01
    75  7.4000000000000E-01  7.8568874679544E-01 -8.2707238263217E-01
    76  7.5000000000000E-01  7.4968389212751E-01 -8.4346818796234E-01
    77  7.6000000000000E-01  7.1351551753157E-01 -8.5874744122637E-01
    78  7.7000000000000E-01  6.7725642258860E-01 -8.7309897480052E-01
    79  7.8000000000000E-01  6.4097823770597E-01 -8.8670661114727E-01
    80  7.9000000000000E-01  6.0475117049058E-01 -8.9974479037178E-01
    81  8.0000000000000E-01  5.6864376197193E-01 -9.1237431684974E-01
    82  8.1000000000000E-01  5.3272265477075E-01 -9.2473829612318E-01
    83  8.2000000000000E-01  4.9705237520829E-01 -9.3695833136023E-01
    84  8.3000000000000E-01  4.6169513122441E-01 -9.4913104569742E-01
    85  8.4000000000000E-01  4.2671062782005E-01 -9.6132499275790E-01
    86  8.5000000000000E-01  3.9215590156336E-01 -9.7357801261516E-01
    87  8.6000000000000E-01  3.5808517550034E-01 -9.8589508450784E-01
    88  8.7000000000000E-01  3.2454973559321E-01 -9.9824672078917E-01
    89  8.8000000000000E-01  2.9159782957478E-01 -1.0105679389961E+00
    90  8.9000000000000E-01  2.5927458885841E-01 -1.0227578406612E+00
    91  9.0000000000000E-01  2.2762197388325E-01 -1.0346798166700E+00
    92  9.1000000000000E-01  1.9667874300721E-01 -1.0461623897144E+00
    93  9.2000000000000E-01  1.6648044478874E-01 -1.0570006948435E+00
    94  9.3000000000000E-01  1.3705943322637E-01 -1.0669585893960E+00
    95  9.4000000000000E-01  1.0844490525633E-01 -1.0757713738606E+00
    96  9.5000000000000E-01  8.0662959546503E-02 -1.0831490955973E+00
    97  9.6000000000000E-01  5.3736675373443E-02 -1.0887803979983E+00
    98  9.7000000000000E-01  2.7686210131359E-02 -1.0923368687195E+00
    99  9.8000000000000E-01  2.5289138019054E-03 -1.0934778322154E+00
   100  9.9000000000000E-01 -2.1720541486531E-02 -1.0918555240716E+00
   101  1.0000000000000E+00 -4.5050018857678E-02 -1.0871205777006E+00
   102  1.0100000000000E+00 -6.7449763242423E-02 -1.0789277479361E+00
   103  1.0200000000000E+00 -8.8912239410149E-02 -1.0669417910449E+00
   104  1.0300000000000E+00 -1.0943196388821E-01 -1.0508434167519E+00
   105  1.0400000000000E+00 -1.2900533324110E-01 -1.0303352251208E+00
   106  1.0500000000000E+00 -1.4763045120786E-01 -1.0051475396043E+00
   107  1.0600000000000E+00 -1.6530695718896E-01 -9.7504404731188E-01
   108  1.0700000000000E+00 -1.8203585853361E-01 -9.3982715856281E-01
   109  1.0800000000000E+00 -1.9781936900317E-01 -8.9934300010136E-01
   110  1.0900000000000E+00 -2.1266075567925E-01 -8.5348595993440E-01
   111  1.1000000000000E+00 -2.2656419644539E-01 -8.0220270656649E-01
   112  1.1100000000000E+00 -2.3953465000144E-01 -7.4549561142742E-01
   113  1.1200000000000E+00 -2.5157774017226E-01 -6.8342551039202E-01
   114  1.1300000000000E+00 -2.6269965604796E-01 -6.1611374847678E-01
   115  1.1400000000000E+00 -2.7290706924787E-01 -5.4374346084208E-01
   116  1.1500000000000E+00 -2.8220706933255E-01 -4.6656005316940E-01
   117  1.1600000000000E+00 -2.9060711810771E-01 -3.8487085500573E-01
   118  1.1700000000000E+00 -2.9811502326770E-01 -2.9904393083440E-01
   119  1.1800000000000E+00 -3.0473893152459E-01 -2.0950604508525E-01
   120  1.1900000000000E+00 -3.1048734106030E-01 -1.1673978907133E-01
   121  1.2000000000000E+00 -3.1536913283273E-01 -2.1279889616786E-02
   122  1.2100000000000E+00 -3.1939361996355E-01  7.6291269153210E-02
   123  1.2200000000000E+00 -3.2257061413985E-01  1.7534886792274E-01
   124  1.2300000000000E+00 -3.2491050768134E-01  2.7523156429752E-01
   125  1.2400000000000E+00 -3.2642436965800E-01  3.7524803053774E-01
   126  1.2500000000000E+00 -3.2712405419920E-01  4.7468404289097E-01
   127  1.2600000000000E+00 -3.2702231891486E-01  5.7281003969902E-01
   128  1.2700000000000E+00 -3.2613295115551E-01  6.6888905766176E-01
   129  1.2800000000000E+00 -3.2447089967628E-01  7.6218494903200E-01
   130  1.2900000000000E+00 -3.2205240913985E-01  8.5197077711440E-01
   131  1.3000000000000E+00 -3.1889515479906E-01  9.3753728339386E-01
   132  1.3100000000000E+00 -3.1501837464238E-01  1.0182013169838E+00
   133  1.3200000000000E+00 -3.1044299626582E-01  1.0933141159009E+00
   134  1.3300000000000E+00 -3.0519175575386E-01  1.1622693299870E+00
   135  1.3400000000000E+00 -2.9928930591017E-01  1.2245106771304E+00
   136  1.3500000000000E+00 -2.9276231127459E-01  1.2795391277392E+00
   137  1.3600000000000E+00 -2.8563952749711E-01  1.3269195172228E+00
   138  1.3700000000000E+00 -2.7795186280923E-01  1.3662864924337E+00
   139  1.3800000000000E+00 -2.6973241953690E-01  1.3973497055891E+00
   140  1.3900000000000E+00 -2.6101651383430E-01  1.4198981779660E+00
   141  1.4000000000000E+00 -2.5184167208232E-01  1.4338037656595E+00
   142  1.4100000000000E+00 -2.4224760268507E-01  1.4390236706592E+00
   143  1.4200000000000E+00 -2.3227614230847E-01  1.4356019523633E+00
   144  1.4300000000000E+00 -2.2197117593497E-01  1.4236700072691E+00
   145  1.4400000000000E+00 -2.1137853044878E-01  1.4034459976914E+00
   146  1.4500000000000E+00 -2.0054584181913E-01  1.3752332239783E+00
   147  1.4600000000000E+00 -1.8952239630334E-01  1.3394174484215E+00
   148  1.4700000000000E+00 -1.7835894644644E-01  1.2964631928617E+00
   149  1.4800000000000E+00 -1.6710750300343E-01  1.2469090456229E+00
   150  1.4900000000000E+00 -1.5582110424992E-01  1.1913620267046E+00
   151  1.5000000000000E+00 -1.4455356447113E-01  1.1304910729065E+00
   152  1.5100000000000E+00 -1.3335920372461E-01  1.0650197166267E+00
   153  1.5200000000000E+00 -1.2229256125462E-01  9.9571804327309E-01
   154  1.5300000000000E+00 -1.1140809518972E-01  9.2339402236705E-01
   155  1.5400000000000E+00 -1.0075987137944E-01  8.4888431641981E-01
   156  1.5500000000000E+00 -9.0401244414418E-02  7.7304467934965E-01
   157  1.5600000000000E+00 -8.0384534027502E-02  6.9674006249024E-01
   158  1.5700000000000E+00 -7.0760700185423E-02  6.2083455101934E-01
   159  1.5800000000000E+00 -6.1579020253237E-02  5.4618125684322E-01
   160  1.5900000000000E+00 -5.2886771608002E-02  4.7361229859030E-01
   161  1.6000000000000E+00 -4.4728923619623E-02  4.0392895741267E-01
   162  1.6100000000000E+00 -3.7147839490376E-02  3.3789229306409E-01
   163  1.6200000000000E+00 -3.0183000127235E-02  2.7621415068747E-01
   164  1.6300000000000E+00 -2.3870920047371E-02  2.1953137731066E-01
   165  1.6400000000000E+00 -1.8244745842409E-02  1.6840168188858E-01
   166  1.6500000000000E+00 -1.3333417268616E-02  1.2335991487420E-01
   167  1.6600000000000E+00 -9.1622468881057E-03  8.4860530522530E-02
   168  1.6700000000000E+00 -5.7527191411245E-03  5.3271961445765E-02
   169  1.6800000000000E+00 -3.1229797752754E-03  2.8878023616357E-02
   170  1.6900000000000E+00 -1.2808735842962E-03  1.1812572421285E-02
   171  1.7000000000000E+00 -2.5830219824144E-04  2.3725658254426E-03
   172  1.7100000000000E+00  1.7038022001995E-05 -1.5598240283607E-04
   173  1.7200000000000E+00 -4.0863818379413E-06  3.7478460340585E-05
   174  1.73  0.  0.
   175  1.74  0.  0.
   176  1.75  0.  0.
   177  1.76  0.  0.
   178  1.77  0.  0.
   179  1.78  0.  0.
   180  1.79  0.  0.
   181  1.80  0.  0.
   182  1.81  0.  0.
   183  1.82  0.  0.
   184  1.83  0.  0.
   185  1.84  0.  0.
   186  1.85  0.  0.
   187  1.86  0.  0.
   188  1.87  0.  0.
   189  1.88  0.  0.
   190  1.89  0.  0.
   191  1.90  0.  0.
   192  1.91  0.  0.
   193  1.92  0.  0.
   194  1.93  0.  0.
   195  1.94  0.  0.
   196  1.95  0.  0.
   197  1.96  0.  0.
   198  1.97  0.  0.
   199  1.98  0.  0.
   200  1.99  0.  0.
   201  2.00  0.  0.
   202  2.01  0.  0.
   203  2.02  0.  0.
   204  2.03  0.  0.
   205  2.04  0.  0.
   206  2.05  0.  0.
   207  2.06  0.  0.
   208  2.07  0.  0.
   209  2.08  0.  0.
   210  2.09  0.  0.
   211  2.10  0.  0.
   212  2.11  0.  0.
   213  2.12  0.  0.
   214  2.13  0.  0.
   215  2.14  0.  0.
   216  2.15  0.  0.
   217  2.16  0.  0.
   218  2.17  0.  0.
   219  2.18  0.  0.
   220  2.19  0.  0.
   221  2.20  0.  0.
   222  2.21  0.  0.
   223  2.22  0.  0.
   224  2.23  0.  0.
   225  2.24  0.  0.
   226  2.25  0.  0.
   227  2.26  0.  0.
   228  2.27  0.  0.
   229  2.28  0.  0.
   230  2.29  0.  0.
   231  2.30  0.  0.
   232  2.31  0.  0.
   233  2.32  0.  0.
   234  2.33  0.  0.
   235  2.34  0.  0.
   236  2.35  0.  0.
   237  2.36  0.  0.
   238  2.37  0.  0.
   239  2.38  0.  0.
   240  2.39  0.  0.
   241  2.40  0.  0.
   242  2.41  0.  0.
   243  2.42  0.  0.
   244  2.43  0.  0.
   245  2.44  0.  0.
   246  2.45  0.  0.
   247  2.46  0.  0.
   248  2.47  0.  0.
   249  2.48  0.  0.
   250  2.49  0.  0.
   251  2.50  0.  0.
   252  2.51  0.  0.
   253  2.52  0.  0.
   254  2.53  0.  0.
   255  2.54  0.  0.
   256  2.55  0.  0.
   257  2.56  0.  0.
   258  2.57  0.  0.
   259  2.58  0.  0.
   260  2.59  0.  0.
   261  2.60  0.  0.
   262  2.61  0.  0.
   263  2.62  0.  0.
   264  2.63  0.  0.
   265  2.64  0.  0.
   266  2.65  0.  0.
   267  2.66  0.  0.
   268  2.67  0.  0.
   269  2.68  0.  0.
   270  2.69  0.  0.
   271  2.70  0.  0.
   272  2.71  0.  0.
   273  2.72  0.  0.
   274  2.73  0.  0.
   275  2.74  0.  0.
   276  2.75  0.  0.
   277  2.76  0.  0.
   278  2.77  0.  0.
   279  2.78  0.  0.
   280  2.79  0.  0.
   281  2.80  0.  0.
   282  2.81  0.  0.
   283  2.82  0.  0.
   284  2.83  0.  0.
   285  2.84  0.  0.
   286  2.85  0.  0.
   287  2.86  0.  0.
   288  2.87  0.  0.
   289  2.88  0.  0.
   290  2.89  0.  0.
   291  2.90  0.  0.
   292  2.91  0.  0.
   293  2.92  0.  0.
   294  2.93  0.  0.
   295  2.94  0.  0.
   296  2.95  0.  0.
   297  2.96  0.  0.
   298  2.97  0.  0.
   299  2.98  0.  0.
   300  2.99  0.  0.
   301  3.00  0.  0.
   302  3.01  0.  0.
   303  3.02  0.  0.
   304  3.03  0.  0.
   305  3.04  0.  0.
   306  3.05  0.  0.
   307  3.06  0.  0.
   308  3.07  0.  0.
   309  3.08  0.  0.
   310  3.09  0.  0.
   311  3.10  0.  0.
   312  3.11  0.  0.
   313  3.12  0.  0.
   314  3.13  0.  0.
   315  3.14  0.  0.
   316  3.15  0.  0.
   317  3.16  0.  0.
   318  3.17  0.  0.
   319  3.18  0.  0.
   320  3.19  0.  0.
   321  3.20  0.  0.
   322  3.21  0.  0.
   323  3.22  0.  0.
   324  3.23  0.  0.
   325  3.24  0.  0.
   326  3.25  0.  0.
   327  3.26  0.  0.
   328  3.27  0.  0.
   329  3.28  0.  0.
   330  3.29  0.  0.
   331  3.30  0.  0.
   332  3.31  0.  0.
   333  3.32  0.  0.
   334  3.33  0.  0.
   335  3.34  0.  0.
   336  3.35  0.  0.
   337  3.36  0.  0.
   338  3.37  0.  0.
   339  3.38  0.  0.
   340  3.39  0.  0.
   341  3.40  0.  0.
   342  3.41  0.  0.
   343  3.42  0.  0.
   344  3.43  0.  0.
   345  3.44  0.  0.
   346  3.45  0.  0.
   347  3.46  0.  0.
   348  3.47  0.  0.
   349  3.48  0.  0.
   350  3.49  0.  0.
   351  3.50  0.  0.
   352  3.51  0.  0.
   353  3.52  0.  0.
   354  3.53  0.  0.
   355  3.54  0.  0.
   356  3.55  0.  0.
   357  3.56  0.  0.
   358  3.57  0.  0.
   359  3.58  0.  0.
   360  3.59  0.  0.
   361  3.60  0.  0.
   362  3.61  0.  0.
   363  3.62  0.  0.
   364  3.63  0.  0.
   365  3.64  0.  0.
   366  3.65  0.  0.
   367  3.66  0.  0.
   368  3.67  0.  0.
   369  3.68  0.  0.
   370  3.69  0.  0.
   371  3.70  0.  0.
   372  3.71  0.  0.
   373  3.72  0.  0.
   374  3.73  0.  0.
   375  3.74  0.  0.
   376  3.75  0.  0.
   377  3.76  0.  0.
   378  3.77  0.  0.
   379  3.78  0.  0.
   380  3.79  0.  0.
   381  3.80  0.  0.
   382  3.81  0.  0.
   383  3.82  0.  0.
   384  3.83  0.  0.
   385  3.84  0.  0.
   386  3.85  0.  0.
   387  3.86  0.  0.
   388  3.87  0.  0.
   389  3.88  0.  0.
   390  3.89  0.  0.
   391  3.90  0.  0.
   392  3.91  0.  0.
   393  3.92  0.  0.
   394  3.93  0.  0.
   395  3.94  0.  0.
   396  3.95  0.  0.
   397  3.96  0.  0.
   398  3.97  0.  0.
   399  3.98  0.  0.
   400  3.99  0.  0.
   401  4.00  0.  0.
   402  4.01  0.  0.
   403  4.02  0.  0.
   404  4.03  0.  0.
   405  4.04  0.  0.
   406  4.05  0.  0.
   407  4.06  0.  0.
   408  4.07  0.  0.
   409  4.08  0.  0.
   410  4.09  0.  0.
   411  4.10  0.  0.
   412  4.11  0.  0.
   413  4.12  0.  0.
   414  4.13  0.  0.
   415  4.14  0.  0.
   416  4.15  0.  0.
   417  4.16  0.  0.
   418  4.17  0.  0.
   419  4.18  0.  0.
   420  4.19  0.  0.
   421  4.20  0.  0.
   422  4.21  0.  0.
   423  4.22  0.  0.
   424  4.23  0.  0.
   425  4.24  0.  0.
   426  4.25  0.  0.
   427  4.26  0.  0.
   428  4.27  0.  0.
   429  4.28  0.  0.
   430  4.29  0.  0.
   431  4.30  0.  0.
   432  4.31  0.  0.
   433  4.32  0.  0.
   434  4.33  0.  0.
   435  4.34  0.  0.
   436  4.35  0.  0.
   437  4.36  0.  0.
   438  4.37  0.  0.
   439  4.38  0.  0.
   440  4.39  0.  0.
   441  4.40  0.  0.
   442  4.41  0.  0.
   443  4.42  0.  0.
   444  4.43  0.  0.
   445  4.44  0.  0.
   446  4.45  0.  0.
   447  4.46  0.  0.
   448  4.47  0.  0.
   449  4.48  0.  0.
   450  4.49  0.  0.
   451  4.50  0.  0.
   452  4.51  0.  0.
   453  4.52  0.  0.
   454  4.53  0.  0.
   455  4.54  0.  0.
   456  4.55  0.  0.
   457  4.56  0.  0.
   458  4.57  0.  0.
   459  4.58  0.  0.
   460  4.59  0.  0.
   461  4.60  0.  0.
   462  4.61  0.  0.
   463  4.62  0.  0.
   464  4.63  0.  0.
   465  4.64  0.  0.
   466  4.65  0.  0.
   467  4.66  0.  0.
   468  4.67  0.  0.
   469  4.68  0.  0.
   470  4.69  0.  0.
   471  4.70  0.  0.
   472  4.71  0.  0.
   473  4.72  0.  0.
   474  4.73  0.  0.
   475  4.74  0.  0.
   476  4.75  0.  0.
   477  4.76  0.  0.
   478  4.77  0.  0.
   479  4.78  0.  0.
   480  4.79  0.  0.
   481  4.80  0.  0.
   482  4.81  0.  0.
   483  4.82  0.  0.
   484  4.83  0.  0.
   485  4.84  0.  0.
   486  4.85  0.  0.
   487  4.86  0.  0.
   488  4.87  0.  0.
   489  4.88  0.  0.
   490  4.89  0.  0.
   491  4.90  0.  0.
   492  4.91  0.  0.
   493  4.92  0.  0.
   494  4.93  0.  0.
   495  4.94  0.  0.
   496  4.95  0.  0.
   497  4.96  0.  0.
   498  4.97  0.  0.
   499  4.98  0.  0.
   500  4.99  0.  0.
   501  5.00  0.  0.
   502  5.01  0.  0.
   503  5.02  0.  0.
   504  5.03  0.  0.
   505  5.04  0.  0.
   506  5.05  0.  0.
   507  5.06  0.  0.
   508  5.07  0.  0.
   509  5.08  0.  0.
   510  5.09  0.  0.
   511  5.10  0.  0.
   512  5.11  0.  0.
   513  5.12  0.  0.
   514  5.13  0.  0.
   515  5.14  0.  0.
   516  5.15  0.  0.
   517  5.16  0.  0.
   518  5.17  0.  0.
   519  5.18  0.  0.
   520  5.19  0.  0.
   521  5.20  0.  0.
   522  5.21  0.  0.
   523  5.22  0.  0.
   524  5.23  0.  0.
   525  5.24  0.  0.
   526  5.25  0.  0.
   527  5.26  0.  0.
   528  5.27  0.  0.
   529  5.28  0.  0.
   530  5.29  0.  0.
   531  5.30  0.  0.
   532  5.31  0.  0.
   533  5.32  0.  0.
   534  5.33  0.  0.
   535  5.34  0.  0.
   536  5.35  0.  0.
   537  5.36  0.  0.
   538  5.37  0.  0.
   539  5.38  0.  0.
   540  5.39  0.  0.
   541  5.40  0.  0.
   542  5.41  0.  0.
   543  5.42  0.  0.
   544  5.43  0.  0.
   545  5.44  0.  0.
   546  5.45  0.  0.
   547  5.46  0.  0.
   548  5.47  0.  0.
   549  5.48  0.  0.
   550  5.49  0.  0.
   551  5.50  0.  0.
   552  5.51  0.  0.
   553  5.52  0.  0.
   554  5.53  0.  0.
   555  5.54  0.  0.
   556  5.55  0.  0.
   557  5.56  0.  0.
   558  5.57  0.  0.
   559  5.58  0.  0.
   560  5.59  0.  0.
   561  5.60  0.  0.
   562  5.61  0.  0.
   563  5.62  0.  0.
   564  5.63  0.  0.
   565  5.64  0.  0.
   566  5.65  0.  0.
   567  5.66  0.  0.
   568  5.67  0.  0.
   569  5.68  0.  0.
   570  5.69  0.  0.
   571  5.70  0.  0.
   572  5.71  0.  0.
   573  5.72  0.  0.
   574  5.73  0.  0.
   575  5.74  0.  0.
   576  5.75  0.  0.
   577  5.76  0.  0.
   578  5.77  0.  0.
   579  5.78  0.  0.
   580  5.79  0.  0.
   581  5.80  0.  0.
   582  5.81  0.  0.
   583  5.82  0.  0.
   584  5.83  0.  0.
   585  5.84  0.  0.
   586  5.85  0.  0.
   587  5.86  0.  0.
   588  5.87  0.  0.
   589  5.88  0.  0.
   590  5.89  0.  0.
   591  5.90  0.  0.
   592  5.91  0.  0.
   593  5.92  0.  0.
   594  5.93  0.  0.
   595  5.94  0.  0.
   596  5.95  0.  0.
   597  5.96  0.  0.
   598  5.97  0.  0.
   599  5.98  0.  0.
   600  5.99  0.  0.
   1                         7.2104786525541E+00  8.3279231482410E-01 -2.1412042141485E-02
     1  0.0000000000000E+00 -2.8577239186145E-09  4.9310548300846E-09 -1.0323307635812E-08
     2  1.0000000000000E-02  1.1471895378100E-03 -6.3721257005282E-05 -4.0489533250180E-04
     3  2.0000000000000E-02  4.5883434202728E-03 -2.5872544827708E-04 -1.6047882273098E-03
     4  3.0000000000000E-02  1.0322144866990E-02 -5.9640154753676E-04 -3.5556160305395E-03
     5  4.0000000000000E-02  1.8346158966815E-02 -1.0952931284327E-03 -6.1849904896192E-03
     6  5.0000000000000E-02  2.8656478112583E-02 -1.7804514077401E-03 -9.3937510780148E-03
     7  6.0000000000000E-02  4.1247237195525E-02 -2.6825495383443E-03 -1.3058098178026E-02
     8  7.0000000000000E-02  5.6110009877756E-02 -3.8367777159002E-03 -1.7032265545290E-02
     9  8.0000000000000E-02  7.3233100118961E-02 -5.2815435941167E-03 -2.1151681155327E-02
    10  9.0000000000000E-02  9.2600745717866E-02 -7.0570069559308E-03 -2.5236556120056E-02
    11  1.0000000000000E-01  1.1419225289083E-01 -9.2034814757426E-03 -2.9095833047519E-02
    12  1.1000000000000E-01  1.3798108280312E-01 -1.1759739651017E-02 -3.2531418137524E-02
    13  1.2000000000000E-01  1.6393391245667E-01 -1.4761259516912E-02 -3.5342615602344E-02
    14  1.3000000000000E-01  1.9200969338935E-01 -1.8238453530054E-02 -3.7330678771925E-02
    15  1.4000000000000E-01  2.2215873223393E-01 -2.2214920980799E-02 -3.8303389574320E-02
    16  1.5000000000000E-01  2.5432181730446E-01 -2.6705765441368E-02 -3.8079577020588E-02
    17  1.6000000000000E-01  2.8842941501898E-01 -3.1716018073127E-02 -3.6493485898794E-02
    18  1.7000000000000E-01  3.2440095913310E-01 -3.7239206106690E-02 -3.3398909087411E-02
    19  1.8000000000000E-01  3.6214425446156E-01 -4.3256103495770E-02 -2.8673000699335E-02
    20  1.9000000000000E-01  4.0155501502421E-01 -4.9733697667654E-02 -2.2219692605731E-02
    21  2.0000000000000E-01  4.4251655439835E-01 -5.6624402502134E-02 -1.3972643672205E-02
    22  2.1000000000000E-01  4.8489964352787E-01 -6.3865543233038E-02 -3.8976591546148E-03
    23  2.2000000000000E-01  5.2856254837363E-01 -7.1379133958919E-02  8.0054729923352E-03
    24  2.3000000000000E-01  5.7335125664138E-01 -7.9071962964778E-02  2.1701771799594E-02
    25  2.4000000000000E-01  6.1909989944622E-01 -8.6835995190236E-02  3.7120510679217E-02
    26  2.5000000000000E-01  6.6563137022960E-01 -9.4549095042633E-02  5.4155342397573E-02
    27  2.6000000000000E-01  7.1275813959684E-01 -1.0207606645540E-01  7.2665109198810E-02
    28  2.7000000000000E-01  7.6028326105923E-01 -1.0927000075379E-01  9.2475333119205E-02
    29  2.8000000000000E-01  8.0800155901036E-01 -1.1597391662697E-01  1.1338036899526E-01
    30  2.9000000000000E-01  8.5570098671030E-01 -1.2202267043988E-01  1.3514619034033E-01
    31  3.0000000000000E-01  9.0316413865959E-01 -1.2724510936425E-01  1.5751376637278E-01
    32  3.1000000000000E-01  9.5016989858162E-01 -1.3146643447879E-01  1.8020297723387E-01
    33  3.2000000000000E-01  9.9649520135774E-01 -1.3451073618901E-01  2.0291700404317E-01
    34  3.3000000000000E-01  1.0419168847304E+00 -1.3620366014481E-01  2.2534712109111E-01
    35  3.4000000000000E-01  1.0862136044555E+00 -1.3637515837373E-01  2.4717780933863E-01
    36  3.5000000000000E-01  1.1291677848908E+00 -1.3486227767650E-01  2.6809210363426E-01
    37  3.6000000000000E-01  1.1705675757868E+00 -1.3151193550840E-01  2.8777708080039E-01
    38  3.7000000000000E-01  1.2102087853320E+00 -1.2618363264156E-01  3.0592939208803E-01
    39  3.8000000000000E-01  1.2478967593105E+00 -1.1875205190135E-01  3.2226074153063E-01
    40  3.9000000000000E-01  1.2834481765696E+00 -1.0910949320693E-01  3.3650321149077E-01
    41  4.0000000000000E-01  1.3166927318721E+00 -9.7168097020989E-02  3.4841433820808E-01
    42  4.1000000000000E-01  1.3474746786059E+00 -8.2861811104979E-02  3.5778184341030E-01
    43  4.2000000000000E-01  1.3756542057323E+00 -6.6148059149841E-02  3.6442793300045E-01
    44  4.3000000000000E-01  1.4011086257429E+00 -4.7009074352140E-02  3.6821308040947E-01
    45  4.4000000000000E-01  1.4237333532276E+00 -2.5452866266988E-02  3.6903922030334E-01
    46  4.5000000000000E-01  1.4434426568886E+00 -1.5137952050774E-03  3.6685228783040E-01
    47  4.6000000000000E-01  1.4601701714158E+00  2.4747265041159E-02  3.6164404933239E-01
    48  4.7000000000000E-01  1.4738691595076E+00  5.3243188369112E-02  3.5345318224742E-01
    49  4.8000000000000E-01  1.4845125184178E+00  8.3861286319439E-02  3.4236557460484E-01
    50  4.9000000000000E-01  1.4920925296549E+00  1.1646442412585E-01  3.2851382784289E-01
    51  5.0000000000000E-01  1.4966203547960E+00  1.5089255251037E-01  3.1207596043642E-01
    52  5.1000000000000E-01  1.4981252847115E+00  1.8696463724862E-01  2.9327332377493E-01
    53  5.2000000000000E-01  1.4966537537706E+00  2.2448096108195E-01  2.7236775563524E-01
    54  5.3000000000000E-01  1.4922681347186E+00  2.6322576542003E-01  2.4965801020567E-01
    55  5.4000000000000E-01  1.4850453338225E+00  3.0297019258849E-01  2.2547551670279E-01
    56  5.5000000000000E-01  1.4750752094939E+00  3.4347548326224E-01  2.0017953094175E-01
    57  5.6000000000000E-01  1.4624588408522E+00  3.8449637829941E-01  1.7415175555660E-01
    58  5.7000000000000E-01  1.4473066755245E+00  4.2578466956682E-01  1.4779051471099E-01
    59  5.8000000000000E-01  1.4297365883340E+00  4.6709284061726E-01  1.2150457790402E-01
    60  5.9000000000000E-01  1.4098718843645E+00  5.0817773532577E-01  9.5706734694786E-02
    61  6.0000000000000E-01  1.3878392811553E+00  5.4880419088047E-01  7.0807227701420E-02
    62  6.1000000000000E-01  1.3637669054561E+00  5.8874857090380E-01  4.7207154961365E-02
    63  6.2000000000000E-01  1.3377823400379E+00  6.2780213498001E-01  2.5291954589083E-02
    64  6.3000000000000E-01  1.3100107554882E+00  6.6577418249830E-01  5.4250845807671E-03
    65  6.4000000000000E-01  1.2805731607420E+00  7.0249491147746E-01 -1.2057991426795E-02
    66  6.5000000000000E-01  1.2495848042995E+00  7.3781793689033E-01 -2.6855405615159E-02
    67  6.6000000000000E-01  1.2171537557050E+00  7.7162241790727E-01 -3.8703973707062E-02
    68  6.7000000000000E-01  1.1833796939183E+00  8.0381474935972E-01 -4.7383675683835E-02
    69  6.8000000000000E-01  1.1483529257667E+00  8.3432977950433E-01 -5.2721445610563E-02
    70  6.9000000000000E-01  1.1121536537520E+00  8.6313152374281E-01 -5.4594197622079E-02
    71  7.0000000000000E-01  1.0748515081834E+00  8.9021335220565E-01 -5.2931027445213E-02
    72  7.1000000000000E-01  1.0365053539717E+00  9.1559763790851E-01 -4.7714542347606E-02
    73  7.2000000000000E-01  9.9716337752850E-01  9.3933486139743E-01 -3.8981286882218E-02
    74  7.3000000000000E-01  9.5686345415698E-01  9.6150217725916E-01 -2.6821247013040E-02
    75  7.4000000000000E-01  9.1563379116907E-01  9.8220145742963E-01 -1.1376430898737E-02
    76  7.5000000000000E-01  8.7349383681888E-01  1.0015568357233E+00  7.1614594787342E-03
    77  7.6000000000000E-01  8.3045544008470E-01  1.0197117872638E+00  2.8554235799405E-02
    78  7.7000000000000E-01  7.8652424145429E-01  1.0368257853608E+00  5.2521264434918E-02
    79  7.8000000000000E-01  7.4170127025750E-01  1.0530705866879E+00  7.8744280518506E-02
    80  7.9000000000000E-01  6.9598471983016E-01  1.0686262032192E+00  1.0687290047388E-01
    81  8.0000000000000E-01  6.4937186796232E-01  1.0836766261410E+00  1.3653074545585E-01
    82  8.1000000000000E-01  6.0186110675755E-01  1.0984053727263E+00  1.6732207652264E-01
    83  8.2000000000000E-01  5.5345404327050E-01  1.1129909318413E+00  1.9883883229172E-01
    84  8.3000000000000E-01  5.0415763015829E-01  1.1276021872349E+00  2.3066795149865E-01
    85  8.4000000000000E-01  4.5398628412009E-01  1.1423938999665E+00  2.6239885646179E-01
    86  8.5000000000000E-01  4.0296394915019E-01  1.1575023321927E+00  2.9363096906876E-01
    87  8.6000000000000E-01  3.5112606161252E-01  1.1730410940194E+00  3.2398112865884E-01
    88  8.7000000000000E-01  2.9852137487683E-01  1.1890972932157E+00  3.5309078112822E-01
    89  8.8000000000000E-01  2.4521360273522E-01  1.2057280642878E+00  3.8063281076835E-01
    90  8.9000000000000E-01  1.9128284303325E-01  1.2229575487447E+00  4.0631789074749E-01
    91  9.0000000000000E-01  1.3682674587514E-01  1.2407743924228E+00  4.2990023471254E-01
    92  9.1000000000000E-01  8.1961394363402E-02  1.2591298185299E+00  4.5118264064242E-01