Hf    ONCVPSP-4.0.1  r_core=   1.70784   1.70784   1.70784   2.40178
     72.0000     12.0000      231019    zatom,zion,pspd
     8       2   3     4   600     0    pspcod,pspxc,lmax,lloc,mmax,r2well
  5.99000000  5.40000000  0.00000000    rchrg fchrg qchrg
     2     2     2     2     0    nproj
     1     1           extension_switch
   0                         5.9481749618622E+00 -4.2033267805507E-01
     1  0.0000000000000E+00 -5.1969262226947E-11  3.2510222292004E-09
     2  1.0000000000000E-02  5.2891151036475E-02  2.3139776067876E-02
     3  2.0000000000000E-02  1.0570910220359E-01  4.6379096238047E-02
     4  3.0000000000000E-02  1.5838079991161E-01  6.9814374699218E-02
     5  4.0000000000000E-02  2.1083348225727E-01  9.3535819594016E-02
     6  5.0000000000000E-02  2.6299482269884E-01  1.1762446360418E-01
     7  6.0000000000000E-02  3.1479307116697E-01  1.4214935251389E-01
     8  7.0000000000000E-02  3.6615719181888E-01  1.6716494052903E-01
     9  8.0000000000000E-02  4.1701699669543E-01  1.9270873787946E-01
    10  9.0000000000000E-02  4.6730327460364E-01  2.1879925226042E-01
    11  1.0000000000000E-01  5.1694791462109E-01  2.4543426104059E-01
    12  1.1000000000000E-01  5.6588402370094E-01  2.7258944594545E-01
    13  1.2000000000000E-01  6.1404603794651E-01  3.0021741619815E-01
    14  1.3000000000000E-01  6.6136982722052E-01  3.2824713995029E-01
    15  1.4000000000000E-01  7.0779279285465E-01  3.5658379735751E-01
    16  1.5000000000000E-01  7.5325395832832E-01  3.8510906194803E-01
    17  1.6000000000000E-01  7.9769405288968E-01  4.1368181009852E-01
    18  1.7000000000000E-01  8.4105558819514E-01  4.4213925157573E-01
    19  1.8000000000000E-01  8.8328292814383E-01  4.7029846733102E-01
    20  1.9000000000000E-01  9.2432235217982E-01  4.9795833414887E-01
    21  2.0000000000000E-01  9.6412211242408E-01  5.2490180945751E-01
    22  2.1000000000000E-01  1.0026324850806E+00  5.5089854370076E-01
    23  2.2000000000000E-01  1.0398058166327E+00  5.7570778224333E-01
    24  2.3000000000000E-01  1.0755965654089E+00  5.9908151391846E-01
    25  2.4000000000000E-01  1.1099613391447E+00  6.2076781910563E-01
    26  2.5000000000000E-01  1.1428589292083E+00  6.4051436671496E-01
    27  2.6000000000000E-01  1.1742503421750E+00  6.5807200670908E-01
    28  2.7000000000000E-01  1.2040988294516E+00  6.7319840286132E-01
    29  2.8000000000000E-01  1.2323699156393E+00  6.8566164936195E-01
    30  2.9000000000000E-01  1.2590314263083E+00  6.9524381466424E-01
    31  3.0000000000000E-01  1.2840535158203E+00  7.0174435661755E-01
    32  3.1000000000000E-01  1.3074086957853E+00  7.0498335445925E-01
    33  3.2000000000000E-01  1.3290718646789E+00  7.0480450561317E-01
    34  3.3000000000000E-01  1.3490203390679E+00  7.0107783843809E-01
    35  3.4000000000000E-01  1.3672338868079E+00  6.9370209604164E-01
    36  3.5000000000000E-01  1.3836947624768E+00  6.8260675096621E-01
    37  3.6000000000000E-01  1.3983877452054E+00  6.6775361589807E-01
    38  3.7000000000000E-01  1.4113001789493E+00  6.4913802147027E-01
    39  3.8000000000000E-01  1.4224220151318E+00  6.2678953863848E-01
    40  3.9000000000000E-01  1.4317458574636E+00  6.0077222991152E-01
    41  4.0000000000000E-01  1.4392670086230E+00  5.7118442081399E-01
    42  4.1000000000000E-01  1.4449835183580E+00  5.3815799024139E-01
    43  4.2000000000000E-01  1.4488962324535E+00  5.0185718572866E-01
    44  4.3000000000000E-01  1.4510088418913E+00  4.6247697697848E-01
    45  4.4000000000000E-01  1.4513279314251E+00  4.2024096817606E-01
    46  4.5000000000000E-01  1.4498630266944E+00  3.7539889654080E-01
    47  4.6000000000000E-01  1.4466266389149E+00  3.2822375112390E-01
    48  4.7000000000000E-01  1.4416343061096E+00  2.7900855195498E-01
    49  4.8000000000000E-01  1.4349046297842E+00  2.2806283517019E-01
    50  4.9000000000000E-01  1.4264593059102E+00  1.7570889463237E-01
    51  5.0000000000000E-01  1.4163231490504E+00  1.2227783470146E-01
    52  5.1000000000000E-01  1.4045241084536E+00  6.8105492159495E-02
    53  5.2000000000000E-01  1.3910932749592E+00  1.3528287783163E-02
    54  5.3000000000000E-01  1.3760648775790E+00 -4.1120930358007E-02
    55  5.4000000000000E-01  1.3594762686753E+00 -9.5516989149684E-02
    56  5.5000000000000E-01  1.3413678967231E+00 -1.4934637580320E-01
    57  5.6000000000000E-01  1.3217832657313E+00 -2.0231104518553E-01
    58  5.7000000000000E-01  1.3007688805048E+00 -2.5413199015507E-01
    59  5.8000000000000E-01  1.2783741770509E+00 -3.0455251908036E-01
    60  5.9000000000000E-01  1.2546514375747E+00 -3.5334118873487E-01
    61  6.0000000000000E-01  1.2296556896578E+00 -4.0029434560700E-01
    62  6.1000000000000E-01  1.2034445893836E+00 -4.4523823427819E-01
    63  6.2000000000000E-01  1.1760782883460E+00 -4.8803063782292E-01
    64  6.3000000000000E-01  1.1476192846626E+00 -5.2856202208673E-01
    65  6.4000000000000E-01  1.1181322583040E+00 -5.6675616310198E-01
    66  6.5000000000000E-01  1.0876838912424E+00 -6.0257024469926E-01
    67  6.6000000000000E-01  1.0563426731167E+00 -6.3599442145184E-01
    68  6.7000000000000E-01  1.0241786933025E+00 -6.6705085033260E-01
    69  6.8000000000000E-01  9.9126342045964E-01 -6.9579220274204E-01
    70  6.9000000000000E-01  9.5766947081143E-01 -7.2229967676164E-01
    71  7.0000000000000E-01  9.2347036657445E-01 -7.4668053747114E-01
    72  7.1000000000000E-01  8.8874028611454E-01 -7.6906522081777E-01
    73  7.2000000000000E-01  8.5355380754376E-01 -7.8960404372703E-01
    74  7.3000000000000E-01  8.1798564759455E-01 -8.0846356977427E-01
    75  7.4000000000000E-01  7.8211039770971E-01 -8.2582268569887E-01
    76  7.5000000000000E-01  7.4600225936663E-01 -8.4186844923148E-01
    77  7.6000000000000E-01  7.0973478071178E-01 -8.5679177303788E-01
    78  7.7000000000000E-01  6.7338059661366E-01 -8.7078301298387E-01
    79  7.8000000000000E-01  6.3701117424969E-01 -8.8402753133011E-01
    80  7.9000000000000E-01  6.0069656632338E-01 -8.9670130682793E-01
    81  8.0000000000000E-01  5.6450517396311E-01 -9.0896666397344E-01
    82  8.1000000000000E-01  5.2850352128176E-01 -9.2096819286819E-01
    83  8.2000000000000E-01  4.9275604347957E-01 -9.3282892923043E-01
    84  8.3000000000000E-01  4.5732489025000E-01 -9.4464686111657E-01
    85  8.4000000000000E-01  4.2226974610227E-01 -9.5649182487584E-01
    86  8.5000000000000E-01  3.8764766904617E-01 -9.6840284782294E-01
    87  8.6000000000000E-01  3.5351294889586E-01 -9.8038598913295E-01
    88  8.7000000000000E-01  3.1991698624277E-01 -9.9241272361663E-01
    89  8.8000000000000E-01  2.8690819292512E-01 -1.0044189054167E+00
    90  8.9000000000000E-01  2.5453191458630E-01 -1.0163043403737E+00
    91  9.0000000000000E-01  2.2283037566880E-01 -1.0279329869631E+00
    92  9.1000000000000E-01  1.9184264693808E-01 -1.0391337964241E+00
    93  9.2000000000000E-01  1.6160463537513E-01 -1.0497021931180E+00
    94  9.3000000000000E-01  1.3214909602008E-01 -1.0594021864075E+00
    95  9.4000000000000E-01  1.0350566509630E-01 -1.0679690955765E+00
    96  9.5000000000000E-01  7.5700913498442E-02 -1.0751128596646E+00
    97  9.6000000000000E-01  4.8758419491127E-02 -1.0805218947047E+00
    98  9.7000000000000E-01  2.2698859242215E-02 -1.0838674518762E+00
    99  9.8000000000000E-01 -2.4598863920848E-03 -1.0848084216544E+00
   100  9.9000000000000E-01 -2.6702610600319E-02 -1.0829965212769E+00
   101  1.0000000000000E+00 -5.0016646802204E-02 -1.0780817958900E+00
   102  1.0100000000000E+00 -7.2391724364006E-02 -1.0697183576894E+00
   103  1.0200000000000E+00 -9.3819816032367E-02 -1.0575702823329E+00
   104  1.0300000000000E+00 -1.1429497936134E-01 -1.0413175779637E+00
   105  1.0400000000000E+00 -1.3381319446261E-01 -1.0206621394225E+00
   106  1.0500000000000E+00 -1.5237220043323E-01 -9.9533359868360E-01
   107  1.0600000000000E+00 -1.6997133280771E-01 -9.6509498228742E-01
   108  1.0700000000000E+00 -1.8661136434217E-01 -9.2974808755827E-01
   109  1.0800000000000E+00 -2.0229435136724E-01 -8.8913849171253E-01
   110  1.0900000000000E+00 -2.1702348784470E-01 -8.4316011155220E-01
   111  1.1000000000000E+00 -2.3080296913138E-01 -7.9175923626934E-01
   112  1.1100000000000E+00 -2.4363786729338E-01 -7.3493796192137E-01
   113  1.1200000000000E+00 -2.5553401962834E-01 -6.7275696326475E-01
   114  1.1300000000000E+00 -2.6649793184204E-01 -6.0533754684029E-01
   115  1.1400000000000E+00 -2.7653669709534E-01 -5.3286293827831E-01
   116  1.1500000000000E+00 -2.8565793188608E-01 -4.5557876675846E-01
   117  1.1600000000000E+00 -2.9386972946713E-01 -3.7379272011621E-01
   118  1.1700000000000E+00 -3.0118063122380E-01 -2.8787335528850E-01
   119  1.1800000000000E+00 -3.0759961615094E-01 -1.9824806027871E-01
   120  1.1900000000000E+00 -3.1313610828089E-01 -1.0540017563281E-01
   121  1.2000000000000E+00 -3.1780000162584E-01 -9.8652952318835E-03
   122  1.2100000000000E+00 -3.2160170191444E-01  8.7773222051610E-02
   123  1.2200000000000E+00 -3.2455218412542E-01  1.8688948678410E-01
   124  1.2300000000000E+00 -3.2666306455879E-01  2.8682100544257E-01
   125  1.2400000000000E+00 -3.2794668593514E-01  3.8687523436780E-01
   126  1.2500000000000E+00 -3.2841621378581E-01  4.8633668696933E-01
   127  1.2600000000000E+00 -3.2808574219056E-01  5.8447451111986E-01
   128  1.2700000000000E+00 -3.2697040673832E-01  6.8055044586056E-01
   129  1.2800000000000E+00 -3.2508650243577E-01  7.7382705991019E-01
   130  1.2900000000000E+00 -3.2245160416730E-01  8.6357616905221E-01
   131  1.3000000000000E+00 -3.1908468722212E-01  9.4908732541293E-01
   132  1.3100000000000E+00 -3.1500624535138E-01  1.0296762690025E+00
   133  1.3200000000000E+00 -3.1023840380018E-01  1.1046932306993E+00
   134  1.3300000000000E+00 -3.0480502477803E-01  1.1735309761764E+00
   135  1.3400000000000E+00 -2.9873180288664E-01  1.2356324821041E+00
   136  1.3500000000000E+00 -2.9204634811402E-01  1.2904981392713E+00
   137  1.3600000000000E+00 -2.8477825413038E-01  1.3376923820897E+00
   138  1.3700000000000E+00 -2.7695914978088E-01  1.3768496501576E+00
   139  1.3800000000000E+00 -2.6862273186164E-01  1.4076795951487E+00
   140  1.3900000000000E+00 -2.5980477748620E-01  1.4299714550966E+00
   141  1.4000000000000E+00 -2.5054313459775E-01  1.4435975281663E+00
   142  1.4100000000000E+00 -2.4087768945395E-01  1.4485156890086E+00
   143  1.4200000000000E+00 -2.3085031020282E-01  1.4447709026862E+00
   144  1.4300000000000E+00 -2.2050476597659E-01  1.4324957038260E+00
   145  1.4400000000000E+00 -2.0988662125038E-01  1.4119096217968E+00
   146  1.4500000000000E+00 -1.9904310554251E-01  1.3833175463738E+00
   147  1.4600000000000E+00 -1.8802295886532E-01  1.3471070421215E+00
   148  1.4700000000000E+00 -1.7687625366762E-01  1.3037446335660E+00
   149  1.4800000000000E+00 -1.6565419433689E-01  1.2537710969058E+00
   150  1.4900000000000E+00 -1.5440889564722E-01  1.1977958073432E+00
   151  1.5000000000000E+00 -1.4319314184192E-01  1.1364902038994E+00
   152  1.5100000000000E+00 -1.3206012832580E-01  1.0705804456788E+00
   153  1.5200000000000E+00 -1.2106318820581E-01  1.0008393447804E+00
   154  1.5300000000000E+00 -1.1025550615591E-01  9.2807767121870E-01
   155  1.5400000000000E+00 -9.9689822291251E-02  8.5313493424597E-01
   156  1.5500000000000E+00 -8.9418128913103E-02  7.7686975217394E-01
   157  1.5600000000000E+00 -7.9491363127764E-02  7.0014992909283E-01
   158  1.5700000000000E+00 -6.9959098447911E-02  6.2384236167591E-01
   159  1.5800000000000E+00 -6.0869238551248E-02  5.4880290247012E-01
   160  1.5900000000000E+00 -5.2267716358514E-02  4.7586631069706E-01
   161  1.6000000000000E+00 -4.4198202200659E-02  4.0583637958635E-01
   162  1.6100000000000E+00 -3.6701821106347E-02  3.3947652526772E-01
   163  1.6200000000000E+00 -2.9816891501609E-02  2.7750076747681E-01
   164  1.6300000000000E+00 -2.3578882427183E-02  2.2054790672194E-01
   165  1.6400000000000E+00 -1.8020018823947E-02  1.6917737184145E-01
   166  1.6500000000000E+00 -1.3168354326965E-02  1.2392553434304E-01
   167  1.6600000000000E+00 -9.0484427876378E-03  8.5248096133095E-02
   168  1.6700000000000E+00 -5.6811465090525E-03  5.3514451555002E-02
   169  1.6800000000000E+00 -3.0841250797670E-03  2.9009108786652E-02
   170  1.6900000000000E+00 -1.2649621811599E-03  1.1866058548498E-02
   171  1.7000000000000E+00 -2.5510146373645E-04  2.3832509898368E-03
   172  1.7100000000000E+00  1.6830504458209E-05 -1.5672796104275E-04
   173  1.7200000000000E+00 -4.0361078506696E-06  3.7651566625486E-05
   174  1.73  0. -0.
   175  1.74 -0.  0.
   176  1.75  0.  0.
   177  1.76  0.  0.
   178  1.77  0.  0.
   179  1.78  0.  0.
   180  1.79  0.  0.
   181  1.80  0.  0.
   182  1.81  0.  0.
   183  1.82  0.  0.
   184  1.83  0.  0.
   185  1.84  0.  0.
   186  1.85  0.  0.
   187  1.86  0.  0.
   188  1.87  0.  0.
   189  1.88  0.  0.
   190  1.89  0.  0.
   191  1.90  0.  0.
   192  1.91  0.  0.
   193  1.92  0.  0.
   194  1.93  0.  0.
   195  1.94  0.  0.
   196  1.95  0.  0.
   197  1.96  0.  0.
   198  1.97  0.  0.
   199  1.98  0.  0.
   200  1.99  0.  0.
   201  2.00  0.  0.
   202  2.01  0.  0.
   203  2.02  0.  0.
   204  2.03  0.  0.
   205  2.04  0.  0.
   206  2.05  0.  0.
   207  2.06  0.  0.
   208  2.07  0.  0.
   209  2.08  0.  0.
   210  2.09  0.  0.
   211  2.10  0.  0.
   212  2.11  0.  0.
   213  2.12  0.  0.
   214  2.13  0.  0.
   215  2.14  0.  0.
   216  2.15  0.  0.
   217  2.16  0.  0.
   218  2.17  0.  0.
   219  2.18  0.  0.
   220  2.19  0.  0.
   221  2.20  0.  0.
   222  2.21  0.  0.
   223  2.22  0.  0.
   224  2.23  0.  0.
   225  2.24  0.  0.
   226  2.25  0.  0.
   227  2.26  0.  0.
   228  2.27  0.  0.
   229  2.28  0.  0.
   230  2.29  0.  0.
   231  2.30  0.  0.
   232  2.31  0.  0.
   233  2.32  0.  0.
   234  2.33  0.  0.
   235  2.34  0.  0.
   236  2.35  0.  0.
   237  2.36  0.  0.
   238  2.37  0.  0.
   239  2.38  0.  0.
   240  2.39  0.  0.
   241  2.40  0.  0.
   242  2.41  0.  0.
   243  2.42  0.  0.
   244  2.43  0.  0.
   245  2.44  0.  0.
   246  2.45  0.  0.
   247  2.46  0.  0.
   248  2.47  0.  0.
   249  2.48  0.  0.
   250  2.49  0.  0.
   251  2.50  0.  0.
   252  2.51  0.  0.
   253  2.52  0.  0.
   254  2.53  0.  0.
   255  2.54  0.  0.
   256  2.55  0.  0.
   257  2.56  0.  0.
   258  2.57  0.  0.
   259  2.58  0.  0.
   260  2.59  0.  0.
   261  2.60  0.  0.
   262  2.61  0.  0.
   263  2.62  0.  0.
   264  2.63  0.  0.
   265  2.64  0.  0.
   266  2.65  0.  0.
   267  2.66  0.  0.
   268  2.67  0.  0.
   269  2.68  0.  0.
   270  2.69  0.  0.
   271  2.70  0.  0.
   272  2.71  0.  0.
   273  2.72  0.  0.
   274  2.73  0.  0.
   275  2.74  0.  0.
   276  2.75  0.  0.
   277  2.76  0.  0.
   278  2.77  0.  0.
   279  2.78  0.  0.
   280  2.79  0.  0.
   281  2.80  0.  0.
   282  2.81  0.  0.
   283  2.82  0.  0.
   284  2.83  0.  0.
   285  2.84  0.  0.
   286  2.85  0.  0.
   287  2.86  0.  0.
   288  2.87  0.  0.
   289  2.88  0.  0.
   290  2.89  0.  0.
   291  2.90  0.  0.
   292  2.91  0.  0.
   293  2.92  0.  0.
   294  2.93  0.  0.
   295  2.94  0.  0.
   296  2.95  0.  0.
   297  2.96  0.  0.
   298  2.97  0.  0.
   299  2.98  0.  0.
   300  2.99  0.  0.
   301  3.00  0.  0.
   302  3.01  0.  0.
   303  3.02  0.  0.
   304  3.03  0.  0.
   305  3.04  0.  0.
   306  3.05  0.  0.
   307  3.06  0.  0.
   308  3.07  0.  0.
   309  3.08  0.  0.
   310  3.09  0.  0.
   311  3.10  0.  0.
   312  3.11  0.  0.
   313  3.12  0.  0.
   314  3.13  0.  0.
   315  3.14  0.  0.
   316  3.15  0.  0.
   317  3.16  0.  0.
   318  3.17  0.  0.
   319  3.18  0.  0.
   320  3.19  0.  0.
   321  3.20  0.  0.
   322  3.21  0.  0.
   323  3.22  0.  0.
   324  3.23  0.  0.
   325  3.24  0.  0.
   326  3.25  0.  0.
   327  3.26  0.  0.
   328  3.27  0.  0.
   329  3.28  0.  0.
   330  3.29  0.  0.
   331  3.30  0.  0.
   332  3.31  0.  0.
   333  3.32  0.  0.
   334  3.33  0.  0.
   335  3.34  0.  0.
   336  3.35  0.  0.
   337  3.36  0.  0.
   338  3.37  0.  0.
   339  3.38  0.  0.
   340  3.39  0.  0.
   341  3.40  0.  0.
   342  3.41  0.  0.
   343  3.42  0.  0.
   344  3.43  0.  0.
   345  3.44  0.  0.
   346  3.45  0.  0.
   347  3.46  0.  0.
   348  3.47  0.  0.
   349  3.48  0.  0.
   350  3.49  0.  0.
   351  3.50  0.  0.
   352  3.51  0.  0.
   353  3.52  0.  0.
   354  3.53  0.  0.
   355  3.54  0.  0.
   356  3.55  0.  0.
   357  3.56  0.  0.
   358  3.57  0.  0.
   359  3.58  0.  0.
   360  3.59  0.  0.
   361  3.60  0.  0.
   362  3.61  0.  0.
   363  3.62  0.  0.
   364  3.63  0.  0.
   365  3.64  0.  0.
   366  3.65  0.  0.
   367  3.66  0.  0.
   368  3.67  0.  0.
   369  3.68  0.  0.
   370  3.69  0.  0.
   371  3.70  0.  0.
   372  3.71  0.  0.
   373  3.72  0.  0.
   374  3.73  0.  0.
   375  3.74  0.  0.
   376  3.75  0.  0.
   377  3.76  0.  0.
   378  3.77  0.  0.
   379  3.78  0.  0.
   380  3.79  0.  0.
   381  3.80  0.  0.
   382  3.81  0.  0.
   383  3.82  0.  0.
   384  3.83  0.  0.
   385  3.84  0.  0.
   386  3.85  0.  0.
   387  3.86  0.  0.
   388  3.87  0.  0.
   389  3.88  0.  0.
   390  3.89  0.  0.
   391  3.90  0.  0.
   392  3.91  0.  0.
   393  3.92  0.  0.
   394  3.93  0.  0.
   395  3.94  0.  0.
   396  3.95  0.  0.
   397  3.96  0.  0.
   398  3.97  0.  0.
   399  3.98  0.  0.
   400  3.99  0.  0.
   401  4.00  0.  0.
   402  4.01  0.  0.
   403  4.02  0.  0.
   404  4.03  0.  0.
   405  4.04  0.  0.
   406  4.05  0.  0.
   407  4.06  0.  0.
   408  4.07  0.  0.
   409  4.08  0.  0.
   410  4.09  0.  0.
   411  4.10  0.  0.
   412  4.11  0.  0.
   413  4.12  0.  0.
   414  4.13  0.  0.
   415  4.14  0.  0.
   416  4.15  0.  0.
   417  4.16  0.  0.
   418  4.17  0.  0.
   419  4.18  0.  0.
   420  4.19  0.  0.
   421  4.20  0.  0.
   422  4.21  0.  0.
   423  4.22  0.  0.
   424  4.23  0.  0.
   425  4.24  0.  0.
   426  4.25  0.  0.
   427  4.26  0.  0.
   428  4.27  0.  0.
   429  4.28  0.  0.
   430  4.29  0.  0.
   431  4.30  0.  0.
   432  4.31  0.  0.
   433  4.32  0.  0.
   434  4.33  0.  0.
   435  4.34  0.  0.
   436  4.35  0.  0.
   437  4.36  0.  0.
   438  4.37  0.  0.
   439  4.38  0.  0.
   440  4.39  0.  0.
   441  4.40  0.  0.
   442  4.41  0.  0.
   443  4.42  0.  0.
   444  4.43  0.  0.
   445  4.44  0.  0.
   446  4.45  0.  0.
   447  4.46  0.  0.
   448  4.47  0.  0.
   449  4.48  0.  0.
   450  4.49  0.  0.
   451  4.50  0.  0.
   452  4.51  0.  0.
   453  4.52  0.  0.
   454  4.53  0.  0.
   455  4.54  0.  0.
   456  4.55  0.  0.
   457  4.56  0.  0.
   458  4.57  0.  0.
   459  4.58  0.  0.
   460  4.59  0.  0.
   461  4.60  0.  0.
   462  4.61  0.  0.
   463  4.62  0.  0.
   464  4.63  0.  0.
   465  4.64  0.  0.
   466  4.65  0.  0.
   467  4.66  0.  0.
   468  4.67  0.  0.
   469  4.68  0.  0.
   470  4.69  0.  0.
   471  4.70  0.  0.
   472  4.71  0.  0.
   473  4.72  0.  0.
   474  4.73  0.  0.
   475  4.74  0.  0.
   476  4.75  0.  0.
   477  4.76  0.  0.
   478  4.77  0.  0.
   479  4.78  0.  0.
   480  4.79  0.  0.
   481  4.80  0.  0.
   482  4.81  0.  0.
   483  4.82  0.  0.
   484  4.83  0.  0.
   485  4.84  0.  0.
   486  4.85  0.  0.
   487  4.86  0.  0.
   488  4.87  0.  0.
   489  4.88  0.  0.
   490  4.89  0.  0.
   491  4.90  0.  0.
   492  4.91  0.  0.
   493  4.92  0.  0.
   494  4.93  0.  0.
   495  4.94  0.  0.
   496  4.95  0.  0.
   497  4.96  0.  0.
   498  4.97  0.  0.
   499  4.98  0.  0.
   500  4.99  0.  0.
   501  5.00  0.  0.
   502  5.01  0.  0.
   503  5.02  0.  0.
   504  5.03  0.  0.
   505  5.04  0.  0.
   506  5.05  0.  0.
   507  5.06  0.  0.
   508  5.07  0.  0.
   509  5.08  0.  0.
   510  5.09  0.  0.
   511  5.10  0.  0.
   512  5.11  0.  0.
   513  5.12  0.  0.
   514  5.13  0.  0.
   515  5.14  0.  0.
   516  5.15  0.  0.
   517  5.16  0.  0.
   518  5.17  0.  0.
   519  5.18  0.  0.
   520  5.19  0.  0.
   521  5.20  0.  0.
   522  5.21  0.  0.
   523  5.22  0.  0.
   524  5.23  0.  0.
   525  5.24  0.  0.
   526  5.25  0.  0.
   527  5.26  0.  0.
   528  5.27  0.  0.
   529  5.28  0.  0.
   530  5.29  0.  0.
   531  5.30  0.  0.
   532  5.31  0.  0.
   533  5.32  0.  0.
   534  5.33  0.  0.
   535  5.34  0.  0.
   536  5.35  0.  0.
   537  5.36  0.  0.
   538  5.37  0.  0.
   539  5.38  0.  0.
   540  5.39  0.  0.
   541  5.40  0.  0.
   542  5.41  0.  0.
   543  5.42  0.  0.
   544  5.43  0.  0.
   545  5.44  0.  0.
   546  5.45  0.  0.
   547  5.46  0.  0.
   548  5.47  0.  0.
   549  5.48  0.  0.
   550  5.49  0.  0.
   551  5.50  0.  0.
   552  5.51  0.  0.
   553  5.52  0.  0.
   554  5.53  0.  0.
   555  5.54  0.  0.
   556  5.55  0.  0.
   557  5.56  0.  0.
   558  5.57  0.  0.
   559  5.58  0.  0.
   560  5.59  0.  0.
   561  5.60  0.  0.
   562  5.61  0.  0.
   563  5.62  0.  0.
   564  5.63  0.  0.
   565  5.64  0.  0.
   566  5.65  0.  0.
   567  5.66  0.  0.
   568  5.67  0.  0.
   569  5.68  0.  0.
   570  5.69  0.  0.
   571  5.70  0.  0.
   572  5.71  0.  0.
   573  5.72  0.  0.
   574  5.73  0.  0.
   575  5.74  0.  0.
   576  5.75  0.  0.
   577  5.76  0.  0.
   578  5.77  0.  0.
   579  5.78  0.  0.
   580  5.79  0.  0.
   581  5.80  0.  0.
   582  5.81  0.  0.
   583  5.82  0.  0.
   584  5.83  0.  0.
   585  5.84  0.  0.
   586  5.85  0.  0.
   587  5.86  0.  0.
   588  5.87  0.  0.
   589  5.88  0.  0.
   590  5.89  0.  0.
   591  5.90  0.  0.
   592  5.91  0.  0.
   593  5.92  0.  0.
   594  5.93  0.  0.
   595  5.94  0.  0.
   596  5.95  0.  0.
   597  5.96  0.  0.
   598  5.97  0.  0.
   599  5.98  0.  0.
   600  5.99  0.  0.
   1                         2.5252064063558E+00 -1.7529539172850E+00
     1  0.0000000000000E+00  1.7157628165454E-09  6.8641718142803E-09
     2  1.0000000000000E-02  8.2893089473048E-04 -7.7377220516711E-04
     3  2.0000000000000E-02  3.3121061871657E-03 -3.0993940080166E-03
     4  3.0000000000000E-02  7.4387245262951E-03 -6.9895955652244E-03
     5  4.0000000000000E-02  1.3190952063540E-02 -1.2464979823444E-02
     6  5.0000000000000E-02  2.0544171538686E-02 -1.9553115597341E-02
     7  6.0000000000000E-02  2.9467324032722E-02 -2.8287295702093E-02
     8  7.0000000000000E-02  3.9923336582767E-02 -3.8704987321909E-02
     9  8.0000000000000E-02  5.1869627138500E-02 -5.0846008660315E-02
    10  9.0000000000000E-02  6.5258676790022E-02 -6.4750472125922E-02
    11  1.0000000000000E-01  8.0038657843109E-02 -8.0456539742258E-02
    12  1.1000000000000E-01  9.6154105187632E-02 -9.7998041020533E-02
    13  1.2000000000000E-01  1.1354661751996E-01 -1.1740200711401E-01
    14  1.3000000000000E-01  1.3215557435948E-01 -1.3868617760536E-01
    15  1.4000000000000E-01  1.5191885445570E-01 -1.6185653771216E-01
    16  1.5000000000000E-01  1.7277354112419E-01 -1.8690494399658E-01
    17  1.6000000000000E-01  1.9465660027894E-01 -2.1380689581994E-01
    18  1.7000000000000E-01  2.1750551744413E-01 -2.4251950779956E-01
    19  1.8000000000000E-01  2.4125888082002E-01 -2.7297973543475E-01
    20  1.9000000000000E-01  2.6585689853408E-01 -3.0510290191882E-01
    21  2.0000000000000E-01  2.9124183950954E-01 -3.3878156901649E-01
    22  2.1000000000000E-01  3.1735838890803E-01 -3.7388478884824E-01
    23  2.2000000000000E-01  3.4415391082087E-01 -4.1025776659116E-01
    24  2.3000000000000E-01  3.7157861276643E-01 -4.4772195660089E-01
    25  2.4000000000000E-01  3.9958560856123E-01 -4.8607560641530E-01
    26  2.5000000000000E-01  4.2813087823523E-01 -5.2509475466290E-01
    27  2.6000000000000E-01  4.5717312581562E-01 -5.6453468022174E-01
    28  2.7000000000000E-01  4.8667353796882E-01 -6.0413179121632E-01
    29  2.8000000000000E-01  5.1659544862546E-01 -6.4360593376360E-01
    30  2.9000000000000E-01  5.4690391677653E-01 -6.8266309194676E-01
    31  3.0000000000000E-01  5.7756522658056E-01 -7.2099844246514E-01
    32  3.1000000000000E-01  6.0854632072252E-01 -7.5829971993627E-01
    33  3.2000000000000E-01  6.3981417957936E-01 -7.9425084205328E-01
    34  3.3000000000000E-01  6.7133516014059E-01 -8.2853573786409E-01
    35  3.4000000000000E-01  7.0307430977610E-01 -8.6084231745615E-01
    36  3.5000000000000E-01  7.3499467081221E-01 -8.9086651740611E-01
    37  3.6000000000000E-01  7.6705659244882E-01 -9.1831635357379E-01
    38  3.7000000000000E-01  7.9921706681257E-01 -9.4291591124973E-01
    39  3.8000000000000E-01  8.3142910588010E-01 -9.6440920235067E-01
    40  3.9000000000000E-01  8.6364117562051E-01 -9.8256382032090E-01
    41  4.0000000000000E-01  8.9579670299703E-01 -9.9717432563824E-01
    42  4.1000000000000E-01  9.2783367044254E-01 -1.0080652983207E+00
    43  4.2000000000000E-01  9.5968431109682E-01 -1.0150939985372E+00
    44  4.3000000000000E-01  9.9127491648286E-01 -1.0181525822733E+00
    45  4.4000000000000E-01  1.0225257664310E+00 -1.0171698259079E+00
    46  4.5000000000000E-01  1.0533511889630E+00 -1.0121123214010E+00
    47  4.6000000000000E-01  1.0836597555567E+00 -1.0029851124592E+00
    48  4.7000000000000E-01  1.1133546147665E+00 -9.8983175138182E-01
    49  4.8000000000000E-01  1.1423339646132E+00 -9.7273376614800E-01
    50  4.9000000000000E-01  1.1704916615291E+00 -9.5180953750754E-01
    51  5.0000000000000E-01  1.1977179609913E+00 -9.2721259621534E-01
    52  5.1000000000000E-01  1.2239003823510E+00 -8.9912936091490E-01
    53  5.2000000000000E-01  1.2489246878117E+00 -8.6777634734837E-01
    54  5.3000000000000E-01  1.2726759630791E+00 -8.3339688936426E-01
    55  5.4000000000000E-01  1.2950397849384E+00 -7.9625742143032E-01
    56  5.5000000000000E-01  1.3159034589615E+00 -7.5664338086695E-01
    57  5.6000000000000E-01  1.3351573087455E+00 -7.1485479563338E-01
    58  5.7000000000000E-01  1.3526959965697E+00 -6.7120163007629E-01
    59  5.8000000000000E-01  1.3684198541700E+00 -6.2599896645859E-01
    60  5.9000000000000E-01  1.3822362014889E+00 -5.7956210420813E-01
    61  6.0000000000000E-01  1.3940606307899E+00 -5.3220166157269E-01
    62  6.1000000000000E-01  1.4038182334486E+00 -4.8421876566661E-01
    63  6.2000000000000E-01  1.4114447470448E+00 -4.3590041670128E-01
    64  6.3000000000000E-01  1.4168876011031E+00 -3.8751511048596E-01
    65  6.4000000000000E-01  1.4201068409369E+00 -3.3930880007231E-01
    66  6.5000000000000E-01  1.4210759105525E+00 -2.9150127272862E-01
    67  6.6000000000000E-01  1.4197822774302E+00 -2.4428301232378E-01
    68  6.7000000000000E-01  1.4162278842063E+00 -1.9781260976360E-01
    69  6.8000000000000E-01  1.4104294147947E+00 -1.5221477545699E-01
    70  6.9000000000000E-01  1.4024183652742E+00 -1.0757899803033E-01
    71  7.0000000000000E-01  1.3922409128887E+00 -6.3958882805455E-02
    72  7.1000000000000E-01  1.3799575797077E+00 -2.1372192079011E-02
    73  7.2000000000000E-01  1.3656426908316E+00  2.0198402822507E-02
    74  7.3000000000000E-01  1.3493836304380E+00  6.0803860191463E-02
    75  7.4000000000000E-01  1.3312799024010E+00  1.0052661240436E-01
    76  7.5000000000000E-01  1.3114420056096E+00  1.3947774391475E-01
    77  7.6000000000000E-01  1.2899901374191E+00  1.7779354283056E-01
    78  7.7000000000000E-01  1.2670527418120E+00  2.1563147800961E-01
    79  7.8000000000000E-01  1.2427649217914E+00  2.5316566480155E-01
    80  7.9000000000000E-01  1.2172667381994E+00  2.9058189287518E-01
    81  8.0000000000000E-01  1.1907014195222E+00  3.2807229880249E-01
    82  8.1000000000000E-01  1.1632135092416E+00  3.6582977404925E-01
    83  8.2000000000000E-01  1.1349469788999E+00  4.0404220559102E-01
    84  8.3000000000000E-01  1.1060433362102E+00  4.4288665139105E-01
    85  8.4000000000000E-01  1.0766397582517E+00  4.8252355633561E-01
    86  8.5000000000000E-01  1.0468672800114E+00  5.2309111583341E-01
    87  8.6000000000000E-01  1.0168490682572E+00  5.6469989409226E-01
    88  8.7000000000000E-01  9.8669880995502E-01  6.0742780205882E-01
    89  8.8000000000000E-01  9.5651924316458E-01  6.5131553614890E-01
    90  8.9000000000000E-01  9.2640085659214E-01  6.9636257323804E-01
    91  9.0000000000000E-01  8.9642078174862E-01  7.4252380999010E-01
    92  9.1000000000000E-01  8.6664189899915E-01  7.8970692556697E-01
    93  9.2000000000000E-01  8.3711217572166E-01  8.3777053620986E-01
    94  9.3000000000000E-01  8.0786425136597E-01  8.8652319826101E-01
    95  9.4000000000000E-01  7.7891528046864E-01  9.3572330307826E-01
    96  9.5000000000000E-01  7.5026704068903E-01  9.8507989318405E-01
    97  9.6000000000000E-01  7.2190630874867E-01  1.0342544141000E+00
    98  9.7000000000000E-01  6.9380550284513E-01  1.0828634008840E+00
    99  9.8000000000000E-01  6.6592358574095E-01  1.1304820826555E+00
   100  9.9000000000000E-01  6.3820721836689E-01  1.1766488726188E+00
   101  1.0000000000000E+00  6.1059214950013E-01  1.2208706955367E+00
   102  1.0100000000000E+00  5.8300482295234E-01  1.2626290895304E+00
   103  1.0200000000000E+00  5.5536417979859E-01  1.3013870047369E+00
   104  1.0300000000000E+00  5.2758362956358E-01  1.3365962079910E+00
   105  1.0400000000000E+00  4.9957316102229E-01  1.3677051905649E+00
   106  1.0500000000000E+00  4.7124156042325E-01  1.3941674652917E+00
   107  1.0600000000000E+00  4.4249870255889E-01  1.4154501303364E+00
   108  1.0700000000000E+00  4.1325787823793E-01  1.4310425696349E+00
   109  1.0800000000000E+00  3.8343812039176E-01  1.4404651547312E+00
   110  1.0900000000000E+00  3.5296649030902E-01  1.4432778095451E+00
   111  1.1000000000000E+00  3.2178028535352E-01  1.4390882985664E+00
   112  1.1100000000000E+00  2.8982913000097E-01  1.4275601001662E+00
   113  1.1200000000000E+00  2.5707691312084E-01  1.4084197301322E+00
   114  1.1300000000000E+00  2.2350353614155E-01  1.3814633862076E+00
   115  1.1400000000000E+00  1.8910643902511E-01  1.3465627921933E+00
   116  1.1500000000000E+00  1.5390187385372E-01  1.3036701301117E+00
   117  1.1600000000000E+00  1.1792589920785E-01  1.2528219607178E+00
   118  1.1700000000000E+00  8.1235072408985E-02  1.1941420463381E+00
   119  1.1800000000000E+00  4.3906820988607E-02  1.1278430051928E+00
   120  1.1900000000000E+00  6.0394794351488E-03  1.0542267430353E+00