Hf    ONCVPSP-4.0.1  r_core=   1.70784   1.70784   1.70784   2.40178
     72.0000     12.0000      250925    zatom,zion,pspd
     8   -1012   3     4   600     0    pspcod,pspxc,lmax,lloc,mmax,r2well
  5.99000000  5.40000000  0.00000000    rchrg fchrg qchrg
     2     3     2     2    nproj
     3     1           extension_switch
     3     4     3    nprojso
   0                         5.9320318243960E+00 -4.3942964664857E-01
     1  0.0000000000000E+00 -6.3194727228932E-11  3.2292486740193E-09
     2  1.0000000000000E-02  5.2733090228184E-02  2.3453627894025E-02
     3  2.0000000000000E-02  1.0539290334364E-01  4.7005159821574E-02
     4  3.0000000000000E-02  1.5790631869152E-01  7.0749392143669E-02
     5  4.0000000000000E-02  2.1020052747552E-01  9.4774959296359E-02
     6  5.0000000000000E-02  2.6220318606056E-01  1.1916138553941E-01
     7  6.0000000000000E-02  3.1384256616935E-01  1.4397629362245E-01
     8  7.0000000000000E-02  3.6504770101324E-01  1.6927281881890E-01
     9  8.0000000000000E-02  4.1574852646057E-01  1.9508727354893E-01
    10  9.0000000000000E-02  4.6587601642310E-01  2.2143710386867E-01
    11  1.0000000000000E-01  5.1536231173040E-01  2.4831917450488E-01
    12  1.1000000000000E-01  5.6414084186263E-01  2.7570841393113E-01
    13  1.2000000000000E-01  6.1214643902206E-01  3.0355684529272E-01
    14  1.3000000000000E-01  6.5931544414117E-01  3.3179302287939E-01
    15  1.4000000000000E-01  7.0558580454781E-01  3.6032188741119E-01
    16  1.5000000000000E-01  7.5089716313462E-01  3.8902504674019E-01
    17  1.6000000000000E-01  7.9519093900734E-01  4.1776148178357E-01
    18  1.7000000000000E-01  8.3841039971368E-01  4.4636867069353E-01
    19  1.8000000000000E-01  8.8050072527810E-01  4.7466411754279E-01
    20  1.9000000000000E-01  9.2140906438653E-01  5.0244726526406E-01
    21  2.0000000000000E-01  9.6108458317646E-01  5.2950176632932E-01
    22  2.1000000000000E-01  9.9947850719025E-01  5.5559807878670E-01
    23  2.2000000000000E-01  1.0365441571403E+00  5.8049634988164E-01
    24  2.3000000000000E-01  1.0722369792138E+00  6.0394954465812E-01
    25  2.4000000000000E-01  1.1065145707089E+00  6.2570677274326E-01
    26  2.5000000000000E-01  1.1393367018429E+00  6.4551676303068E-01
    27  2.6000000000000E-01  1.1706653346071E+00  6.6313143325054E-01
    28  2.7000000000000E-01  1.2004646395566E+00  6.7830949949535E-01
    29  2.8000000000000E-01  1.2287010114227E+00  6.9082006969019E-01
    30  2.9000000000000E-01  1.2553430844171E+00  7.0044616477848E-01
    31  3.0000000000000E-01  1.2803617480559E+00  7.0698811204399E-01
    32  3.1000000000000E-01  1.3037301642827E+00  7.1026675650519E-01
    33  3.2000000000000E-01  1.3254237865932E+00  7.1012643867746E-01
    34  3.3000000000000E-01  1.3454203817827E+00  7.0643769017296E-01
    35  3.4000000000000E-01  1.3637000548332E+00  6.9909960255297E-01
    36  3.5000000000000E-01  1.3802452773459E+00  6.8804182950758E-01
    37  3.6000000000000E-01  1.3950409197989E+00  6.7322618774579E-01
    38  3.7000000000000E-01  1.4080742877775E+00  6.5464782785899E-01
    39  3.8000000000000E-01  1.4193351621847E+00  6.3233595278588E-01
    40  3.9000000000000E-01  1.4288158432901E+00  6.0635406826423E-01
    41  4.0000000000000E-01  1.4365111983358E+00  5.7679975670236E-01
    42  4.1000000000000E-01  1.4424187122615E+00  5.4380397313785E-01
    43  4.2000000000000E-01  1.4465385409743E+00  5.0752986926079E-01
    44  4.3000000000000E-01  1.4488735664444E+00  4.6817115875678E-01
    45  4.4000000000000E-01  1.4494294527775E+00  4.2595004435540E-01
    46  4.5000000000000E-01  1.4482147022941E+00  3.8111473384761E-01
    47  4.6000000000000E-01  1.4452407105355E+00  3.3393657885037E-01
    48  4.7000000000000E-01  1.4405218190212E+00  2.8470687614893E-01
    49  4.8000000000000E-01  1.4340753645051E+00  2.3373337693998E-01
    50  4.9000000000000E-01  1.4259217234167E+00  1.8133655414399E-01
    51  5.0000000000000E-01  1.4160843501341E+00  1.2784568207406E-01
    52  5.1000000000000E-01  1.4045898077146E+00  7.3594786073161E-02
    53  5.2000000000000E-01  1.3914677897121E+00  1.8918522202355E-02
    54  5.3000000000000E-01  1.3767511317339E+00 -3.5851951362872E-02
    55  5.4000000000000E-01  1.3604758114385E+00 -9.0393048925213E-02
    56  5.5000000000000E-01  1.3426809357433E+00 -1.4439271584710E-01
    57  5.6000000000000E-01  1.3234087141059E+00 -1.9755421037393E-01
    58  5.7000000000000E-01  1.3027044168529E+00 -2.4959965014563E-01
    59  5.8000000000000E-01  1.2806163176679E+00 -3.0027326795493E-01
    60  5.9000000000000E-01  1.2571956194972E+00 -3.4934432529771E-01
    61  6.0000000000000E-01  1.2324963633082E+00 -3.9660963707677E-01
    62  6.1000000000000E-01  1.2065753193134E+00 -4.4189566639506E-01
    63  6.2000000000000E-01  1.1794918604753E+00 -4.8506015463438E-01
    64  6.3000000000000E-01  1.1513078183125E+00 -5.2599325887088E-01
    65  6.4000000000000E-01  1.1220873212435E+00 -5.6461817603328E-01
    66  6.5000000000000E-01  1.0918966159226E+00 -6.0089124095546E-01
    67  6.6000000000000E-01  1.0608038722466E+00 -6.3480149350081E-01
    68  6.7000000000000E-01  1.0288789729263E+00 -6.6636971812143E-01
    69  6.8000000000000E-01  9.9619328873439E-01 -6.9564696744026E-01
    70  6.9000000000000E-01  9.6281944074733E-01 -7.2271258958324E-01
    71  7.0000000000000E-01  9.2883105109259E-01 -7.4767178692021E-01
    72  7.1000000000000E-01  8.9430248389674E-01 -7.7065274147056E-01
    73  7.2000000000000E-01  8.5930857829193E-01 -7.9180334938192E-01
    74  7.3000000000000E-01  8.2392437548446E-01 -8.1128761347635E-01
    75  7.4000000000000E-01  7.8822484201102E-01 -8.2928174877808E-01
    76  7.5000000000000E-01  7.5228459140714E-01 -8.4597006109185E-01
    77  7.6000000000000E-01  7.1617760658407E-01 -8.6154066300323E-01
    78  7.7000000000000E-01  6.7997696525506E-01 -8.7618109504855E-01
    79  7.8000000000000E-01  6.4375457076769E-01 -8.9007392219073E-01
    80  7.9000000000000E-01  6.0758089068468E-01 -9.0339237708748E-01
    81  8.0000000000000E-01  5.7152470541156E-01 -9.1629612192194E-01
    82  8.1000000000000E-01  5.3565286909567E-01 -9.2892719976083E-01
    83  8.2000000000000E-01  5.0003008491695E-01 -9.4140624451128E-01
    84  8.3000000000000E-01  4.6471869675914E-01 -9.5382901558178E-01
    85  8.4000000000000E-01  4.2977849908981E-01 -9.6626331934091E-01
    86  8.5000000000000E-01  3.9526656669274E-01 -9.7874637446187E-01
    87  8.6000000000000E-01  3.6123710568683E-01 -9.9128267229677E-01
    88  8.7000000000000E-01  3.2774132703600E-01 -1.0038423766242E+00
    89  8.8000000000000E-01  2.9482734350571E-01 -1.0163602995434E+00
    90  8.9000000000000E-01  2.6254009075844E-01 -1.0287354820508E+00
    91  9.0000000000000E-01  2.3092127300457E-01 -1.0408313990447E+00
    92  9.1000000000000E-01  2.0000933334099E-01 -1.0524767992816E+00
    93  9.2000000000000E-01  1.6983944862155E-01 -1.0634671812912E+00
    94  9.3000000000000E-01  1.4044354841340E-01 -1.0735668965669E+00
    95  9.4000000000000E-01  1.1185035730738E-01 -1.0825118616492E+00
    96  9.5000000000000E-01  8.4085459570813E-02 -1.0900128511306E+00
    97  9.6000000000000E-01  5.7171384863019E-02 -1.0957593342880E+00
    98  9.7000000000000E-01  3.1127713479471E-02 -1.0994238091333E+00
    99  9.8000000000000E-01  5.9711993554875E-03 -1.1006665792948E+00
   100  9.9000000000000E-01 -1.8284091153967E-02 -1.0991409114338E+00
   101  1.0000000000000E+00 -4.1626626890585E-02 -1.0944985039888E+00
   102  1.0100000000000E+00 -6.4047248238807E-02 -1.0863951920339E+00
   103  1.0200000000000E+00 -8.5538994666512E-02 -1.0744968080304E+00
   104  1.0300000000000E+00 -1.0609692602400E-01 -1.0584851143453E+00
   105  1.0400000000000E+00 -1.2571794022975E-01 -1.0380637206617E+00
   106  1.0500000000000E+00 -1.4440059000125E-01 -1.0129638978814E+00
   107  1.0600000000000E+00 -1.6214490128243E-01 -9.8295019985697E-01
   108  1.0700000000000E+00 -1.7895219597714E-01 -9.4782580530395E-01
   109  1.0800000000000E+00 -1.9482492151883E-01 -9.0743749454468E-01
   110  1.0900000000000E+00 -2.0976648969299E-01 -8.6168017930800E-01
   111  1.1000000000000E+00 -2.2378112698067E-01 -8.1050090860606E-01
   112  1.1100000000000E+00 -2.3687373851056E-01 -7.5390227971039E-01
   113  1.1200000000000E+00 -2.4904978749735E-01 -6.9194519033083E-01
   114  1.1300000000000E+00 -2.6031519180439E-01 -6.2475087625780E-01
   115  1.1400000000000E+00 -2.7067623900754E-01 -5.5250218774503E-01
   116  1.1500000000000E+00 -2.8013952105155E-01 -4.7544406781630E-01
   117  1.1600000000000E+00 -2.8871188929035E-01 -3.9388320616987E-01
   118  1.1700000000000E+00 -2.9640043038697E-01 -3.0818685348535E-01
   119  1.1800000000000E+00 -3.0321246322562E-01 -2.1878079235330E-01
   120  1.1900000000000E+00 -3.0915555665957E-01 -1.2614647278630E-01
   121  1.2000000000000E+00 -3.1423756758996E-01 -3.0817332008746E-02
   122  1.2100000000000E+00 -3.1846669854644E-01  6.6625670107809E-02
   123  1.2200000000000E+00 -3.2185157362472E-01  1.6555925716727E-01
   124  1.2300000000000E+00 -3.2440133133511E-01  2.6532373020578E-01
   125  1.2400000000000E+00 -3.2612573263091E-01  3.6522948531101E-01
   126  1.2500000000000E+00 -3.2703528212401E-01  4.6456408112088E-01
   127  1.2600000000000E+00 -3.2714136025869E-01  5.6259977364362E-01
   128  1.2700000000000E+00 -3.2645636400671E-01  6.5860142807198E-01
   129  1.2800000000000E+00 -3.2499385347315E-01  7.5183471067735E-01
   130  1.2900000000000E+00 -3.2276870166247E-01  8.4157445848532E-01
   131  1.3000000000000E+00 -3.1979724455283E-01  9.2711312039708E-01
   132  1.3100000000000E+00 -3.1609742856416E-01  1.0077691607971E+00
   133  1.3200000000000E+00 -3.1168895248385E-01  1.0828953155025E+00
   134  1.3300000000000E+00 -3.0659340093349E-01  1.1518865902268E+00
   135  1.3400000000000E+00 -3.0083436652128E-01  1.2141878935512E+00
   136  1.3500000000000E+00 -2.9443755792690E-01  1.2693011996898E+00
   137  1.3600000000000E+00 -2.8743089130802E-01  1.3167921411194E+00
   138  1.3700000000000E+00 -2.7984456259877E-01  1.3562959373247E+00
   139  1.3800000000000E+00 -2.7171109848782E-01  1.3875225734448E+00
   140  1.3900000000000E+00 -2.6306538411480E-01  1.4102611513640E+00
   141  1.4000000000000E+00 -2.5394466580628E-01  1.4243833457415E+00
   142  1.4100000000000E+00 -2.4438852748183E-01  1.4298459084155E+00
   143  1.4200000000000E+00 -2.3443883969303E-01  1.4266921764342E+00
   144  1.4300000000000E+00 -2.2413968061076E-01  1.4150525515544E+00
   145  1.4400000000000E+00 -2.1353722864064E-01  1.3951439321108E+00
   146  1.4500000000000E+00 -2.0267962672370E-01  1.3672680917392E+00
   147  1.4600000000000E+00 -1.9161681875891E-01  1.3318090131202E+00
   148  1.4700000000000E+00 -1.8040035896380E-01  1.2892291986668E+00
   149  1.4800000000000E+00 -1.6908319536364E-01  1.2400649936715E+00
   150  1.4900000000000E+00 -1.5771942896328E-01  1.1849209706821E+00
   151  1.5000000000000E+00 -1.4636405050288E-01  1.1244634365796E+00
   152  1.5100000000000E+00 -1.3507265702632E-01  1.0594131358594E+00
   153  1.5200000000000E+00 -1.2390115079356E-01  9.9053723478098E-01
   154  1.5300000000000E+00 -1.1290542334058E-01  9.1864068116117E-01
   155  1.5400000000000E+00 -1.0214102773059E-01  8.4455704355367E-01
   156  1.5500000000000E+00 -9.1662842243407E-02  7.6913894122688E-01
   157  1.5600000000000E+00 -8.1524728913473E-02  6.9324818261117E-01
   158  1.5700000000000E+00 -7.1779190448654E-02  6.1774573465211E-01
   159  1.5800000000000E+00 -6.2477029139667E-02  5.4348164870203E-01
   160  1.5900000000000E+00 -5.3667011373058E-02  4.7128507318850E-01
   161  1.6000000000000E+00 -4.5395541825803E-02  4.0195444145509E-01
   162  1.6100000000000E+00 -3.7706348348654E-02  3.3624811842636E-01
   163  1.6200000000000E+00 -3.0640189583971E-02  2.7487543656799E-01
   164  1.6300000000000E+00 -2.4234724165763E-02  2.1847098717347E-01
   165  1.6400000000000E+00 -1.8524101747190E-02  1.6759049742968E-01
   166  1.6500000000000E+00 -1.3538226169948E-02  1.2276695944900E-01
   167  1.6600000000000E+00 -9.3032307439833E-03  8.4453249513282E-02
   168  1.6700000000000E+00 -5.8412671544026E-03  5.3016521225984E-02
   169  1.6800000000000E+00 -3.1709965741462E-03  2.8739596956462E-02
   170  1.6900000000000E+00 -1.3005183105286E-03  1.1755933799026E-02
   171  1.7000000000000E+00 -2.6224792527458E-04  2.3611800340291E-03
   172  1.7100000000000E+00  1.7297433663475E-05 -1.5523317171420E-04
   173  1.7200000000000E+00 -4.1487140066506E-06  3.7298546092953E-05
   174  1.73  0.  0.
   175  1.74  0.  0.
   176  1.75  0.  0.
   177  1.76  0.  0.
   178  1.77  0.  0.
   179  1.78  0.  0.
   180  1.79  0.  0.
   181  1.80  0.  0.
   182  1.81  0.  0.
   183  1.82  0.  0.
   184  1.83  0.  0.
   185  1.84  0.  0.
   186  1.85  0.  0.
   187  1.86  0.  0.
   188  1.87  0.  0.
   189  1.88  0.  0.
   190  1.89  0.  0.
   191  1.90  0.  0.
   192  1.91  0.  0.
   193  1.92  0.  0.
   194  1.93  0.  0.
   195  1.94  0.  0.
   196  1.95  0.  0.
   197  1.96  0.  0.
   198  1.97  0.  0.
   199  1.98  0.  0.
   200  1.99  0.  0.
   201  2.00  0.  0.
   202  2.01  0.  0.
   203  2.02  0.  0.
   204  2.03  0.  0.
   205  2.04  0.  0.
   206  2.05  0.  0.
   207  2.06  0.  0.
   208  2.07  0.  0.
   209  2.08  0.  0.
   210  2.09  0.  0.
   211  2.10  0.  0.
   212  2.11  0.  0.
   213  2.12  0.  0.
   214  2.13  0.  0.
   215  2.14  0.  0.
   216  2.15  0.  0.
   217  2.16  0.  0.
   218  2.17  0.  0.
   219  2.18  0.  0.
   220  2.19  0.  0.
   221  2.20  0.  0.
   222  2.21  0.  0.
   223  2.22  0.  0.
   224  2.23  0.  0.
   225  2.24  0.  0.
   226  2.25  0.  0.
   227  2.26  0.  0.
   228  2.27  0.  0.
   229  2.28  0.  0.
   230  2.29  0.  0.
   231  2.30  0.  0.
   232  2.31  0.  0.
   233  2.32  0.  0.
   234  2.33  0.  0.
   235  2.34  0.  0.
   236  2.35  0.  0.
   237  2.36  0.  0.
   238  2.37  0.  0.
   239  2.38  0.  0.
   240  2.39  0.  0.
   241  2.40  0.  0.
   242  2.41  0.  0.
   243  2.42  0.  0.
   244  2.43  0.  0.
   245  2.44  0.  0.
   246  2.45  0.  0.
   247  2.46  0.  0.
   248  2.47  0.  0.
   249  2.48  0.  0.
   250  2.49  0.  0.
   251  2.50  0.  0.
   252  2.51  0.  0.
   253  2.52  0.  0.
   254  2.53  0.  0.
   255  2.54  0.  0.
   256  2.55  0.  0.
   257  2.56  0.  0.
   258  2.57  0.  0.
   259  2.58  0.  0.
   260  2.59  0.  0.
   261  2.60  0.  0.
   262  2.61  0.  0.
   263  2.62  0.  0.
   264  2.63  0.  0.
   265  2.64  0.  0.
   266  2.65  0.  0.
   267  2.66  0.  0.
   268  2.67  0.  0.
   269  2.68  0.  0.
   270  2.69  0.  0.
   271  2.70  0.  0.
   272  2.71  0.  0.
   273  2.72  0.  0.
   274  2.73  0.  0.
   275  2.74  0.  0.
   276  2.75  0.  0.
   277  2.76  0.  0.
   278  2.77  0.  0.
   279  2.78  0.  0.
   280  2.79  0.  0.
   281  2.80  0.  0.
   282  2.81  0.  0.
   283  2.82  0.  0.
   284  2.83  0.  0.
   285  2.84  0.  0.
   286  2.85  0.  0.
   287  2.86  0.  0.
   288  2.87  0.  0.
   289  2.88  0.  0.
   290  2.89  0.  0.
   291  2.90  0.  0.
   292  2.91  0.  0.
   293  2.92  0.  0.
   294  2.93  0.  0.
   295  2.94  0.  0.
   296  2.95  0.  0.
   297  2.96  0.  0.
   298  2.97  0.  0.
   299  2.98  0.  0.
   300  2.99  0.  0.
   301  3.00  0.  0.
   302  3.01  0.  0.
   303  3.02  0.  0.
   304  3.03  0.  0.
   305  3.04  0.  0.
   306  3.05  0.  0.
   307  3.06  0.  0.
   308  3.07  0.  0.
   309  3.08  0.  0.
   310  3.09  0.  0.
   311  3.10  0.  0.
   312  3.11  0.  0.
   313  3.12  0.  0.
   314  3.13  0.  0.
   315  3.14  0.  0.
   316  3.15  0.  0.
   317  3.16  0.  0.
   318  3.17  0.  0.
   319  3.18  0.  0.
   320  3.19  0.  0.
   321  3.20  0.  0.
   322  3.21  0.  0.
   323  3.22  0.  0.
   324  3.23  0.  0.
   325  3.24  0.  0.
   326  3.25  0.  0.
   327  3.26  0.  0.
   328  3.27  0.  0.
   329  3.28  0.  0.
   330  3.29  0.  0.
   331  3.30  0.  0.
   332  3.31  0.  0.
   333  3.32  0.  0.
   334  3.33  0.  0.
   335  3.34  0.  0.
   336  3.35  0.  0.
   337  3.36  0.  0.
   338  3.37  0.  0.
   339  3.38  0.  0.
   340  3.39  0.  0.
   341  3.40  0.  0.
   342  3.41  0.  0.
   343  3.42  0.  0.
   344  3.43  0.  0.
   345  3.44  0.  0.
   346  3.45  0.  0.
   347  3.46  0.  0.
   348  3.47  0.  0.
   349  3.48  0.  0.
   350  3.49  0.  0.
   351  3.50  0.  0.
   352  3.51  0.  0.
   353  3.52  0.  0.
   354  3.53  0.  0.
   355  3.54  0.  0.
   356  3.55  0.  0.
   357  3.56  0.  0.
   358  3.57  0.  0.
   359  3.58  0.  0.
   360  3.59  0.  0.
   361  3.60  0.  0.
   362  3.61  0.  0.
   363  3.62  0.  0.
   364  3.63  0.  0.
   365  3.64  0.  0.
   366  3.65  0.  0.
   367  3.66  0.  0.
   368  3.67  0.  0.
   369  3.68  0.  0.
   370  3.69  0.  0.
   371  3.70  0.  0.
   372  3.71  0.  0.
   373  3.72  0.  0.
   374  3.73  0.  0.
   375  3.74  0.  0.
   376  3.75  0.  0.
   377  3.76  0.  0.
   378  3.77  0.  0.
   379  3.78  0.  0.
   380  3.79  0.  0.
   381  3.80  0.  0.
   382  3.81  0.  0.
   383  3.82  0.  0.
   384  3.83  0.  0.
   385  3.84  0.  0.
   386  3.85  0.  0.
   387  3.86  0.  0.
   388  3.87  0.  0.
   389  3.88  0.  0.
   390  3.89  0.  0.
   391  3.90  0.  0.
   392  3.91  0.  0.
   393  3.92  0.  0.
   394  3.93  0.  0.
   395  3.94  0.  0.
   396  3.95  0.  0.
   397  3.96  0.  0.
   398  3.97  0.  0.
   399  3.98  0.  0.
   400  3.99  0.  0.
   401  4.00  0.  0.
   402  4.01  0.  0.
   403  4.02  0.  0.
   404  4.03  0.  0.
   405  4.04  0.  0.
   406  4.05  0.  0.
   407  4.06  0.  0.
   408  4.07  0.  0.
   409  4.08  0.  0.
   410  4.09  0.  0.
   411  4.10  0.  0.
   412  4.11  0.  0.
   413  4.12  0.  0.
   414  4.13  0.  0.
   415  4.14  0.  0.
   416  4.15  0.  0.
   417  4.16  0.  0.
   418  4.17  0.  0.
   419  4.18  0.  0.
   420  4.19  0.  0.
   421  4.20  0.  0.
   422  4.21  0.  0.
   423  4.22  0.  0.
   424  4.23  0.  0.
   425  4.24  0.  0.
   426  4.25  0.  0.
   427  4.26  0.  0.
   428  4.27  0.  0.
   429  4.28  0.  0.
   430  4.29  0.  0.
   431  4.30  0.  0.
   432  4.31  0.  0.
   433  4.32  0.  0.
   434  4.33  0.  0.
   435  4.34  0.  0.
   436  4.35  0.  0.
   437  4.36  0.  0.
   438  4.37  0.  0.
   439  4.38  0.  0.
   440  4.39  0.  0.
   441  4.40  0.  0.
   442  4.41  0.  0.
   443  4.42  0.  0.
   444  4.43  0.  0.
   445  4.44  0.  0.
   446  4.45  0.  0.
   447  4.46  0.  0.
   448  4.47  0.  0.
   449  4.48  0.  0.
   450  4.49  0.  0.
   451  4.50  0.  0.
   452  4.51  0.  0.
   453  4.52  0.  0.
   454  4.53  0.  0.
   455  4.54  0.  0.
   456  4.55  0.  0.
   457  4.56  0.  0.
   458  4.57  0.  0.
   459  4.58  0.  0.
   460  4.59  0.  0.
   461  4.60  0.  0.
   462  4.61  0.  0.
   463  4.62  0.  0.
   464  4.63  0.  0.
   465  4.64  0.  0.
   466  4.65  0.  0.
   467  4.66  0.  0.
   468  4.67  0.  0.
   469  4.68  0.  0.
   470  4.69  0.  0.
   471  4.70  0.  0.
   472  4.71  0.  0.
   473  4.72  0.  0.
   474  4.73  0.  0.
   475  4.74  0.  0.
   476  4.75  0.  0.
   477  4.76  0.  0.
   478  4.77  0.  0.
   479  4.78  0.  0.
   480  4.79  0.  0.
   481  4.80  0.  0.
   482  4.81  0.  0.
   483  4.82  0.  0.
   484  4.83  0.  0.
   485  4.84  0.  0.
   486  4.85  0.  0.
   487  4.86  0.  0.
   488  4.87  0.  0.
   489  4.88  0.  0.
   490  4.89  0.  0.
   491  4.90  0.  0.
   492  4.91  0.  0.
   493  4.92  0.  0.
   494  4.93  0.  0.
   495  4.94  0.  0.
   496  4.95  0.  0.
   497  4.96  0.  0.
   498  4.97  0.  0.
   499  4.98  0.  0.
   500  4.99  0.  0.
   501  5.00  0.  0.
   502  5.01  0.  0.
   503  5.02  0.  0.
   504  5.03  0.  0.
   505  5.04  0.  0.
   506  5.05  0.  0.
   507  5.06  0.  0.
   508  5.07  0.  0.
   509  5.08  0.  0.
   510  5.09  0.  0.
   511  5.10  0.  0.
   512  5.11  0.  0.
   513  5.12  0.  0.
   514  5.13  0.  0.
   515  5.14  0.  0.
   516  5.15  0.  0.
   517  5.16  0.  0.
   518  5.17  0.  0.
   519  5.18  0.  0.
   520  5.19  0.  0.
   521  5.20  0.  0.
   522  5.21  0.  0.
   523  5.22  0.  0.
   524  5.23  0.  0.
   525  5.24  0.  0.
   526  5.25  0.  0.
   527  5.26  0.  0.
   528  5.27  0.  0.
   529  5.28  0.  0.
   530  5.29  0.  0.
   531  5.30  0.  0.
   532  5.31  0.  0.
   533  5.32  0.  0.
   534  5.33  0.  0.
   535  5.34  0.  0.
   536  5.35  0.  0.
   537  5.36  0.  0.
   538  5.37  0.  0.
   539  5.38  0.  0.
   540  5.39  0.  0.
   541  5.40  0.  0.
   542  5.41  0.  0.
   543  5.42  0.  0.
   544  5.43  0.  0.
   545  5.44  0.  0.
   546  5.45  0.  0.
   547  5.46  0.  0.
   548  5.47  0.  0.
   549  5.48  0.  0.
   550  5.49  0.  0.
   551  5.50  0.  0.
   552  5.51  0.  0.
   553  5.52  0.  0.
   554  5.53  0.  0.
   555  5.54  0.  0.
   556  5.55  0.  0.
   557  5.56  0.  0.
   558  5.57  0.  0.
   559  5.58  0.  0.
   560  5.59  0.  0.
   561  5.60  0.  0.
   562  5.61  0.  0.
   563  5.62  0.  0.
   564  5.63  0.  0.
   565  5.64  0.  0.
   566  5.65  0.  0.
   567  5.66  0.  0.
   568  5.67  0.  0.
   569  5.68  0.  0.
   570  5.69  0.  0.
   571  5.70  0.  0.
   572  5.71  0.  0.
   573  5.72  0.  0.
   574  5.73  0.  0.
   575  5.74  0.  0.
   576  5.75  0.  0.
   577  5.76  0.  0.
   578  5.77  0.  0.
   579  5.78  0.  0.
   580  5.79  0.  0.
   581  5.80  0.  0.
   582  5.81  0.  0.
   583  5.82  0.  0.
   584  5.83  0.  0.
   585  5.84  0.  0.
   586  5.85  0.  0.
   587  5.86  0.  0.
   588  5.87  0.  0.
   589  5.88  0.  0.
   590  5.89  0.  0.
   591  5.90  0.  0.
   592  5.91  0.  0.
   593  5.92  0.  0.
   594  5.93  0.  0.
   595  5.94  0.  0.
   596  5.95  0.  0.
   597  5.96  0.  0.
   598  5.97  0.  0.
   599  5.98  0.  0.
   600  5.99  0.  0.
   1                         6.9845997019427E+00  8.1204939009264E-01 -2.1466968284071E-02
     1  0.0000000000000E+00 -2.7920483286481E-09  4.9350127864431E-09 -1.0365527120665E-08
     2  1.0000000000000E-02  1.1462200801006E-03 -7.6855300445671E-05 -4.0385547134859E-04
     3  2.0000000000000E-02  4.5844141851324E-03 -3.1122976065915E-04 -1.6005915801113E-03
     4  3.0000000000000E-02  1.0313113073944E-02 -7.1441669899138E-04 -3.5460351396330E-03
     5  4.0000000000000E-02  1.8329633535612E-02 -1.3048000277035E-03 -6.1676172364040E-03
     6  5.0000000000000E-02  2.8629732392334E-02 -2.1072069522576E-03 -9.3659318199283E-03
     7  6.0000000000000E-02  4.1207133423370E-02 -3.1520218010450E-03 -1.3016876104069E-02
     8  7.0000000000000E-02  5.6052938269062E-02 -4.4740805681017E-03 -1.6974332058015E-02
     9  8.0000000000000E-02  7.3154935166057E-02 -6.1113706863746E-03 -2.1073337899476E-02
    10  9.0000000000000E-02  9.2496821890470E-02 -8.1035650063562E-03 -2.5133689061738E-02
    11  1.0000000000000E-01  1.1405736149568E-01 -1.0490422845846E-02 -2.8963899754932E-02
    12  1.1000000000000E-01  1.3780949128209E-01 -1.3310094224024E-02 -3.2365449142654E-02
    13  1.2000000000000E-01  1.6371940689046E-01 -1.6597365930324E-02 -3.5137230427250E-02
    14  1.3000000000000E-01  1.9174564443873E-01 -2.0381889854030E-02 -3.7080116894129E-02
    15  1.4000000000000E-01  2.2183818420207E-01 -2.4686434974309E-02 -3.8001556288119E-02
    16  1.5000000000000E-01  2.5393759945407E-01 -2.9525204559971E-02 -3.7720103830283E-02
    17  1.6000000000000E-01  2.8797427373717E-01 -3.4902259444123E-02 -3.6069804763404E-02
    18  1.7000000000000E-01  3.2386770901623E-01 -4.0810086728164E-02 -3.2904339527599E-02
    19  1.8000000000000E-01  3.6152594590281E-01 -4.7228350956070E-02 -2.8100848485931E-02
    20  1.9000000000000E-01  4.0084511543769E-01 -5.4122861719547E-02 -2.1563358478265E-02
    21  2.0000000000000E-01  4.4170913981556E-01 -6.1444787860716E-02 -1.3225740289808E-02
    22  2.1000000000000E-01  4.8398959696298E-01 -6.9130143998082E-02 -3.0541342697941E-03
    23  2.2000000000000E-01  5.2754576108163E-01 -7.7099570090098E-02  8.9512093250242E-03
    24  2.3000000000000E-01  5.7222482819333E-01 -8.5258419260789E-02  2.2754718306679E-02
    25  2.4000000000000E-01  6.1786233242439E-01 -9.3497163241155E-02  3.8284946665033E-02
    26  2.5000000000000E-01  6.6428275530477E-01 -1.0169211863699E-01  5.5434702728678E-02
    27  2.6000000000000E-01  7.1130032679388E-01 -1.0970649093017E-01  7.4061864954452E-02
    28  2.7000000000000E-01  7.5872001314443E-01 -1.1739172677586E-01  9.3990880345581E-02
    29  2.8000000000000E-01  8.0633868314465E-01 -1.2458915888870E-01  1.1501492791245E-01
    30  2.9000000000000E-01  8.5394644080386E-01 -1.3113192173937E-01  1.3689871721751E-01
    31  3.0000000000000E-01  9.0132810923048E-01 -1.3684711052176E-01  1.5938188010978E-01
    32  3.1000000000000E-01  9.4826484735902E-01 -1.4155815051614E-01  1.8218290246981E-01
    33  3.2000000000000E-01  9.9453587837199E-01 -1.4508733916733E-01  2.0500353235604E-01
    34  3.3000000000000E-01  1.0399203061883E+00 -1.4725851901894E-01  2.2753359156489E-01
    35  3.4000000000000E-01  1.0841989943020E+00 -1.4789983617897E-01  2.4945610945631E-01
    36  3.5000000000000E-01  1.1271564795944E+00 -1.4684653631555E-01  2.7045269111565E-01
    37  3.6000000000000E-01  1.1685828925485E+00 -1.4394374835406E-01  2.9020902664597E-01
    38  3.7000000000000E-01  1.2082758545896E+00 -1.3904920511420E-01  3.0842044472255E-01
    39  3.8000000000000E-01  1.2460423230825E+00 -1.3203585012046E-01  3.2479741156760E-01
    40  3.9000000000000E-01  1.2817003548434E+00 -1.2279428075363E-01  3.3907087626880E-01
    41  4.0000000000000E-01  1.3150807598747E+00 -1.1123497978363E-01  3.5099736488944E-01
    42  4.1000000000000E-01  1.3460286183922E+00 -9.7290290114786E-02  3.6036372908655E-01
    43  4.2000000000000E-01  1.3744046360729E+00 -8.0916091246925E-02  3.6699145992710E-01
    44  4.3000000000000E-01  1.4000863147820E+00 -6.2093140457101E-02  3.7074048419652E-01
    45  4.4000000000000E-01  1.4229689187967E+00 -4.0828046968448E-02  3.7151236862740E-01
    46  4.5000000000000E-01  1.4429662196996E+00 -1.7153853311433E-02  3.6925286701237E-01
    47  4.6000000000000E-01  1.4600110066083E+00  8.8697953974898E-03  3.6395375594599E-01
    48  4.7000000000000E-01  1.4740553521829E+00  3.7156906542649E-02  3.5565391679268E-01
    49  4.8000000000000E-01  1.4850706288494E+00  6.7595824397433E-02  3.4443963420021E-01
    50  4.9000000000000E-01  1.4930472738280E+00  1.0005034117574E-01  3.3044409486079E-01
    51  5.0000000000000E-01  1.4979943057807E+00  1.3436122443735E-01  3.1384608403295E-01
    52  5.1000000000000E-01  1.4999386001346E+00  1.7034814290756E-01  2.9486789134394E-01
    53  5.2000000000000E-01  1.4989239343036E+00  2.0781196531723E-01  2.7377245134946E-01
    54  5.3000000000000E-01  1.4950098180638E+00  2.4653739972945E-01  2.5085975799296E-01
    55  5.4000000000000E-01  1.4882701281512E+00  2.8629593412333E-01  2.2646260523926E-01
    56  5.5000000000000E-01  1.4787915696830E+00  3.2684903288372E-01  2.0094171852368E-01
    57  5.6000000000000E-01  1.4666719901863E+00  3.6795153841353E-01  1.7468035303460E-01
    58  5.7000000000000E-01  1.4520185747892E+00  4.0935522245320E-01  1.4807844502789E-01
    59  5.8000000000000E-01  1.4349459534383E+00  4.5081242795522E-01  1.2154641116741E-01
    60  5.9000000000000E-01  1.4155742528016E+00  4.9207973960043E-01  9.5498698127641E-02
    61  6.0000000000000E-01  1.3940271267653E+00  5.3292161932582E-01  7.0347190245827E-02
    62  6.1000000000000E-01  1.3704298000990E+00  5.7311394260662E-01  4.6494586750493E-02
    63  6.2000000000000E-01  1.3449071599354E+00  6.1244737173065E-01  2.4327861946999E-02
    64  6.3000000000000E-01  1.3175819291686E+00  6.5073050393046E-01  4.2119216467759E-03
    65  6.4000000000000E-01  1.2885729547337E+00  6.8779273499121E-01 -1.3516432926434E-02
    66  6.5000000000000E-01  1.2579936419830E+00  7.2348678280079E-01 -2.8554126520330E-02
    67  6.6000000000000E-01  1.2259505640619E+00  7.5769082020558E-01 -4.0636915198631E-02
    68  6.7000000000000E-01  1.1925422723251E+00  7.9031017241577E-01 -4.9543882034077E-02
    69  6.8000000000000E-01  1.1578583304810E+00  8.2127854098120E-01 -5.5101238963966E-02
    70  6.9000000000000E-01  1.1219785913383E+00  8.5055872393201E-01 -5.7185361607591E-02
    71  7.0000000000000E-01  1.0849727308386E+00  8.7814280993235E-01 -5.5724996223386E-02
    72  7.1000000000000E-01  1.0469000495371E+00  9.0405183309565E-01 -5.0702591549619E-02
    73  7.2000000000000E-01  1.0078095469286E+00  9.2833488431910E-01 -4.2154722818882E-02
    74  7.3000000000000E-01  9.6774026908258E-01  9.5106768445693E-01 -3.0171590509547E-02
    75  7.4000000000000E-01  9.2672192502667E-01  9.7235063421223E-01 -1.4895592155887E-02
    76  7.5000000000000E-01  8.8477576230171E-01  9.9230636511937E-01  3.4810184867526E-03
    77  7.6000000000000E-01  8.4191568717408E-01  1.0110768252513E+00  2.4719354709910E-02
    78  7.7000000000000E-01  7.9814961023404E-01  1.0288199421539E+00  4.8537956746764E-02
    79  7.8000000000000E-01  7.5348099360674E-01  1.0457059138269E+00  7.4617627500551E-02
    80  7.9000000000000E-01  7.0791057184461E-01  1.0619131861753E+00  1.0260696917538E-01
    81  8.0000000000000E-01  6.6143821482777E-01  1.0776241821228E+00  1.3212853286733E-01
    82  8.1000000000000E-01  6.1406489774989E-01  1.0930208533536E+00  1.6278548149494E-01
    83  8.2000000000000E-01  5.6579474056860E-01  1.1082801303378E+00  1.9416865634404E-01
    84  8.3000000000000E-01  5.1663707721397E-01  1.1235693497814E+00  2.2586392914250E-01
    85  8.4000000000000E-01  4.6660851341659E-01  1.1390417408535E+00  2.5745971513827E-01
    86  8.5000000000000E-01  4.1573493127730E-01  1.1548320524137E+00  2.8855451826209E-01
    87  8.6000000000000E-01  3.6405339867755E-01  1.1710524029529E+00  3.1876437720266E-01
    88  8.7000000000000E-01  3.1161394233362E-01  1.1877884330578E+00  3.4773008118991E-01
    89  8.8000000000000E-01  2.5848114473325E-01  1.2050958369127E+00  3.7512402647388E-01
    90  8.9000000000000E-01  2.0473552734491E-01  1.2229973446923E+00  4.0065658891437E-01
    91  9.0000000000000E-01  1.5047468533574E-01  1.2414802217380E+00  4.2408189469705E-01
    92  9.1000000000000E-01  9.5814142537874E-02  1.2604943432045E+00  4.4520287988667E-01