Cd    ONCVPSP-4.0.1  r_core=   1.25713   1.30307   1.35069
     48.0000     20.0000      231019    zatom,zion,pspd
     8       2   2     4   600     0    pspcod,pspxc,lmax,lloc,mmax,r2well
  5.99000000  6.00000000  0.00000000    rchrg fchrg qchrg
     2     2     2     0     0    nproj
     1     1           extension_switch
   0                         4.3346396153076E+01  3.2188398398526E+00
     1  0.0000000000000E+00  1.4614141008451E-08 -2.8040720106981E-08
     2  1.0000000000000E-02  9.5830573347821E-02 -7.3816419671760E-03
     3  2.0000000000000E-02  1.9149517276388E-01 -1.4869120143610E-02
     4  3.0000000000000E-02  2.8682411250184E-01 -2.2560011987861E-02
     5  4.0000000000000E-02  3.8164041961613E-01 -3.0535640919245E-02
     6  5.0000000000000E-02  4.7575652751837E-01 -3.8853600432720E-02
     7  6.0000000000000E-02  5.6897136325636E-01 -4.7541038724257E-02
     8  7.0000000000000E-02  6.6106794196914E-01 -5.6588923195962E-02
     9  8.0000000000000E-02  7.5181156735748E-01 -6.5947476169486E-02
    10  9.0000000000000E-02  8.4094871951135E-01 -7.5522939567498E-02
    11  1.0000000000000E-01  9.2820669153730E-01 -8.5175788156546E-02
    12  1.1000000000000E-01  1.0132940146785E+00 -9.4720469236472E-02
    13  1.2000000000000E-01  1.0959016886203E+00 -1.0392670257169E-01
    14  1.3000000000000E-01  1.1757052100634E+00 -1.1252232911259E-01
    15  1.4000000000000E-01  1.2523673690749E+00 -1.2019765191441E-01
    16  1.5000000000000E-01  1.3255417598655E+00 -1.2661116888739E-01
    17  1.6000000000000E-01  1.3948769311065E+00 -1.3139655583662E-01
    18  1.7000000000000E-01  1.4600210813218E+00 -1.3417072083252E-01
    19  1.8000000000000E-01  1.5206271878036E+00 -1.3454271835783E-01
    20  1.9000000000000E-01  1.5763584434016E+00 -1.3212328483665E-01
    21  2.0000000000000E-01  1.6268938648289E+00 -1.2653473684556E-01
    22  2.1000000000000E-01  1.6719339291294E+00 -1.1742096013745E-01
    23  2.2000000000000E-01  1.7112060918792E+00 -1.0445721198469E-01
    24  2.3000000000000E-01  1.7444700416479E+00 -8.7359461470783E-02
    25  2.4000000000000E-01  1.7715225502361E+00 -6.5893002217565E-02
    26  2.5000000000000E-01  1.7922017871079E+00 -3.9880089405332E-02
    27  2.6000000000000E-01  1.8063909790376E+00 -9.2063773898456E-03
    28  2.7000000000000E-01  1.8140213119612E+00  2.6174034885986E-02
    29  2.8000000000000E-01  1.8150739909482E+00  6.6235106963522E-02
    30  2.9000000000000E-01  1.8095813955850E+00  1.1087702351824E-01
    31  3.0000000000000E-01  1.7976272913115E+00  1.5992609495647E-01
    32  3.1000000000000E-01  1.7793460817555E+00  2.1313641527053E-01
    33  3.2000000000000E-01  1.7549211121890E+00  2.7019325237021E-01
    34  3.3000000000000E-01  1.7245820592055E+00  3.3071809830376E-01
    35  3.4000000000000E-01  1.6886014658954E+00  3.9427526060282E-01
    36  3.5000000000000E-01  1.6472905045022E+00  4.6037983272719E-01
    37  3.6000000000000E-01  1.6009940691411E+00  5.2850684247611E-01
    38  3.7000000000000E-01  1.5500853190675E+00  5.9810134340139E-01
    39  3.8000000000000E-01  1.4949598076798E+00  6.6858918668693E-01
    40  3.9000000000000E-01  1.4360293435009E+00  7.3938819047967E-01
    41  4.0000000000000E-01  1.3737157364672E+00  8.0991941090122E-01
    42  4.1000000000000E-01  1.3084445857432E+00  8.7961821436914E-01
    43  4.2000000000000E-01  1.2406392638506E+00  9.4794485461650E-01
    44  4.3000000000000E-01  1.1707152461725E+00  1.0143942699003E+00
    45  4.4000000000000E-01  1.0990749249728E+00  1.0785048360768E+00
    46  4.5000000000000E-01  1.0261030332199E+00  1.1398658390164E+00
    47  4.6000000000000E-01  9.5216278605747E-01  1.1981234645391E+00
    48  4.7000000000000E-01  8.7759282719028E-01  1.2529851447767E+00
    49  4.8000000000000E-01  8.0270504429769E-01  1.3042221455360E+00
    50  4.9000000000000E-01  7.2778329246884E-01  1.3516703286348E+00
    51  5.0000000000000E-01  6.5308303826773E-01  1.3952290749620E+00
    52  5.1000000000000E-01  5.7883191010665E-01  1.4348584067581E+00
    53  5.2000000000000E-01  5.0523111388781E-01  1.4705743998567E+00
    54  5.3000000000000E-01  4.3245764712201E-01  1.5024430268992E+00
    55  5.4000000000000E-01  3.6066722068516E-01  1.5305726194042E+00
    56  5.5000000000000E-01  2.8999777573226E-01  1.5551051786681E+00
    57  5.6000000000000E-01  2.2057346469037E-01  1.5762068015714E+00
    58  5.7000000000000E-01  1.5250895026829E-01  1.5940575163403E+00
    59  5.8000000000000E-01  8.5913865516635E-02  1.6088408442819E+00
    60  5.9000000000000E-01  2.0897271519418E-02  1.6207334157398E+00
    61  6.0000000000000E-01 -4.2428052463364E-02  1.6298949715536E+00
    62  6.1000000000000E-01 -1.0394164852859E-01  1.6364590749086E+00
    63  6.2000000000000E-01 -1.6351190361190E-01  1.6405248426665E+00
    64  6.3000000000000E-01 -2.2099319868608E-01  1.6421499803663E+00
    65  6.4000000000000E-01 -2.7622380856100E-01  1.6413453716192E+00
    66  6.5000000000000E-01 -3.2902465631827E-01  1.6380714313827E+00
    67  6.6000000000000E-01 -3.7919900210958E-01  1.6322363846077E+00
    68  6.7000000000000E-01 -4.2653311891865E-01  1.6236965782222E+00
    69  6.8000000000000E-01 -4.7079797864408E-01  1.6122588767451E+00
    70  6.9000000000000E-01 -5.1175194128727E-01  1.5976851315299E+00
    71  7.0000000000000E-01 -5.4914440896020E-01  1.5796986523588E+00
    72  7.1000000000000E-01 -5.8272037572257E-01  1.5579925495134E+00
    73  7.2000000000000E-01 -6.1222577478132E-01  1.5322397562256E+00
    74  7.3000000000000E-01 -6.3741349718840E-01  1.5021044872289E+00
    75  7.4000000000000E-01 -6.5804993165480E-01  1.4672548405333E+00
    76  7.5000000000000E-01 -6.7392185420645E-01  1.4273762080078E+00
    77  7.6000000000000E-01 -6.8484347979075E-01  1.3821851271297E+00
    78  7.7000000000000E-01 -6.9066347615396E-01  1.3314431824437E+00
    79  7.8000000000000E-01 -6.9127173377560E-01  1.2749705516890E+00
    80  7.9000000000000E-01 -6.8660568466206E-01  1.2126587887902E+00
    81  8.0000000000000E-01 -6.7665596751310E-01  1.1444824442548E+00
    82  8.1000000000000E-01 -6.6147124718106E-01  1.0705091429789E+00
    83  8.2000000000000E-01 -6.4116201228435E-01  9.9090776973753E-01
    84  8.3000000000000E-01 -6.1590319600554E-01  9.0595445313090E-01
    85  8.4000000000000E-01 -5.8593549104460E-01  8.1603608859341E-01
    86  8.5000000000000E-01 -5.5156525981782E-01  7.2165119911097E-01
    87  8.6000000000000E-01 -5.1316297457677E-01  6.2340799714233E-01
    88  8.7000000000000E-01 -4.7116015835157E-01  5.2201958132314E-01
    89  8.8000000000000E-01 -4.2604483559001E-01  4.1829627508608E-01
    90  8.9000000000000E-01 -3.7835554010449E-01  3.1313518948412E-01
    91  9.0000000000000E-01 -3.2867396644192E-01  2.0750716730188E-01
    92  9.1000000000000E-01 -2.7761638804439E-01  1.0244133801032E-01
    93  9.2000000000000E-01 -2.2582400056477E-01 -9.9241868653874E-04
    94  9.3000000000000E-01 -1.7395238048337E-01 -1.0170274091256E-01
    95  9.4000000000000E-01 -1.2266027684161E-01 -1.9859737032118E-01
    96  9.5000000000000E-01 -7.2597976675008E-02 -2.9060459673291E-01
    97  9.6000000000000E-01 -2.4395501892923E-02 -3.7669506905142E-01
    98  9.7000000000000E-01  2.1349093626074E-02 -4.5590345769739E-01
    99  9.8000000000000E-01  6.4081053483277E-02 -5.2734944433966E-01
   100  9.9000000000000E-01  1.0329960382311E-01 -5.9025751834562E-01
   101  1.0000000000000E+00  1.3856773224756E-01 -6.4397507627526E-01
   102  1.0100000000000E+00  1.6952081473081E-01 -6.8798835069932E-01
   103  1.0200000000000E+00  1.9587386703579E-01 -7.2193573705297E-01
   104  1.0300000000000E+00  2.1742722551259E-01 -7.4561814134736E-01
   105  1.0400000000000E+00  2.3407049592611E-01 -7.5900603613313E-01
   106  1.0500000000000E+00  2.4578464731360E-01 -7.6224298559371E-01
   107  1.0600000000000E+00  2.5264217003730E-01 -7.5564548155280E-01
   108  1.0700000000000E+00  2.5480526205558E-01 -7.3969901835312E-01
   109  1.0800000000000E+00  2.5252205394048E-01 -7.1505042398367E-01
   110  1.0900000000000E+00  2.4612093032198E-01 -6.8249655557065E-01
   111  1.1000000000000E+00  2.3600305177976E-01 -6.4296955658622E-01
   112  1.1100000000000E+00  2.2263322598407E-01 -5.9751895942216E-01
   113  1.1200000000000E+00  2.0652931854972E-01 -5.4729099731150E-01
   114  1.1300000000000E+00  1.8825043194112E-01 -4.9350556266297E-01
   115  1.1400000000000E+00  1.6838411356296E-01 -4.3743131220794E-01
   116  1.1500000000000E+00  1.4753288127308E-01 -3.8035947175305E-01
   117  1.1600000000000E+00  1.2630037505625E-01 -3.2357693302947E-01
   118  1.1700000000000E+00  1.0527745708013E-01 -2.6833926131823E-01
   119  1.1800000000000E+00  8.5028524293954E-02 -2.1584413306454E-01
   120  1.1900000000000E+00  6.6078872972229E-02 -1.6720671894917E-01
   121  1.2000000000000E+00  4.8884431399262E-02 -1.2340434825193E-01
   122  1.2100000000000E+00  3.3797225433967E-02 -8.5212756979390E-02
   123  1.2200000000000E+00  2.1193059408589E-02 -5.3428878679134E-02
   124  1.2300000000000E+00  1.1369388831773E-02 -2.8692249238886E-02
   125  1.2400000000000E+00  4.5314734165227E-03 -1.1460361084103E-02
   126  1.2500000000000E+00  7.8400296818598E-04 -1.9892911525297E-03
   127  1.2600000000000E+00 -4.2389835541474E-05  1.0787271342838E-04
   128  1.2700000000000E+00  9.4278192443701E-06 -2.3963340881789E-05
   129  1.28  0. -0.
   130  1.29  0.  0.
   131  1.30  0.  0.
   132  1.31  0.  0.
   133  1.32  0.  0.
   134  1.33  0.  0.
   135  1.34  0.  0.
   136  1.35  0.  0.
   137  1.36  0.  0.
   138  1.37  0.  0.
   139  1.38  0.  0.
   140  1.39  0.  0.
   141  1.40  0.  0.
   142  1.41  0.  0.
   143  1.42  0.  0.
   144  1.43  0.  0.
   145  1.44  0.  0.
   146  1.45  0.  0.
   147  1.46  0.  0.
   148  1.47  0.  0.
   149  1.48  0.  0.
   150  1.49  0.  0.
   151  1.50  0.  0.
   152  1.51  0.  0.
   153  1.52  0.  0.
   154  1.53  0.  0.
   155  1.54  0.  0.
   156  1.55  0.  0.
   157  1.56  0.  0.
   158  1.57  0.  0.
   159  1.58  0.  0.
   160  1.59  0.  0.
   161  1.60  0.  0.
   162  1.61  0.  0.
   163  1.62  0.  0.
   164  1.63  0.  0.
   165  1.64  0.  0.
   166  1.65  0.  0.
   167  1.66  0.  0.
   168  1.67  0.  0.
   169  1.68  0.  0.
   170  1.69  0.  0.
   171  1.70  0.  0.
   172  1.71  0.  0.
   173  1.72  0.  0.
   174  1.73  0.  0.
   175  1.74  0.  0.
   176  1.75  0.  0.
   177  1.76  0.  0.
   178  1.77  0.  0.
   179  1.78  0.  0.
   180  1.79  0.  0.
   181  1.80  0.  0.
   182  1.81  0.  0.
   183  1.82  0.  0.
   184  1.83  0.  0.
   185  1.84  0.  0.
   186  1.85  0.  0.
   187  1.86  0.  0.
   188  1.87  0.  0.
   189  1.88  0.  0.
   190  1.89  0.  0.
   191  1.90  0.  0.
   192  1.91  0.  0.
   193  1.92  0.  0.
   194  1.93  0.  0.
   195  1.94  0.  0.
   196  1.95  0.  0.
   197  1.96  0.  0.
   198  1.97  0.  0.
   199  1.98  0.  0.
   200  1.99  0.  0.
   201  2.00  0.  0.
   202  2.01  0.  0.
   203  2.02  0.  0.
   204  2.03  0.  0.
   205  2.04  0.  0.
   206  2.05  0.  0.
   207  2.06  0.  0.
   208  2.07  0.  0.
   209  2.08  0.  0.
   210  2.09  0.  0.
   211  2.10  0.  0.
   212  2.11  0.  0.
   213  2.12  0.  0.
   214  2.13  0.  0.
   215  2.14  0.  0.
   216  2.15  0.  0.
   217  2.16  0.  0.
   218  2.17  0.  0.
   219  2.18  0.  0.
   220  2.19  0.  0.
   221  2.20  0.  0.
   222  2.21  0.  0.
   223  2.22  0.  0.
   224  2.23  0.  0.
   225  2.24  0.  0.
   226  2.25  0.  0.
   227  2.26  0.  0.
   228  2.27  0.  0.
   229  2.28  0.  0.
   230  2.29  0.  0.
   231  2.30  0.  0.
   232  2.31  0.  0.
   233  2.32  0.  0.
   234  2.33  0.  0.
   235  2.34  0.  0.
   236  2.35  0.  0.
   237  2.36  0.  0.
   238  2.37  0.  0.
   239  2.38  0.  0.
   240  2.39  0.  0.
   241  2.40  0.  0.
   242  2.41  0.  0.
   243  2.42  0.  0.
   244  2.43  0.  0.
   245  2.44  0.  0.
   246  2.45  0.  0.
   247  2.46  0.  0.
   248  2.47  0.  0.
   249  2.48  0.  0.
   250  2.49  0.  0.
   251  2.50  0.  0.
   252  2.51  0.  0.
   253  2.52  0.  0.
   254  2.53  0.  0.
   255  2.54  0.  0.
   256  2.55  0.  0.
   257  2.56  0.  0.
   258  2.57  0.  0.
   259  2.58  0.  0.
   260  2.59  0.  0.
   261  2.60  0.  0.
   262  2.61  0.  0.
   263  2.62  0.  0.
   264  2.63  0.  0.
   265  2.64  0.  0.
   266  2.65  0.  0.
   267  2.66  0.  0.
   268  2.67  0.  0.
   269  2.68  0.  0.
   270  2.69  0.  0.
   271  2.70  0.  0.
   272  2.71  0.  0.
   273  2.72  0.  0.
   274  2.73  0.  0.
   275  2.74  0.  0.
   276  2.75  0.  0.
   277  2.76  0.  0.
   278  2.77  0.  0.
   279  2.78  0.  0.
   280  2.79  0.  0.
   281  2.80  0.  0.
   282  2.81  0.  0.
   283  2.82  0.  0.
   284  2.83  0.  0.
   285  2.84  0.  0.
   286  2.85  0.  0.
   287  2.86  0.  0.
   288  2.87  0.  0.
   289  2.88  0.  0.
   290  2.89  0.  0.
   291  2.90  0.  0.
   292  2.91  0.  0.
   293  2.92  0.  0.
   294  2.93  0.  0.
   295  2.94  0.  0.
   296  2.95  0.  0.
   297  2.96  0.  0.
   298  2.97  0.  0.
   299  2.98  0.  0.
   300  2.99  0.  0.
   301  3.00  0.  0.
   302  3.01  0.  0.
   303  3.02  0.  0.
   304  3.03  0.  0.
   305  3.04  0.  0.
   306  3.05  0.  0.
   307  3.06  0.  0.
   308  3.07  0.  0.
   309  3.08  0.  0.
   310  3.09  0.  0.
   311  3.10  0.  0.
   312  3.11  0.  0.
   313  3.12  0.  0.
   314  3.13  0.  0.
   315  3.14  0.  0.
   316  3.15  0.  0.
   317  3.16  0.  0.
   318  3.17  0.  0.
   319  3.18  0.  0.
   320  3.19  0.  0.
   321  3.20  0.  0.
   322  3.21  0.  0.
   323  3.22  0.  0.
   324  3.23  0.  0.
   325  3.24  0.  0.
   326  3.25  0.  0.
   327  3.26  0.  0.
   328  3.27  0.  0.
   329  3.28  0.  0.
   330  3.29  0.  0.
   331  3.30  0.  0.
   332  3.31  0.  0.
   333  3.32  0.  0.
   334  3.33  0.  0.
   335  3.34  0.  0.
   336  3.35  0.  0.
   337  3.36  0.  0.
   338  3.37  0.  0.
   339  3.38  0.  0.
   340  3.39  0.  0.
   341  3.40  0.  0.
   342  3.41  0.  0.
   343  3.42  0.  0.
   344  3.43  0.  0.
   345  3.44  0.  0.
   346  3.45  0.  0.
   347  3.46  0.  0.
   348  3.47  0.  0.
   349  3.48  0.  0.
   350  3.49  0.  0.
   351  3.50  0.  0.
   352  3.51  0.  0.
   353  3.52  0.  0.
   354  3.53  0.  0.
   355  3.54  0.  0.
   356  3.55  0.  0.
   357  3.56  0.  0.
   358  3.57  0.  0.
   359  3.58  0.  0.
   360  3.59  0.  0.
   361  3.60  0.  0.
   362  3.61  0.  0.
   363  3.62  0.  0.
   364  3.63  0.  0.
   365  3.64  0.  0.
   366  3.65  0.  0.
   367  3.66  0.  0.
   368  3.67  0.  0.
   369  3.68  0.  0.
   370  3.69  0.  0.
   371  3.70  0.  0.
   372  3.71  0.  0.
   373  3.72  0.  0.
   374  3.73  0.  0.
   375  3.74  0.  0.
   376  3.75  0.  0.
   377  3.76  0.  0.
   378  3.77  0.  0.
   379  3.78  0.  0.
   380  3.79  0.  0.
   381  3.80  0.  0.
   382  3.81  0.  0.
   383  3.82  0.  0.
   384  3.83  0.  0.
   385  3.84  0.  0.
   386  3.85  0.  0.
   387  3.86  0.  0.
   388  3.87  0.  0.
   389  3.88  0.  0.
   390  3.89  0.  0.
   391  3.90  0.  0.
   392  3.91  0.  0.
   393  3.92  0.  0.
   394  3.93  0.  0.
   395  3.94  0.  0.
   396  3.95  0.  0.
   397  3.96  0.  0.
   398  3.97  0.  0.
   399  3.98  0.  0.
   400  3.99  0.  0.
   401  4.00  0.  0.
   402  4.01  0.  0.
   403  4.02  0.  0.
   404  4.03  0.  0.
   405  4.04  0.  0.
   406  4.05  0.  0.
   407  4.06  0.  0.
   408  4.07  0.  0.
   409  4.08  0.  0.
   410  4.09  0.  0.
   411  4.10  0.  0.
   412  4.11  0.  0.
   413  4.12  0.  0.
   414  4.13  0.  0.
   415  4.14  0.  0.
   416  4.15  0.  0.
   417  4.16  0.  0.
   418  4.17  0.  0.
   419  4.18  0.  0.
   420  4.19  0.  0.
   421  4.20  0.  0.
   422  4.21  0.  0.
   423  4.22  0.  0.
   424  4.23  0.  0.
   425  4.24  0.  0.
   426  4.25  0.  0.
   427  4.26  0.  0.
   428  4.27  0.  0.
   429  4.28  0.  0.
   430  4.29  0.  0.
   431  4.30  0.  0.
   432  4.31  0.  0.
   433  4.32  0.  0.
   434  4.33  0.  0.
   435  4.34  0.  0.
   436  4.35  0.  0.
   437  4.36  0.  0.
   438  4.37  0.  0.
   439  4.38  0.  0.
   440  4.39  0.  0.
   441  4.40  0.  0.
   442  4.41  0.  0.
   443  4.42  0.  0.
   444  4.43  0.  0.
   445  4.44  0.  0.
   446  4.45  0.  0.
   447  4.46  0.  0.
   448  4.47  0.  0.
   449  4.48  0.  0.
   450  4.49  0.  0.
   451  4.50  0.  0.
   452  4.51  0.  0.
   453  4.52  0.  0.
   454  4.53  0.  0.
   455  4.54  0.  0.
   456  4.55  0.  0.
   457  4.56  0.  0.
   458  4.57  0.  0.
   459  4.58  0.  0.
   460  4.59  0.  0.
   461  4.60  0.  0.
   462  4.61  0.  0.
   463  4.62  0.  0.
   464  4.63  0.  0.
   465  4.64  0.  0.
   466  4.65  0.  0.
   467  4.66  0.  0.
   468  4.67  0.  0.
   469  4.68  0.  0.
   470  4.69  0.  0.
   471  4.70  0.  0.
   472  4.71  0.  0.
   473  4.72  0.  0.
   474  4.73  0.  0.
   475  4.74  0.  0.
   476  4.75  0.  0.
   477  4.76  0.  0.
   478  4.77  0.  0.
   479  4.78  0.  0.
   480  4.79  0.  0.
   481  4.80  0.  0.
   482  4.81  0.  0.
   483  4.82  0.  0.
   484  4.83  0.  0.
   485  4.84  0.  0.
   486  4.85  0.  0.
   487  4.86  0.  0.
   488  4.87  0.  0.
   489  4.88  0.  0.
   490  4.89  0.  0.
   491  4.90  0.  0.
   492  4.91  0.  0.
   493  4.92  0.  0.
   494  4.93  0.  0.
   495  4.94  0.  0.
   496  4.95  0.  0.
   497  4.96  0.  0.
   498  4.97  0.  0.
   499  4.98  0.  0.
   500  4.99  0.  0.
   501  5.00  0.  0.
   502  5.01  0.  0.
   503  5.02  0.  0.
   504  5.03  0.  0.
   505  5.04  0.  0.
   506  5.05  0.  0.
   507  5.06  0.  0.
   508  5.07  0.  0.
   509  5.08  0.  0.
   510  5.09  0.  0.
   511  5.10  0.  0.
   512  5.11  0.  0.
   513  5.12  0.  0.
   514  5.13  0.  0.
   515  5.14  0.  0.
   516  5.15  0.  0.
   517  5.16  0.  0.
   518  5.17  0.  0.
   519  5.18  0.  0.
   520  5.19  0.  0.
   521  5.20  0.  0.
   522  5.21  0.  0.
   523  5.22  0.  0.
   524  5.23  0.  0.
   525  5.24  0.  0.
   526  5.25  0.  0.
   527  5.26  0.  0.
   528  5.27  0.  0.
   529  5.28  0.  0.
   530  5.29  0.  0.
   531  5.30  0.  0.
   532  5.31  0.  0.
   533  5.32  0.  0.
   534  5.33  0.  0.
   535  5.34  0.  0.
   536  5.35  0.  0.
   537  5.36  0.  0.
   538  5.37  0.  0.
   539  5.38  0.  0.
   540  5.39  0.  0.
   541  5.40  0.  0.
   542  5.41  0.  0.
   543  5.42  0.  0.
   544  5.43  0.  0.
   545  5.44  0.  0.
   546  5.45  0.  0.
   547  5.46  0.  0.
   548  5.47  0.  0.
   549  5.48  0.  0.
   550  5.49  0.  0.
   551  5.50  0.  0.
   552  5.51  0.  0.
   553  5.52  0.  0.
   554  5.53  0.  0.
   555  5.54  0.  0.
   556  5.55  0.  0.
   557  5.56  0.  0.
   558  5.57  0.  0.
   559  5.58  0.  0.
   560  5.59  0.  0.
   561  5.60  0.  0.
   562  5.61  0.  0.
   563  5.62  0.  0.
   564  5.63  0.  0.
   565  5.64  0.  0.
   566  5.65  0.  0.
   567  5.66  0.  0.
   568  5.67  0.  0.
   569  5.68  0.  0.
   570  5.69  0.  0.
   571  5.70  0.  0.
   572  5.71  0.  0.
   573  5.72  0.  0.
   574  5.73  0.  0.
   575  5.74  0.  0.
   576  5.75  0.  0.
   577  5.76  0.  0.
   578  5.77  0.  0.
   579  5.78  0.  0.
   580  5.79  0.  0.
   581  5.80  0.  0.
   582  5.81  0.  0.
   583  5.82  0.  0.
   584  5.83  0.  0.
   585  5.84  0.  0.
   586  5.85  0.  0.
   587  5.86  0.  0.
   588  5.87  0.  0.
   589  5.88  0.  0.
   590  5.89  0.  0.
   591  5.90  0.  0.
   592  5.91  0.  0.
   593  5.92  0.  0.
   594  5.93  0.  0.
   595  5.94  0.  0.
   596  5.95  0.  0.
   597  5.96  0.  0.
   598  5.97  0.  0.
   599  5.98  0.  0.
   600  5.99  0.  0.
   1                         8.2585457967524E+00  1.1756689567324E+00
     1  0.0000000000000E+00 -1.8603133561390E-08  4.2068566560860E-08
     2  1.0000000000000E-02  2.3406657776430E-03 -2.8279763515386E-04
     3  2.0000000000000E-02  9.3586500735962E-03 -1.1450257359056E-03
     4  3.0000000000000E-02  2.1041605606458E-02 -2.6274083426251E-03
     5  4.0000000000000E-02  3.7367938698088E-02 -4.7952416070274E-03
     6  5.0000000000000E-02  5.8305329819093E-02 -7.7346246849691E-03
     7  6.0000000000000E-02  8.3808746653784E-02 -1.1547373334621E-02
     8  7.0000000000000E-02  1.1381803072260E-01 -1.6344799236981E-02
     9  8.0000000000000E-02  1.4825515720315E-01 -2.2240580124260E-02
    10  9.0000000000000E-02  1.8702128297179E-01 -2.9342980634953E-02
    11  1.0000000000000E-01  2.2999370953597E-01 -3.7746710268527E-02
    12  1.1000000000000E-01  2.7702289504472E-01 -4.7524721999460E-02
    13  1.2000000000000E-01  3.2792965268095E-01 -5.8720262426752E-02
    14  1.3000000000000E-01  3.8250267131664E-01 -7.1339481481458E-02
    15  1.4000000000000E-01  4.4049648835314E-01 -8.5344896705390E-02
    16  1.5000000000000E-01  5.0163003431746E-01 -1.0064998427937E-01
    17  1.6000000000000E-01  5.6558585431825E-01 -1.1711513695543E-01
    18  1.7000000000000E-01  6.3201009329111E-01 -1.3454518875959E-01
    19  1.8000000000000E-01  7.0051331060582E-01 -1.5268865896952E-01
    20  1.9000000000000E-01  7.7067216569387E-01 -1.7123881485030E-01
    21  2.0000000000000E-01  8.4203199059476E-01 -1.8983659555643E-01
    22  2.1000000000000E-01  9.1411023848606E-01 -2.0807538022203E-01
    23  2.2000000000000E-01  9.8640077016959E-01 -2.2550752339448E-01
    24  2.3000000000000E-01  1.0583789139638E+00 -2.4165252248635E-01
    25  2.4000000000000E-01  1.1295072093206E+00 -2.5600662666365E-01
    26  2.5000000000000E-01  1.1992417215346E+00 -2.6805364632254E-01
    27  2.6000000000000E-01  1.2670387948671E+00 -2.7727667865554E-01
    28  2.7000000000000E-01  1.3323620949280E+00 -2.8317042922278E-01
    29  2.8000000000000E-01  1.3946897787847E+00 -2.8525378313546E-01
    30  2.9000000000000E-01  1.4535216234415E+00 -2.8308226338046E-01
    31  3.0000000000000E-01  1.5083859403496E+00 -2.7626000861092E-01
    32  3.1000000000000E-01  1.5588461056361E+00 -2.6445090872730E-01
    33  3.2000000000000E-01  1.6045065427786E+00 -2.4738855376343E-01
    34  3.3000000000000E-01  1.6450180063799E+00 -2.2488467962439E-01
    35  3.4000000000000E-01  1.6800820322062E+00 -1.9683583241269E-01
    36  3.5000000000000E-01  1.7094544393410E+00 -1.6322802042591E-01
    37  3.6000000000000E-01  1.7329477945940E+00 -1.2413917812065E-01
    38  3.7000000000000E-01  1.7504327765390E+00 -7.9739327866745E-02
    39  3.8000000000000E-01  1.7618384059535E+00 -3.0288391400042E-02
    40  3.9000000000000E-01  1.7671511401672E+00  2.3868328401726E-02
    41  4.0000000000000E-01  1.7664128599928E+00  8.2306905481249E-02
    42  4.1000000000000E-01  1.7597178086021E+00  1.4453363053187E-01
    43  4.2000000000000E-01  1.7472085710031E+00  2.0999571084686E-01
    44  4.3000000000000E-01  1.7290712097879E+00  2.7809354930664E-01
    45  4.4000000000000E-01  1.7055296967248E+00  3.4819427039878E-01
    46  4.5000000000000E-01  1.6768397998157E+00  4.1964611891527E-01
    47  4.6000000000000E-01  1.6432826009851E+00  4.9179332522136E-01
    48  4.7000000000000E-01  1.6051578300916E+00  5.6399101086892E-01
    49  4.8000000000000E-01  1.5627772060867E+00  6.3561970064290E-01
    50  4.9000000000000E-01  1.5164579756509E+00  7.0609901232518E-01
    51  5.0000000000000E-01  1.4665168334792E+00  7.7490011360844E-01
    52  5.1000000000000E-01  1.4132643966484E+00  8.4155656637770E-01
    53  5.2000000000000E-01  1.3570003884835E+00  9.0567322130468E-01
    54  5.3000000000000E-01  1.2980096654594E+00  9.6693287930626E-01
    55  5.4000000000000E-01  1.2365591945358E+00  1.0251004995024E+00
    56  5.5000000000000E-01  1.1728960586378E+00  1.0800248041573E+00
    57  5.6000000000000E-01  1.1072465356092E+00  1.1316372077370E+00
    58  5.7000000000000E-01  1.0398162618058E+00  1.1799480774836E+00
    59  5.8000000000000E-01  9.7079145656340E-01  1.2250404144789E+00
    60  5.9000000000000E-01  9.0034114911261E-01  1.2670611246376E+00
    61  6.0000000000000E-01  8.2862031615001E-01  1.3062101260236E+00
    62  6.1000000000000E-01  7.5577380725864E-01  1.3427276099726E+00
    63  6.2000000000000E-01  6.8194090765055E-01  1.3768798365007E+00
    64  6.3000000000000E-01  6.0726036418386E-01  1.4089438973585E+00
    65  6.4000000000000E-01  5.3187568205904E-01  1.4391919210911E+00
    66  6.5000000000000E-01  4.5594048667354E-01  1.4678752221255E+00
    67  6.6000000000000E-01  3.7962373829964E-01  1.4952089091550E+00
    68  6.7000000000000E-01  3.0311458686802E-01  1.5213574662255E+00
    69  6.8000000000000E-01  2.2662666032280E-01  1.5464218027076E+00
    70  6.9000000000000E-01  1.5040159270789E-01  1.5704282359400E+00
    71  7.0000000000000E-01  7.4711617099121E-02  1.5933198233900E+00
    72  7.1000000000000E-01 -1.3892672360332E-04  1.6149504007678E+00
    73  7.2000000000000E-01 -7.3813289982488E-02  1.6350816101262E+00
    74  7.3000000000000E-01 -1.4594330369097E-01  1.6533831194479E+00
    75  7.4000000000000E-01 -2.1613170631086E-01  1.6694361447350E+00
    76  7.5000000000000E-01 -2.8395581768727E-01  1.6827402896574E+00
    77  7.6000000000000E-01 -3.4897252497053E-01  1.6927236190252E+00
    78  7.7000000000000E-01 -4.1072450440601E-01  1.6987557835426E+00
    79  7.8000000000000E-01 -4.6874756214082E-01  1.7001639173274E+00
    80  7.9000000000000E-01 -5.2257893877117E-01  1.6962509393552E+00
    81  8.0000000000000E-01 -5.7176638740924E-01  1.6863158080500E+00
    82  8.1000000000000E-01 -6.1587780467335E-01  1.6696752072031E+00
    83  8.2000000000000E-01 -6.5451116918419E-01  1.6456860835397E+00
    84  8.3000000000000E-01 -6.8730452372142E-01  1.6137684135020E+00
    85  8.4000000000000E-01 -7.1394572583384E-01  1.5734275507132E+00
    86  8.5000000000000E-01 -7.3418168788554E-01  1.5242754972271E+00
    87  8.6000000000000E-01 -7.4782683153820E-01  1.4660504516739E+00
    88  8.7000000000000E-01 -7.5477049357510E-01  1.3986340158799E+00
    89  8.8000000000000E-01 -7.5498303960232E-01  1.3220654880542E+00
    90  8.9000000000000E-01 -7.4852046913120E-01  1.2365527342777E+00
    91  9.0000000000000E-01 -7.3552732925318E-01  1.1424792093523E+00
    92  9.1000000000000E-01 -7.1623779376215E-01  1.0404067911881E+00
    93  9.2000000000000E-01 -6.9097480917703E-01  9.3107419750139E-01
    94  9.3000000000000E-01 -6.6014725753017E-01  8.1539086699011E-01
    95  9.4000000000000E-01 -6.2424513673974E-01  6.9442630636009E-01
    96  9.5000000000000E-01 -5.8383281153546E-01  5.6939502645073E-01
    97  9.6000000000000E-01 -5.3954043981482E-01  4.4163731188850E-01
    98  9.7000000000000E-01 -4.9205372955905E-01  3.1259618587976E-01
    99  9.8000000000000E-01 -4.4210222860820E-01  1.8379104162063E-01
   100  9.9000000000000E-01 -3.9044639233759E-01  5.6788511216181E-02
   101  1.0000000000000E+00 -3.3786371135791E-01 -6.6828770904878E-02
   102  1.0100000000000E+00 -2.8513421164040E-01 -1.8549478296554E-01
   103  1.0200000000000E+00 -2.3302566202403E-01 -2.9769333006091E-01
   104  1.0300000000000E+00 -1.8227883816161E-01 -4.0199104624132E-01
   105  1.0400000000000E+00 -1.3359319704446E-01 -4.9706936191717E-01
   106  1.0500000000000E+00 -8.7613312083549E-02 -5.8175462447913E-01
   107  1.0600000000000E+00 -4.4916405234830E-02 -6.5504559222956E-01
   108  1.0700000000000E+00 -6.0012900798896E-03 -7.1613757510774E-01
   109  1.0800000000000E+00  2.8720991365176E-02 -7.6444256901819E-01
   110  1.0900000000000E+00  5.8934594501714E-02 -7.9960482257128E-01
   111  1.1000000000000E+00  8.4424162985236E-02 -8.2151138277861E-01
   112  1.1100000000000E+00  1.0507783887894E-01 -8.3029728807479E-01
   113  1.1200000000000E+00  1.2088790273517E-01 -8.2634520874071E-01
   114  1.1300000000000E+00  1.3194901381413E-01 -8.1027947415791E-01
   115  1.1400000000000E+00  1.3845408158235E-01 -7.8295456869175E-01
   116  1.1500000000000E+00  1.4068786069805E-01 -7.4543832057337E-01
   117  1.1600000000000E+00  1.3901842089792E-01 -6.9899014628796E-01
   118  1.1700000000000E+00  1.3388669937518E-01 -6.4503484393716E-01
   119  1.1800000000000E+00  1.2579439438979E-01 -5.8513254818784E-01
   120  1.1900000000000E+00  1.1529050417625E-01 -5.2094556487392E-01
   121  1.2000000000000E+00  1.0295685278472E-01 -4.5420289060206E-01
   122  1.2100000000000E+00  8.9392973977960E-02 -3.8666329105314E-01
   123  1.2200000000000E+00  7.5200744852860E-02 -3.2007785868549E-01
   124  1.2300000000000E+00  6.0969145350825E-02 -2.5615294348494E-01
   125  1.2400000000000E+00  4.7257535204317E-02 -1.9651110208873E-01
   126  1.2500000000000E+00  3.4548804739892E-02 -1.4260110226112E-01
   127  1.2600000000000E+00  2.3311375743688E-02 -9.5791991500529E-02
   128  1.2700000000000E+00  1.3970478368776E-02 -5.7317512514570E-02
   129  1.2800000000000E+00  6.8591409035992E-03 -2.8175475941388E-02
   130  1.2900000000000E+00  2.1959931942701E-03 -9.0562699274139E-03
   131  1.3000000000000E+00  1.5842729871491E-04 -6.5804982962290E-04
   132  1.3100000000000E+00 -9.0972742009982E-06  3.7920222062460E-05
   133  1.3200000000000E+00 -1.1036893064681E-06  4.5668191766158E-06
   134  1.33  0. -0.
   135  1.34  0.  0.
   136  1.35  0.  0.
   137  1.36  0.  0.
   138  1.37  0.  0.
   139  1.38  0.  0.
   140  1.39  0.  0.
   141  1.40  0.  0.
   142  1.41  0.  0.
   143  1.42  0.  0.
   144  1.43  0.  0.
   145  1.44  0.  0.
   146  1.45  0.  0.
   147  1.46  0.  0.
   148  1.47  0.  0.
   149  1.48  0.  0.
   150  1.49  0.  0.
   151  1.50  0.  0.
   152  1.51  0.  0.
   153  1.52  0.  0.
   154  1.53  0.  0.
   155  1.54  0.  0.
   156  1.55  0.  0.
   157  1.56  0.  0.
   158  1.57  0.  0.
   159  1.58  0.  0.
   160  1.59  0.  0.
   161  1.60  0.  0.
   162  1.61  0.  0.
   163  1.62  0.  0.
   164  1.63  0.  0.
   165  1.64  0.  0.
   166  1.65  0.  0.
   167  1.66  0.  0.
   168  1.67  0.  0.
   169  1.68  0.  0.
   170  1.69  0.  0.
   171  1.70  0.  0.
   172  1.71  0.  0.
   173  1.72  0.  0.
   174  1.73  0.  0.
   175  1.74  0.  0.
   176  1.75  0.  0.
   177  1.76  0.  0.
   178  1.77  0.  0.
   179  1.78  0.  0.
   180  1.79  0.  0.
   181  1.80  0.  0.
   182  1.81  0.  0.
   183  1.82  0.  0.
   184  1.83  0.  0.
   185  1.84  0.  0.
   186  1.85  0.  0.
   187  1.86  0.  0.
   188  1.87  0.  0.
   189  1.88  0.  0.
   190  1.89  0.  0.
   191  1.90  0.  0.
   192  1.91  0.  0.
   193  1.92  0.  0.
   194  1.93  0.  0.
   195  1.94  0.  0.
   196  1.95  0.  0.
   197  1.96  0.  0.