Cd    ONCVPSP-4.0.1  r_core=   1.25713   1.30307   1.35069
     48.0000     20.0000      250217    zatom,zion,pspd
     8       2   2     4   600     0    pspcod,pspxc,lmax,lloc,mmax,r2well
  5.99000000  6.00000000  0.00000000    rchrg fchrg qchrg
     2     3     3     0    nproj
     3     1           extension_switch
     3     3     0    nprojso
   0                         4.1491529772387E+01  3.1647233203766E+00
     1  0.0000000000000E+00  1.4351173915905E-08 -2.8101448154572E-08
     2  1.0000000000000E-02  9.5717279389280E-02 -8.1690393265767E-03
     3  2.0000000000000E-02  1.9126790084445E-01 -1.6442378950911E-02
     4  3.0000000000000E-02  2.8648156940493E-01 -2.4916044771292E-02
     5  4.0000000000000E-02  3.8118085003437E-01 -3.3669777937370E-02
     6  5.0000000000000E-02  4.7517792867733E-01 -4.2759545064451E-02
     7  6.0000000000000E-02  5.6827175996043E-01 -5.2210810658038E-02
     8  7.0000000000000E-02  6.6024571295198E-01 -6.2012791610522E-02
     9  8.0000000000000E-02  7.5086581204328E-01 -7.2113885530413E-02
    10  9.0000000000000E-02  8.3987965283127E-01 -8.2418431022849E-02
    11  1.0000000000000E-01  9.2701605334167E-01 -9.2784919790623E-02
    12  1.1000000000000E-01  1.0119854795724E+00 -1.0302573862622E-01
    13  1.2000000000000E-01  1.0944812617506E+00 -1.1290847517897E-01
    14  1.3000000000000E-01  1.1741815945080E+00 -1.2215877603567E-01
    15  1.4000000000000E-01  1.2507522910349E+00 -1.3046470041269E-01
    16  1.5000000000000E-01  1.3238502388131E+00 -1.3748246888799E-01
    17  1.6000000000000E-01  1.3931274833874E+00 -1.4284346533396E-01
    18  1.7000000000000E-01  1.4582358473999E+00 -1.4616231271205E-01
    19  1.8000000000000E-01  1.5188319753329E+00 -1.4704581072010E-01
    20  1.9000000000000E-01  1.5745826805551E+00 -1.4510249638255E-01
    21  2.0000000000000E-01  1.6251704607502E+00 -1.3995256831923E-01
    22  2.1000000000000E-01  1.6702990409289E+00 -1.3123790222705E-01
    23  2.2000000000000E-01  1.7096988002019E+00 -1.1863187946688E-01
    24  2.3000000000000E-01  1.7431319394268E+00 -1.0184875277072E-01
    25  2.4000000000000E-01  1.7703972517324E+00 -8.0652282957926E-02
    26  2.5000000000000E-01  1.7913343666654E+00 -5.4863397951018E-02
    27  2.6000000000000E-01  1.8058273510680E+00 -2.4366649876412E-02
    28  2.7000000000000E-01  1.8138075654782E+00  1.0884723010580E-02
    29  2.8000000000000E-01  1.8152556934219E+00  5.0865286238047E-02
    30  2.9000000000000E-01  1.8102028819507E+00  9.5475566263530E-02
    31  3.0000000000000E-01  1.7987309546128E+00  1.4454194543005E-01
    32  3.1000000000000E-01  1.7809716820959E+00  1.9781831815546E-01
    33  3.2000000000000E-01  1.7571051204138E+00  2.5498948358255E-01
    34  3.3000000000000E-01  1.7273570510280E+00  3.1567620201418E-01
    35  3.4000000000000E-01  1.6919955810399E+00  3.7944179617953E-01
    36  3.5000000000000E-01  1.6513269838872E+00  4.4580013502693E-01
    37  3.6000000000000E-01  1.6056908812088E+00  5.1422479854548E-01
    38  3.7000000000000E-01  1.5554548841285E+00  5.8415918821154E-01
    39  3.8000000000000E-01  1.5010088266469E+00  6.5502732002361E-01
    40  3.9000000000000E-01  1.4427587346967E+00  7.2624501656239E-01
    41  4.0000000000000E-01  1.3811206813829E+00  7.9723120172478E-01
    42  4.1000000000000E-01  1.3165146817735E+00  8.6741899716407E-01
    43  4.2000000000000E-01  1.2493587792161E+00  9.3626632323131E-01
    44  4.3000000000000E-01  1.1800634695387E+00  1.0032657193317E+00
    45  4.4000000000000E-01  1.1090265997667E+00  1.0679531188324E+00
    46  4.5000000000000E-01  1.0366288643963E+00  1.1299153415057E+00
    47  4.6000000000000E-01  9.6323000514902E-01  1.1887961012614E+00
    48  4.7000000000000E-01  8.8916579993990E-01  1.2443003677281E+00
    49  4.8000000000000E-01  8.1474590406837E-01  1.2961969659957E+00
    50  4.9000000000000E-01  7.4025258198839E-01  1.3443193483297E+00
    51  5.0000000000000E-01  6.6594034211834E-01  1.3885645235405E+00
    52  5.1000000000000E-01  5.9203646071860E-01  1.4288901825467E+00
    53  5.2000000000000E-01  5.1874235464090E-01  1.4653101110135E+00
    54  5.3000000000000E-01  4.4623573747684E-01  1.4978880303173E+00
    55  5.4000000000000E-01  3.7467347002928E-01  1.5267300550500E+00
    56  5.5000000000000E-01  3.0419499478688E-01  1.5519759974552E+00
    57  5.6000000000000E-01  2.3492622582716E-01  1.5737897853510E+00
    58  5.7000000000000E-01  1.6698375086415E-01  1.5923492891323E+00
    59  5.8000000000000E-01  1.0047919145416E-01  1.6078358744476E+00
    60  5.9000000000000E-01  3.5523561037134E-02  1.6204240094006E+00
    61  6.0000000000000E-01 -2.7768541237143E-02  1.6302712581637E+00
    62  6.1000000000000E-01 -8.9275059953194E-02  1.6375089864779E+00
    63  6.2000000000000E-01 -1.4886308749144E-01  1.6422340886876E+00
    64  6.3000000000000E-01 -2.0638608177894E-01  1.6445020209971E+00
    65  6.4000000000000E-01 -2.6168182023158E-01  1.6443213921078E+00
    66  6.5000000000000E-01 -3.1457119192157E-01  1.6416503210642E+00
    67  6.6000000000000E-01 -3.6485790614998E-01  1.6363947240510E+00
    68  6.7000000000000E-01 -4.1232916897511E-01  1.6284086382412E+00
    69  6.8000000000000E-01 -4.5675735054529E-01  1.6174966330077E+00
    70  6.9000000000000E-01 -4.9790263607671E-01  1.6034182983946E+00
    71  7.0000000000000E-01 -5.3551662282251E-01  1.5858947393417E+00
    72  7.1000000000000E-01 -5.6934679524243E-01  1.5646169434382E+00
    73  7.2000000000000E-01 -5.9914178165281E-01  1.5392558316452E+00
    74  7.3000000000000E-01 -6.2465726874900E-01  1.5094737471335E+00
    75  7.4000000000000E-01 -6.4566242633186E-01  1.4749370886949E+00
    76  7.5000000000000E-01 -6.6194667406855E-01  1.4353297535626E+00
    77  7.6000000000000E-01 -6.7332660581567E-01  1.3903670211964E+00
    78  7.7000000000000E-01 -6.7965287546934E-01  1.3398094857231E+00
    79  7.8000000000000E-01 -6.8081684190367E-01  1.2834766311283E+00
    80  7.9000000000000E-01 -6.7675676960396E-01  1.2212596405296E+00
    81  8.0000000000000E-01 -6.6746338623788E-01  1.1531330392399E+00
    82  8.1000000000000E-01 -6.5298460863489E-01  1.0791647908400E+00
    83  8.2000000000000E-01 -6.3342926430613E-01  9.9952449582685E-01
    84  8.3000000000000E-01 -6.0896965643037E-01  9.1448938299602E-01
    85  8.4000000000000E-01 -5.7984284570813E-01  8.2444783366755E-01
    86  8.5000000000000E-01 -5.4635055206669E-01  7.2990023703495E-01
    87  8.6000000000000E-01 -5.0885761217834E-01  6.3145703991417E-01
    88  8.7000000000000E-01 -4.6778896433145E-01  5.2983392440980E-01
    89  8.8000000000000E-01 -4.2362516947595E-01  4.2584412073293E-01
    90  8.9000000000000E-01 -3.7689651530380E-01  3.2038793772638E-01
    91  9.0000000000000E-01 -3.2817578803186E-01  2.1443966861478E-01
    92  9.1000000000000E-01 -2.7806983313040E-01  1.0903210212684E-01
    93  9.2000000000000E-01 -2.2721006060136E-01  5.2389374785822E-03
    94  9.3000000000000E-01 -1.7624208161285E-01 -9.5844536107130E-02
    95  9.4000000000000E-01 -1.2581469046166E-01 -1.9312208038641E-01
    96  9.5000000000000E-01 -7.6568428183502E-02 -2.8551800979386E-01
    97  9.6000000000000E-01 -2.9123980979578E-02 -3.7199906004122E-01
    98  9.7000000000000E-01  1.5929322557569E-02 -4.5159610765271E-01
    99  9.8000000000000E-01  5.8044647052796E-02 -5.2342521499846E-01
   100  9.9000000000000E-01  9.6728152702404E-02 -5.8670747904430E-01
   101  1.0000000000000E+00  1.3154860729368E-01 -6.4078717898090E-01
   102  1.0100000000000E+00  1.6214586644340E-01 -6.8514774792356E-01
   103  1.0200000000000E+00  1.8823800256682E-01 -7.1942513640589E-01
   104  1.0300000000000E+00  2.0962689096221E-01 -7.4341818962701E-01
   105  1.0400000000000E+00  2.2620209456298E-01 -7.5709572513403E-01
   106  1.0500000000000E+00  2.3794292657790E-01 -7.6060007127497E-01
   107  1.0600000000000E+00  2.4491861165175E-01 -7.5424690785066E-01
   108  1.0700000000000E+00  2.4728651023451E-01 -7.3852133676501E-01
   109  1.0800000000000E+00  2.4528841651999E-01 -7.1407020009975E-01
   110  1.0900000000000E+00  2.3924498662296E-01 -6.8169075398614E-01
   111  1.1000000000000E+00  2.2954839917461E-01 -6.4231589609192E-01
   112  1.1100000000000E+00  2.1665339449485E-01 -5.9699623103352E-01
   113  1.1200000000000E+00  2.0106687941633E-01 -5.4687933854634E-01
   114  1.1300000000000E+00  1.8333632203051E-01 -4.9318668249795E-01
   115  1.1400000000000E+00  1.6403719283537E-01 -4.3718866231189E-01
   116  1.1500000000000E+00  1.4375973538140E-01 -3.8017836088790E-01
   117  1.1600000000000E+00  1.2309536964800E-01 -3.2344458289644E-01
   118  1.1700000000000E+00  1.0262304462377E-01 -2.6824480357907E-01
   119  1.1800000000000E+00  8.2895799371746E-02 -2.1577854833117E-01
   120  1.1900000000000E+00  6.4428358370977E-02 -1.6716272336591E-01
   121  1.2000000000000E+00  4.7667361450269E-02 -1.2337610747609E-01
   122  1.2100000000000E+00  3.2957392307839E-02 -8.5195386484483E-02
   123  1.2200000000000E+00  2.0666737292305E-02 -5.3418832399396E-02
   124  1.2300000000000E+00  1.1086833484482E-02 -2.8687059815872E-02
   125  1.2400000000000E+00  4.4186368399694E-03 -1.1458287027834E-02
   126  1.2500000000000E+00  7.6443228280609E-04 -1.9889458400362E-03
   127  1.2600000000000E+00 -4.1314218270828E-05  1.0782239620173E-04
   128  1.2700000000000E+00  9.1903279046500E-06 -2.3955350882806E-05
   129  1.28  0.  0.
   130  1.29  0.  0.
   131  1.30  0.  0.
   132  1.31  0.  0.
   133  1.32  0.  0.
   134  1.33  0.  0.
   135  1.34  0.  0.
   136  1.35  0.  0.
   137  1.36  0.  0.
   138  1.37  0.  0.
   139  1.38  0.  0.
   140  1.39  0.  0.
   141  1.40  0.  0.
   142  1.41  0.  0.
   143  1.42  0.  0.
   144  1.43  0.  0.
   145  1.44  0.  0.
   146  1.45  0.  0.
   147  1.46  0.  0.
   148  1.47  0.  0.
   149  1.48  0.  0.
   150  1.49  0.  0.
   151  1.50  0.  0.
   152  1.51  0.  0.
   153  1.52  0.  0.
   154  1.53  0.  0.
   155  1.54  0.  0.
   156  1.55  0.  0.
   157  1.56  0.  0.
   158  1.57  0.  0.
   159  1.58  0.  0.
   160  1.59  0.  0.
   161  1.60  0.  0.
   162  1.61  0.  0.
   163  1.62  0.  0.
   164  1.63  0.  0.
   165  1.64  0.  0.
   166  1.65  0.  0.
   167  1.66  0.  0.
   168  1.67  0.  0.
   169  1.68  0.  0.
   170  1.69  0.  0.
   171  1.70  0.  0.
   172  1.71  0.  0.
   173  1.72  0.  0.
   174  1.73  0.  0.
   175  1.74  0.  0.
   176  1.75  0.  0.
   177  1.76  0.  0.
   178  1.77  0.  0.
   179  1.78  0.  0.
   180  1.79  0.  0.
   181  1.80  0.  0.
   182  1.81  0.  0.
   183  1.82  0.  0.
   184  1.83  0.  0.
   185  1.84  0.  0.
   186  1.85  0.  0.
   187  1.86  0.  0.
   188  1.87  0.  0.
   189  1.88  0.  0.
   190  1.89  0.  0.
   191  1.90  0.  0.
   192  1.91  0.  0.
   193  1.92  0.  0.
   194  1.93  0.  0.
   195  1.94  0.  0.
   196  1.95  0.  0.
   197  1.96  0.  0.
   198  1.97  0.  0.
   199  1.98  0.  0.
   200  1.99  0.  0.
   201  2.00  0.  0.
   202  2.01  0.  0.
   203  2.02  0.  0.
   204  2.03  0.  0.
   205  2.04  0.  0.
   206  2.05  0.  0.
   207  2.06  0.  0.
   208  2.07  0.  0.
   209  2.08  0.  0.
   210  2.09  0.  0.
   211  2.10  0.  0.
   212  2.11  0.  0.
   213  2.12  0.  0.
   214  2.13  0.  0.
   215  2.14  0.  0.
   216  2.15  0.  0.
   217  2.16  0.  0.
   218  2.17  0.  0.
   219  2.18  0.  0.
   220  2.19  0.  0.
   221  2.20  0.  0.
   222  2.21  0.  0.
   223  2.22  0.  0.
   224  2.23  0.  0.
   225  2.24  0.  0.
   226  2.25  0.  0.
   227  2.26  0.  0.
   228  2.27  0.  0.
   229  2.28  0.  0.
   230  2.29  0.  0.
   231  2.30  0.  0.
   232  2.31  0.  0.
   233  2.32  0.  0.
   234  2.33  0.  0.
   235  2.34  0.  0.
   236  2.35  0.  0.
   237  2.36  0.  0.
   238  2.37  0.  0.
   239  2.38  0.  0.
   240  2.39  0.  0.
   241  2.40  0.  0.
   242  2.41  0.  0.
   243  2.42  0.  0.
   244  2.43  0.  0.
   245  2.44  0.  0.
   246  2.45  0.  0.
   247  2.46  0.  0.
   248  2.47  0.  0.
   249  2.48  0.  0.
   250  2.49  0.  0.
   251  2.50  0.  0.
   252  2.51  0.  0.
   253  2.52  0.  0.
   254  2.53  0.  0.
   255  2.54  0.  0.
   256  2.55  0.  0.
   257  2.56  0.  0.
   258  2.57  0.  0.
   259  2.58  0.  0.
   260  2.59  0.  0.
   261  2.60  0.  0.
   262  2.61  0.  0.
   263  2.62  0.  0.
   264  2.63  0.  0.
   265  2.64  0.  0.
   266  2.65  0.  0.
   267  2.66  0.  0.
   268  2.67  0.  0.
   269  2.68  0.  0.
   270  2.69  0.  0.
   271  2.70  0.  0.
   272  2.71  0.  0.
   273  2.72  0.  0.
   274  2.73  0.  0.
   275  2.74  0.  0.
   276  2.75  0.  0.
   277  2.76  0.  0.
   278  2.77  0.  0.
   279  2.78  0.  0.
   280  2.79  0.  0.
   281  2.80  0.  0.
   282  2.81  0.  0.
   283  2.82  0.  0.
   284  2.83  0.  0.
   285  2.84  0.  0.
   286  2.85  0.  0.
   287  2.86  0.  0.
   288  2.87  0.  0.
   289  2.88  0.  0.
   290  2.89  0.  0.
   291  2.90  0.  0.
   292  2.91  0.  0.
   293  2.92  0.  0.
   294  2.93  0.  0.
   295  2.94  0.  0.
   296  2.95  0.  0.
   297  2.96  0.  0.
   298  2.97  0.  0.
   299  2.98  0.  0.
   300  2.99  0.  0.
   301  3.00  0.  0.
   302  3.01  0.  0.
   303  3.02  0.  0.
   304  3.03  0.  0.
   305  3.04  0.  0.
   306  3.05  0.  0.
   307  3.06  0.  0.
   308  3.07  0.  0.
   309  3.08  0.  0.
   310  3.09  0.  0.
   311  3.10  0.  0.
   312  3.11  0.  0.
   313  3.12  0.  0.
   314  3.13  0.  0.
   315  3.14  0.  0.
   316  3.15  0.  0.
   317  3.16  0.  0.
   318  3.17  0.  0.
   319  3.18  0.  0.
   320  3.19  0.  0.
   321  3.20  0.  0.
   322  3.21  0.  0.
   323  3.22  0.  0.
   324  3.23  0.  0.
   325  3.24  0.  0.
   326  3.25  0.  0.
   327  3.26  0.  0.
   328  3.27  0.  0.
   329  3.28  0.  0.
   330  3.29  0.  0.
   331  3.30  0.  0.
   332  3.31  0.  0.
   333  3.32  0.  0.
   334  3.33  0.  0.
   335  3.34  0.  0.
   336  3.35  0.  0.
   337  3.36  0.  0.
   338  3.37  0.  0.
   339  3.38  0.  0.
   340  3.39  0.  0.
   341  3.40  0.  0.
   342  3.41  0.  0.
   343  3.42  0.  0.
   344  3.43  0.  0.
   345  3.44  0.  0.
   346  3.45  0.  0.
   347  3.46  0.  0.
   348  3.47  0.  0.
   349  3.48  0.  0.
   350  3.49  0.  0.
   351  3.50  0.  0.
   352  3.51  0.  0.
   353  3.52  0.  0.
   354  3.53  0.  0.
   355  3.54  0.  0.
   356  3.55  0.  0.
   357  3.56  0.  0.
   358  3.57  0.  0.
   359  3.58  0.  0.
   360  3.59  0.  0.
   361  3.60  0.  0.
   362  3.61  0.  0.
   363  3.62  0.  0.
   364  3.63  0.  0.
   365  3.64  0.  0.
   366  3.65  0.  0.
   367  3.66  0.  0.
   368  3.67  0.  0.
   369  3.68  0.  0.
   370  3.69  0.  0.
   371  3.70  0.  0.
   372  3.71  0.  0.
   373  3.72  0.  0.
   374  3.73  0.  0.
   375  3.74  0.  0.
   376  3.75  0.  0.
   377  3.76  0.  0.
   378  3.77  0.  0.
   379  3.78  0.  0.
   380  3.79  0.  0.
   381  3.80  0.  0.
   382  3.81  0.  0.
   383  3.82  0.  0.
   384  3.83  0.  0.
   385  3.84  0.  0.
   386  3.85  0.  0.
   387  3.86  0.  0.
   388  3.87  0.  0.
   389  3.88  0.  0.
   390  3.89  0.  0.
   391  3.90  0.  0.
   392  3.91  0.  0.
   393  3.92  0.  0.
   394  3.93  0.  0.
   395  3.94  0.  0.
   396  3.95  0.  0.
   397  3.96  0.  0.
   398  3.97  0.  0.
   399  3.98  0.  0.
   400  3.99  0.  0.
   401  4.00  0.  0.
   402  4.01  0.  0.
   403  4.02  0.  0.
   404  4.03  0.  0.
   405  4.04  0.  0.
   406  4.05  0.  0.
   407  4.06  0.  0.
   408  4.07  0.  0.
   409  4.08  0.  0.
   410  4.09  0.  0.
   411  4.10  0.  0.
   412  4.11  0.  0.
   413  4.12  0.  0.
   414  4.13  0.  0.
   415  4.14  0.  0.
   416  4.15  0.  0.
   417  4.16  0.  0.
   418  4.17  0.  0.
   419  4.18  0.  0.
   420  4.19  0.  0.
   421  4.20  0.  0.
   422  4.21  0.  0.
   423  4.22  0.  0.
   424  4.23  0.  0.
   425  4.24  0.  0.
   426  4.25  0.  0.
   427  4.26  0.  0.
   428  4.27  0.  0.
   429  4.28  0.  0.
   430  4.29  0.  0.
   431  4.30  0.  0.
   432  4.31  0.  0.
   433  4.32  0.  0.
   434  4.33  0.  0.
   435  4.34  0.  0.
   436  4.35  0.  0.
   437  4.36  0.  0.
   438  4.37  0.  0.
   439  4.38  0.  0.
   440  4.39  0.  0.
   441  4.40  0.  0.
   442  4.41  0.  0.
   443  4.42  0.  0.
   444  4.43  0.  0.
   445  4.44  0.  0.
   446  4.45  0.  0.
   447  4.46  0.  0.
   448  4.47  0.  0.
   449  4.48  0.  0.
   450  4.49  0.  0.
   451  4.50  0.  0.
   452  4.51  0.  0.
   453  4.52  0.  0.
   454  4.53  0.  0.
   455  4.54  0.  0.
   456  4.55  0.  0.
   457  4.56  0.  0.
   458  4.57  0.  0.
   459  4.58  0.  0.
   460  4.59  0.  0.
   461  4.60  0.  0.
   462  4.61  0.  0.
   463  4.62  0.  0.
   464  4.63  0.  0.
   465  4.64  0.  0.
   466  4.65  0.  0.
   467  4.66  0.  0.
   468  4.67  0.  0.
   469  4.68  0.  0.
   470  4.69  0.  0.
   471  4.70  0.  0.
   472  4.71  0.  0.
   473  4.72  0.  0.
   474  4.73  0.  0.
   475  4.74  0.  0.
   476  4.75  0.  0.
   477  4.76  0.  0.
   478  4.77  0.  0.
   479  4.78  0.  0.
   480  4.79  0.  0.
   481  4.80  0.  0.
   482  4.81  0.  0.
   483  4.82  0.  0.
   484  4.83  0.  0.
   485  4.84  0.  0.
   486  4.85  0.  0.
   487  4.86  0.  0.
   488  4.87  0.  0.
   489  4.88  0.  0.
   490  4.89  0.  0.
   491  4.90  0.  0.
   492  4.91  0.  0.
   493  4.92  0.  0.
   494  4.93  0.  0.
   495  4.94  0.  0.
   496  4.95  0.  0.
   497  4.96  0.  0.
   498  4.97  0.  0.
   499  4.98  0.  0.
   500  4.99  0.  0.
   501  5.00  0.  0.
   502  5.01  0.  0.
   503  5.02  0.  0.
   504  5.03  0.  0.
   505  5.04  0.  0.
   506  5.05  0.  0.
   507  5.06  0.  0.
   508  5.07  0.  0.
   509  5.08  0.  0.
   510  5.09  0.  0.
   511  5.10  0.  0.
   512  5.11  0.  0.
   513  5.12  0.  0.
   514  5.13  0.  0.
   515  5.14  0.  0.
   516  5.15  0.  0.
   517  5.16  0.  0.
   518  5.17  0.  0.
   519  5.18  0.  0.
   520  5.19  0.  0.
   521  5.20  0.  0.
   522  5.21  0.  0.
   523  5.22  0.  0.
   524  5.23  0.  0.
   525  5.24  0.  0.
   526  5.25  0.  0.
   527  5.26  0.  0.
   528  5.27  0.  0.
   529  5.28  0.  0.
   530  5.29  0.  0.
   531  5.30  0.  0.
   532  5.31  0.  0.
   533  5.32  0.  0.
   534  5.33  0.  0.
   535  5.34  0.  0.
   536  5.35  0.  0.
   537  5.36  0.  0.
   538  5.37  0.  0.
   539  5.38  0.  0.
   540  5.39  0.  0.
   541  5.40  0.  0.
   542  5.41  0.  0.
   543  5.42  0.  0.
   544  5.43  0.  0.
   545  5.44  0.  0.
   546  5.45  0.  0.
   547  5.46  0.  0.
   548  5.47  0.  0.
   549  5.48  0.  0.
   550  5.49  0.  0.
   551  5.50  0.  0.
   552  5.51  0.  0.
   553  5.52  0.  0.
   554  5.53  0.  0.
   555  5.54  0.  0.
   556  5.55  0.  0.
   557  5.56  0.  0.
   558  5.57  0.  0.
   559  5.58  0.  0.
   560  5.59  0.  0.
   561  5.60  0.  0.
   562  5.61  0.  0.
   563  5.62  0.  0.
   564  5.63  0.  0.
   565  5.64  0.  0.
   566  5.65  0.  0.
   567  5.66  0.  0.
   568  5.67  0.  0.
   569  5.68  0.  0.
   570  5.69  0.  0.
   571  5.70  0.  0.
   572  5.71  0.  0.
   573  5.72  0.  0.
   574  5.73  0.  0.
   575  5.74  0.  0.
   576  5.75  0.  0.
   577  5.76  0.  0.
   578  5.77  0.  0.
   579  5.78  0.  0.
   580  5.79  0.  0.
   581  5.80  0.  0.
   582  5.81  0.  0.
   583  5.82  0.  0.
   584  5.83  0.  0.
   585  5.84  0.  0.
   586  5.85  0.  0.
   587  5.86  0.  0.
   588  5.87  0.  0.
   589  5.88  0.  0.
   590  5.89  0.  0.
   591  5.90  0.  0.
   592  5.91  0.  0.
   593  5.92  0.  0.
   594  5.93  0.  0.
   595  5.94  0.  0.
   596  5.95  0.  0.
   597  5.96  0.  0.
   598  5.97  0.  0.
   599  5.98  0.  0.
   600  5.99  0.  0.
   1                         9.6495183467949E+00  1.4846121874862E+00  1.5091519053512E-02
     1  0.0000000000000E+00 -2.3617825639644E-08  4.4361891243794E-08 -8.0871139954836E-08
     2  1.0000000000000E-02  2.3478617940691E-03 -5.5996371132759E-05 -5.5266772913247E-04
     3  2.0000000000000E-02  9.3894075955261E-03 -2.4025672028375E-04 -2.1671996979761E-03
     4  3.0000000000000E-02  2.1118115044018E-02 -6.0076124353647E-04 -4.7148123147036E-03
     5  4.0000000000000E-02  3.7521783818994E-02 -1.2147279525617E-03 -7.9862468468745E-03
     6  5.0000000000000E-02  5.8580595416076E-02 -2.1845911270735E-03 -1.1699656549744E-02
     7  6.0000000000000E-02  8.4264503754961E-02 -3.6325716567585E-03 -1.5511286949918E-02
     8  7.0000000000000E-02  1.1453005941485E-01 -5.6940320873061E-03 -1.9028600953436E-02
     9  8.0000000000000E-02  1.4931679391117E-01 -8.5098535470559E-03 -2.1825419576214E-02
    10  9.0000000000000E-02  1.8854330997205E-01 -1.2218108498118E-02 -2.3458581443123E-02
    11  1.0000000000000E-01  2.3210323859884E-01 -1.6945331227596E-02 -2.3485571877117E-02
    12  1.1000000000000E-01  2.7986123329965E-01 -2.2797706236297E-02 -2.1482537069817E-02
    13  1.2000000000000E-01  3.3164917592510E-01 -2.9852502559910E-02 -1.7062081622124E-02
    14  1.3000000000000E-01  3.8726276683901E-01 -3.8150079253535E-02 -9.8902492842464E-03
    15  1.4000000000000E-01  4.4645866472582E-01 -4.7686773797247E-02  2.9789296445879E-04
    16  1.5000000000000E-01  5.0895232835182E-01 -5.8408961380089E-02  1.3684608771815E-02
    17  1.6000000000000E-01  5.7441669441059E-01 -7.0208539558524E-02  3.0358269741444E-02
    18  1.7000000000000E-01  6.4248180270947E-01 -8.2920050628438E-02  5.0304970434176E-02
    19  1.8000000000000E-01  7.1273545305532E-01 -9.6319604441851E-02  7.3403310409543E-02
    20  1.9000000000000E-01  7.8472494806645E-01 -1.1012570882318E-01  9.9422576838425E-02
    21  2.0000000000000E-01  8.5795994367121E-01 -1.2400205487458E-01  1.2802445720754E-01
    22  2.1000000000000E-01  9.3191639522766E-01 -1.3756224213112E-01  1.5876830256771E-01
    23  2.2000000000000E-01  1.0060415530432E+00 -1.5037636565441E-01  1.9111985092098E-01
    24  2.3000000000000E-01  1.0797599276341E+00 -1.6197932569166E-01  2.2446321105334E-01
    25  2.4000000000000E-01  1.1524801133809E+00 -1.7188066240612E-01  2.5811580272658E-01
    26  2.5000000000000E-01  1.2236023303011E+00 -1.7957566525551E-01  2.9134585286549E-01
    27  2.6000000000000E-01  1.2925265183958E+00 -1.8455746056541E-01  3.2339196218995E-01
    28  2.7000000000000E-01  1.3586607982599E+00 -1.8632974323553E-01  3.5348418534920E-01
    29  2.8000000000000E-01  1.4214300960588E+00 -1.8441979060648E-01  3.8086601230024E-01
    30  2.9000000000000E-01  1.4802847211302E+00 -1.7839137930364E-01  4.0481660127261E-01
    31  3.0000000000000E-01  1.5347086807345E+00 -1.6785722004763E-01  4.2467259549627E-01
    32  3.1000000000000E-01  1.5842275190600E+00 -1.5249053132782E-01  4.3984885768986E-01
    33  3.2000000000000E-01  1.6284154765013E+00 -1.3203539047066E-01  4.4985747827552E-01
    34  3.3000000000000E-01  1.6669017802913E+00 -1.0631552964238E-01  4.5432445498119E-01
    35  3.4000000000000E-01  1.6993758984234E+00 -7.5241283994327E-02  4.5300350187048E-01
    36  3.5000000000000E-01  1.7255916149032E+00 -3.8814448450610E-02  4.4578652332513E-01
    37  3.6000000000000E-01  1.7453698150153E+00  2.8691427944804E-03  4.3271038097321E-01
    38  3.7000000000000E-01  1.7585999036361E+00  4.9619435772960E-02  4.1395968641763E-01
    39  3.8000000000000E-01  1.7652398166893E+00  1.0115442788462E-01  3.8986546689936E-01
    40  3.9000000000000E-01  1.7653146245684E+00  1.5710487146934E-01  3.6089967143353E-01
    41  4.0000000000000E-01  1.7589137656095E+00  2.1702131804349E-01  3.2766560796195E-01
    42  4.1000000000000E-01  1.7461869863287E+00  2.8038334036985E-01  2.9088452405836E-01
    43  4.2000000000000E-01  1.7273391019867E+00  3.4661070212254E-01  2.5137866104761E-01
    44  4.3000000000000E-01  1.7026237249903E+00  4.1507618324398E-01  2.1005122051932E-01
    45  4.4000000000000E-01  1.6723361386380E+00  4.8511971512120E-01  1.6786377978059E-01
    46  4.5000000000000E-01  1.6368055188241E+00  5.5606343518212E-01  1.2581177576625E-01
    47  4.6000000000000E-01  1.5963867257152E+00  6.2722723692593E-01  8.4898742644554E-02
    48  4.7000000000000E-01  1.5514519004578E+00  6.9794436994608E-01  4.6110034667059E-02
    49  4.8000000000000E-01  1.5023821081873E+00  7.6757663603157E-01  1.0386791080583E-02
    50  4.9000000000000E-01  1.4495592677098E+00  8.3552873241749E-01 -2.1399096888461E-02
    51  5.0000000000000E-01  1.3933586001546E+00  9.0126131178457E-01 -4.8468276217334E-02
    52  5.1000000000000E-01  1.3341418137749E+00  9.6430236036057E-01 -7.0154780118389E-02
    53  5.2000000000000E-01  1.2722512202755E+00  1.0242565397395E+00 -8.5923797298890E-02
    54  5.3000000000000E-01  1.2080049501179E+00  1.0808121937073E+00 -9.5385808220845E-02
    55  5.4000000000000E-01  1.1416934009330E+00  1.1337457869878E+00 -9.8306634056429E-02
    56  5.5000000000000E-01  1.0735770153996E+00  1.1829236166254E+00 -9.4613058777656E-02
    57  5.6000000000000E-01  1.0038854437588E+00  1.2283007166482E+00 -8.4393811209891E-02
    58  5.7000000000000E-01  9.3281810273476E-01  1.2699169604439E+00 -6.7895828342424E-02
    59  5.8000000000000E-01  8.6054609827547E-01  1.3078904505102E+00 -4.5515859891450E-02
    60  5.9000000000000E-01  7.8721543552294E-01  1.3424083693997E+00 -1.7787613011831E-02
    61  6.0000000000000E-01  7.1295139711016E-01  1.3737155462592E+00  1.4635228920854E-02
    62  6.1000000000000E-01  6.3786393154021E-01  1.4021010678941E+00  5.0999652417621E-02
    63  6.2000000000000E-01  5.6205385827419E-01  1.4278833294542E+00  9.0477048482306E-02
    64  6.3000000000000E-01  4.8561966635679E-01  1.4513939755143E+00  1.3218935927421E-01
    65  6.4000000000000E-01  4.0866465993105E-01  1.4729612256568E+00  1.7523687883953E-01
    66  6.5000000000000E-01  3.3130418765320E-01  1.4928931081378E+00  2.1872688950428E-01
    67  6.6000000000000E-01  2.5367268443536E-01  1.5114611396806E+00  2.6180227834019E-01
    68  6.7000000000000E-01  1.7593025351953E-01  1.5288849881731E+00  3.0366926560462E-01
    69  6.8000000000000E-01  9.8268524793035E-02  1.5453186377519E+00  3.4362338993836E-01
    70  6.9000000000000E-01  2.0915541417126E-02  1.5608385426442E+00  3.8107293339590E-01
    71  7.0000000000000E-01 -5.5860549056318E-02  1.5754342078235E+00  4.1555903236321E-01
    72  7.1000000000000E-01 -1.3174919141706E-01  1.5890015721496E+00  4.4677180657390E-01
    73  7.2000000000000E-01 -2.0639666162238E-01  1.6013394947117E+00  4.7456194567656E-01
    74  7.3000000000000E-01 -2.7940695825660E-01  1.6121495595243E+00  4.9894731825556E-01
    75  7.4000000000000E-01 -3.5034440901220E-01  1.6210393197874E+00  5.2011430855332E-01
    76  7.5000000000000E-01 -4.1873800331404E-01  1.6275290031886E+00  5.3841373748459E-01
    77  7.6000000000000E-01 -4.8408740925636E-01  1.6310615969504E+00  5.5435138266041E-01
    78  7.7000000000000E-01 -5.4587057990446E-01  1.6310161284314E+00  5.6857327257369E-01
    79  7.8000000000000E-01 -6.0355280227745E-01  1.6267238570406E+00  5.8184608818451E-01
    80  7.9000000000000E-01 -6.5659699351080E-01  1.6174869989646E+00  5.9503315630312E-01
    81  8.0000000000000E-01 -7.0447500427982E-01  1.6025995205707E+00  6.0906665887981E-01
    82  8.1000000000000E-01 -7.4667965093161E-01  1.5813694619708E+00  6.2491680638131E-01
    83  8.2000000000000E-01 -7.8273716616610E-01  1.5531421914847E+00  6.4355882800295E-01
    84  8.3000000000000E-01 -8.1221973459174E-01  1.5173239466438E+00  6.6593871323770E-01
    85  8.4000000000000E-01 -8.3475776490916E-01  1.4734049895390E+00  6.9293869555194E-01
    86  8.5000000000000E-01 -8.5005154546188E-01  1.4209816948986E+00  7.2534349760854E-01
    87  8.6000000000000E-01 -8.5788193478791E-01  1.3597768989250E+00  7.6380835733941E-01
    88  8.7000000000000E-01 -8.5811975368476E-01  1.2896578657522E+00  8.0882982478606E-01
    89  8.8000000000000E-01 -8.5073356995958E-01  1.2106512759876E+00  8.6072026132885E-01
    90  8.9000000000000E-01 -8.3579560098495E-01  1.1229547072122E+00  9.1958688697625E-01
    91  9.0000000000000E-01 -8.1348550166477E-01  1.0269441580663E+00  9.8531610975832E-01
    92  9.1000000000000E-01 -7.8409185541600E-01  9.2317726367476E-01  1.0575637367639E+00
    93  9.2000000000000E-01 -7.4801124205123E-01  8.1239195827043E-01  1.1357515124385E+00
    94  9.3000000000000E-01 -7.0574481756278E-01  6.9550045819205E-01  1.2190702604860E+00
    95  9.4000000000000E-01 -6.5789240514838E-01  5.7357856184941E-01  1.3064897256672E+00
    96  9.5000000000000E-01 -6.0514416268762E-01  4.4785038952543E-01  1.3967750258352E+00
    97  9.6000000000000E-01 -5.4826995745249E-01  3.1966881151064E-01  1.4885094379238E+00
    98  9.7000000000000E-01 -4.8810664232835E-01  1.9049193462572E-01  1.5801230594796E+00
    99  9.8000000000000E-01 -4.2554348743337E-01  6.1856131231462E-02  1.6699267149427E+00
   100  9.9000000000000E-01 -3.6150607505011E-01 -6.4653801905184E-02  1.7561503181771E+00
   101  1.0000000000000E+00 -2.9693901266426E-01 -1.8743667800548E-01  1.8369847643317E+00
   102  1.0100000000000E+00 -2.3278785720097E-01 -3.0490839803788E-01  1.9106263091725E+00
   103  1.0200000000000E+00 -1.6998067209525E-01 -4.1553606765731E-01  1.9753223060676E+00
   104  1.0300000000000E+00 -1.0940965670153E-01 -5.1787191533636E-01  2.0294171125664E+00
   105  1.0400000000000E+00 -5.1913294031718E-02 -6.1058616172446E-01  2.0713969521541E+00
   106  1.0500000000000E+00  1.7405423782521E-03 -6.9249800066001E-01  2.0999325232614E+00
   107  1.0600000000000E+00  5.0870098641117E-02 -7.6260388520400E-01  2.1139181873168E+00
   108  1.0700000000000E+00  9.4893472338454E-02 -8.2010236695947E-01  2.1125066398612E+00
   109  1.0800000000000E+00  1.3334020984637E-01 -8.6441481250726E-01  2.0951380716482E+00
   110  1.0900000000000E+00  1.6586046240424E-01 -8.9520141571103E-01  2.0615629583954E+00
   111  1.1000000000000E+00  1.9223145209231E-01 -9.1237203588426E-01  2.0118577740304E+00
   112  1.1100000000000E+00  2.1236106447720E-01 -9.1609151766928E-01  1.9464331003807E+00
   113  1.1200000000000E+00  2.2628845566549E-01 -9.0677928458212E-01  1.8660337999234E+00
   114  1.1300000000000E+00  2.3418163667208E-01 -8.8510314222368E-01  1.7717311240067E+00
   115  1.1400000000000E+00  2.3633207485621E-01 -8.5196737434046E-01  1.6649068398342E+00
   116  1.1500000000000E+00  2.3314642918272E-01 -8.0849536232715E-01  1.5472296711388E+00