Cd    ONCVPSP-4.0.1  r_core=   1.25713   1.30307   1.35069
     48.0000     20.0000      250925    zatom,zion,pspd
     8   -1012   2     4   600     0    pspcod,pspxc,lmax,lloc,mmax,r2well
  5.99000000  6.00000000  0.00000000    rchrg fchrg qchrg
     2     3     3     0    nproj
     3     1           extension_switch
     3     3     0    nprojso
   0                         4.1525968267774E+01  3.1655476240874E+00
     1  0.0000000000000E+00  1.4364525569022E-08 -2.8119412007199E-08
     2  1.0000000000000E-02  9.5718159135549E-02 -8.1530135878179E-03
     3  2.0000000000000E-02  1.9126975811164E-01 -1.6410544231065E-02
     4  3.0000000000000E-02  2.8648459553668E-01 -2.4868828503754E-02
     5  4.0000000000000E-02  3.8118532165909E-01 -3.3607806240687E-02
     6  5.0000000000000E-02  4.7518419559631E-01 -4.2683625184973E-02
     7  6.0000000000000E-02  5.6828022957556E-01 -5.2121908346925E-02
     8  7.0000000000000E-02  6.6025683170704E-01 -6.1912004081798E-02
     9  8.0000000000000E-02  7.5088004444564E-01 -7.2002410774411E-02
    10  9.0000000000000E-02  8.3989745869847E-01 -8.2297534356313E-02
    11  1.0000000000000E-01  9.2703786397644E-01 -9.2655898606901E-02
    12  1.1000000000000E-01  1.0120116736093E+00 -1.0288988636506E-01
    13  1.2000000000000E-01  1.0945121414362E+00 -1.1276704556324E-01
    14  1.3000000000000E-01  1.1742173631732E+00 -1.2201294862106E-01
    15  1.4000000000000E-01  1.2507930324946E+00 -1.3031554846662E-01
    16  1.5000000000000E-01  1.3238958993813E+00 -1.3733093055479E-01
    17  1.6000000000000E-01  1.3931778571324E+00 -1.4269031895869E-01
    18  1.7000000000000E-01  1.4582905651796E+00 -1.4600815708442E-01
    19  1.8000000000000E-01  1.5188904980509E+00 -1.4689105086857E-01
    20  1.9000000000000E-01  1.5746442969662E+00 -1.4494733539768E-01
    21  2.0000000000000E-01  1.6252342900205E+00 -1.3979700552107E-01
    22  2.1000000000000E-01  1.6703640400252E+00 -1.3108173781585E-01
    23  2.2000000000000E-01  1.7097637760518E+00 -1.1847472561650E-01
    24  2.3000000000000E-01  1.7431955656574E+00 -1.0169005094285E-01
    25  2.4000000000000E-01  1.7704580896663E+00 -8.0491327038861E-02
    26  2.5000000000000E-01  1.7913908901276E+00 -5.4699362644961E-02
    27  2.6000000000000E-01  1.8058779744500E+00 -2.4198623635414E-02
    28  2.7000000000000E-01  1.8138506744036E+00  1.1057701375785E-02
    29  2.8000000000000E-01  1.8152896772783E+00  5.1044188236654E-02
    30  2.9000000000000E-01  1.8102261674907E+00  9.5661332752199E-02
    31  3.0000000000000E-01  1.7987420397839E+00  1.4473544511079E-01
    32  3.1000000000000E-01  1.7809691692417E+00  1.9802030669785E-01
    33  3.2000000000000E-01  1.7570877479903E+00  2.5520056452598E-01
    34  3.3000000000000E-01  1.7273237230062E+00  3.1589679057686E-01
    35  3.4000000000000E-01  1.6919453932154E+00  3.7967208704180E-01
    36  3.5000000000000E-01  1.6512592463854E+00  4.4604007506748E-01
    37  3.6000000000000E-01  1.6056051365666E+00  5.1447406539443E-01
    38  3.7000000000000E-01  1.5553509204389E+00  5.8441717534343E-01
    39  3.8000000000000E-01  1.5008866853759E+00  6.5529312895393E-01
    40  3.9000000000000E-01  1.4426187129143E+00  7.2651745653337E-01
    41  4.0000000000000E-01  1.3809633282920E+00  7.9750879707666E-01
    42  4.1000000000000E-01  1.3163407895675E+00  8.6770000239149E-01
    43  4.2000000000000E-01  1.2491693684408E+00  9.3654874552471E-01
    44  4.3000000000000E-01  1.1798597692781E+00  1.0035473482071E+00
    45  4.4000000000000E-01  1.1088100231090E+00  1.0682315622655E+00
    46  4.5000000000000E-01  1.0364009797605E+00  1.1301880678088E+00
    47  4.6000000000000E-01  9.6299250416378E-01  1.1890604857861E+00
    48  4.7000000000000E-01  8.8892046266035E-01  1.2445537433377E+00
    49  4.8000000000000E-01  8.1449456238907E-01  1.2964366761450E+00
    50  4.9000000000000E-01  7.3999708216356E-01  1.3445428015024E+00
    51  5.0000000000000E-01  6.6568250732697E-01  1.3887692477495E+00
    52  5.1000000000000E-01  5.9177805461663E-01  1.4290738785799E+00
    53  5.2000000000000E-01  5.1848504682040E-01  1.4654707031237E+00
    54  5.3000000000000E-01  4.4598107170657E-01  1.4980237131048E+00
    55  5.4000000000000E-01  3.7442283608190E-01  1.5268393353636E+00
    56  5.5000000000000E-01  3.0394960456651E-01  1.5520577302497E+00
    57  5.6000000000000E-01  2.3468709440131E-01  1.5738432025763E+00
    58  5.7000000000000E-01  1.6675168287634E-01  1.5923740208930E+00
    59  5.8000000000000E-01  1.0025477325312E-01  1.6078319618527E+00
    60  5.9000000000000E-01  3.5307158708582E-02  1.6203919087218E+00
    61  6.0000000000000E-01 -2.7976777906958E-02  1.6302118361318E+00
    62  6.1000000000000E-01 -8.9475187710016E-02  1.6374235067581E+00
    63  6.2000000000000E-01 -1.4905535432541E-01  1.6421241897916E+00
    64  6.3000000000000E-01 -2.0657090654889E-01  1.6443696860987E+00
    65  6.4000000000000E-01 -2.6185976777139E-01  1.6441689114247E+00
    66  6.5000000000000E-01 -3.1474294432254E-01  1.6414802476552E+00
    67  6.6000000000000E-01 -3.6502423101823E-01  1.6362098240351E+00
    68  6.7000000000000E-01 -4.1249088554891E-01  1.6282118365860E+00
    69  6.8000000000000E-01 -4.5691529461769E-01  1.6172909561396E+00
    70  6.9000000000000E-01 -4.9805762470696E-01  1.6032068149638E+00
    71  7.0000000000000E-01 -5.3566941982883E-01  1.5856805005166E+00
    72  7.1000000000000E-01 -5.6949807845351E-01  1.5644029241157E+00
    73  7.2000000000000E-01 -5.9929211285237E-01  1.5390448739364E+00
    74  7.3000000000000E-01 -6.2480706717974E-01  1.5092685074272E+00
    75  7.4000000000000E-01 -6.4581194653303E-01  1.4747399895077E+00
    76  7.5000000000000E-01 -6.6209598870826E-01  1.4351429412640E+00
    77  7.6000000000000E-01 -6.7347559404658E-01  1.3901923305472E+00
    78  7.7000000000000E-01 -6.7980121718894E-01  1.3396484119948E+00
    79  7.8000000000000E-01 -6.8096401814178E-01  1.2833303103763E+00
    80  7.9000000000000E-01 -6.7690206909368E-01  1.2211288383930E+00
    81  8.0000000000000E-01 -6.6760591805750E-01  1.1530181484228E+00
    82  8.1000000000000E-01 -6.5312332064070E-01  1.0790658372150E+00
    83  8.2000000000000E-01 -6.3356296691537E-01  9.9944115288639E-01
    84  8.3000000000000E-01 -6.0909705116241E-01  9.1442099417146E-01
    85  8.4000000000000E-01 -5.7996255775674E-01  8.2439344184360E-01
    86  8.5000000000000E-01 -5.4646116605787E-01  7.2985862041240E-01
    87  8.6000000000000E-01 -5.0895771017331E-01  6.3142675322367E-01
    88  8.7000000000000E-01 -4.6787716506244E-01  5.2981334435393E-01
    89  8.8000000000000E-01 -4.2370016775782E-01  4.2583149444010E-01
    90  8.9000000000000E-01 -3.7695712054791E-01  3.2038143293735E-01
    91  9.0000000000000E-01 -3.2822096080043E-01  2.1443742429495E-01
    92  9.1000000000000E-01 -2.7809871870990E-01  1.0903227820217E-01
    93  9.2000000000000E-01 -2.2722201864182E-01  5.2397624345276E-03
    94  9.3000000000000E-01 -1.7623671097450E-01 -9.5844720952484E-02
    95  9.4000000000000E-01 -1.2579184852797E-01 -1.9312478101964E-01
    96  9.5000000000000E-01 -7.6528244039267E-02 -2.8552454500703E-01
    97  9.6000000000000E-01 -2.9066862008629E-02 -3.7201053309392E-01
    98  9.7000000000000E-01  1.6002690930455E-02 -4.5161338471675E-01
    99  9.8000000000000E-01  5.8133308572934E-02 -5.2344891081667E-01
   100  9.9000000000000E-01  9.6830894363405E-02 -5.8673795003364E-01
   101  1.0000000000000E+00  1.3166398001478E-01 -6.4082452380501E-01
   102  1.0100000000000E+00  1.6227221190155E-01 -6.8519181535669E-01
   103  1.0200000000000E+00  1.8837348557211E-01 -7.1947554011175E-01
   104  1.0300000000000E+00  2.0976953661382E-01 -7.4347432929163E-01
   105  1.0400000000000E+00  2.2634982928958E-01 -7.5715681322293E-01
   106  1.0500000000000E+00  2.3809362205597E-01 -7.6066516453833E-01
   107  1.0600000000000E+00  2.4507013051041E-01 -7.5431494257844E-01
   108  1.0700000000000E+00  2.4743675239822E-01 -7.3859116670093E-01
   109  1.0800000000000E+00  2.4543536501375E-01 -7.1414063586161E-01
   110  1.0900000000000E+00  2.3938675166776E-01 -6.8176060281005E-01
   111  1.1000000000000E+00  2.2968325943511E-01 -6.4238400072196E-01
   112  1.1100000000000E+00  2.1677983440624E-01 -5.9706150661548E-01
   113  1.1200000000000E+00  2.0118362160953E-01 -5.4694080645205E-01
   114  1.1300000000000E+00  1.8344235399530E-01 -4.9324350010615E-01
   115  1.1400000000000E+00  1.6413178710328E-01 -4.3724014789561E-01
   116  1.1500000000000E+00  1.4384246267369E-01 -3.8022401290800E-01
   117  1.1600000000000E+00  1.2316610461223E-01 -3.2348409316782E-01
   118  1.1700000000000E+00  1.0268196397305E-01 -2.6827806395880E-01
   119  1.1800000000000E+00  8.2943372407202E-02 -2.1580565074430E-01
   120  1.1900000000000E+00  6.4465330299089E-02 -1.6718395336878E-01
   121  1.2000000000000E+00  4.7694721194979E-02 -1.2339192438026E-01
   122  1.2100000000000E+00  3.2976321961891E-02 -8.5206387050235E-02
   123  1.2200000000000E+00  2.0678620891212E-02 -5.3425763339598E-02
   124  1.2300000000000E+00  1.1093218126168E-02 -2.8690791018168E-02
   125  1.2400000000000E+00  4.4211861267865E-03 -1.1459777296946E-02
   126  1.2500000000000E+00  7.6487422342634E-04 -1.9892037582800E-03
   127  1.2600000000000E+00 -4.1338188845362E-05  1.0783641685291E-04
   128  1.2700000000000E+00  9.1956523262319E-06 -2.3958462394107E-05
   129  1.28  0.  0.
   130  1.29  0.  0.
   131  1.30  0.  0.
   132  1.31  0.  0.
   133  1.32  0.  0.
   134  1.33  0.  0.
   135  1.34  0.  0.
   136  1.35  0.  0.
   137  1.36  0.  0.
   138  1.37  0.  0.
   139  1.38  0.  0.
   140  1.39  0.  0.
   141  1.40  0.  0.
   142  1.41  0.  0.
   143  1.42  0.  0.
   144  1.43  0.  0.
   145  1.44  0.  0.
   146  1.45  0.  0.
   147  1.46  0.  0.
   148  1.47  0.  0.
   149  1.48  0.  0.
   150  1.49  0.  0.
   151  1.50  0.  0.
   152  1.51  0.  0.
   153  1.52  0.  0.
   154  1.53  0.  0.
   155  1.54  0.  0.
   156  1.55  0.  0.
   157  1.56  0.  0.
   158  1.57  0.  0.
   159  1.58  0.  0.
   160  1.59  0.  0.
   161  1.60  0.  0.
   162  1.61  0.  0.
   163  1.62  0.  0.
   164  1.63  0.  0.
   165  1.64  0.  0.
   166  1.65  0.  0.
   167  1.66  0.  0.
   168  1.67  0.  0.
   169  1.68  0.  0.
   170  1.69  0.  0.
   171  1.70  0.  0.
   172  1.71  0.  0.
   173  1.72  0.  0.
   174  1.73  0.  0.
   175  1.74  0.  0.
   176  1.75  0.  0.
   177  1.76  0.  0.
   178  1.77  0.  0.
   179  1.78  0.  0.
   180  1.79  0.  0.
   181  1.80  0.  0.
   182  1.81  0.  0.
   183  1.82  0.  0.
   184  1.83  0.  0.
   185  1.84  0.  0.
   186  1.85  0.  0.
   187  1.86  0.  0.
   188  1.87  0.  0.
   189  1.88  0.  0.
   190  1.89  0.  0.
   191  1.90  0.  0.
   192  1.91  0.  0.
   193  1.92  0.  0.
   194  1.93  0.  0.
   195  1.94  0.  0.
   196  1.95  0.  0.
   197  1.96  0.  0.
   198  1.97  0.  0.
   199  1.98  0.  0.
   200  1.99  0.  0.
   201  2.00  0.  0.
   202  2.01  0.  0.
   203  2.02  0.  0.
   204  2.03  0.  0.
   205  2.04  0.  0.
   206  2.05  0.  0.
   207  2.06  0.  0.
   208  2.07  0.  0.
   209  2.08  0.  0.
   210  2.09  0.  0.
   211  2.10  0.  0.
   212  2.11  0.  0.
   213  2.12  0.  0.
   214  2.13  0.  0.
   215  2.14  0.  0.
   216  2.15  0.  0.
   217  2.16  0.  0.
   218  2.17  0.  0.
   219  2.18  0.  0.
   220  2.19  0.  0.
   221  2.20  0.  0.
   222  2.21  0.  0.
   223  2.22  0.  0.
   224  2.23  0.  0.
   225  2.24  0.  0.
   226  2.25  0.  0.
   227  2.26  0.  0.
   228  2.27  0.  0.
   229  2.28  0.  0.
   230  2.29  0.  0.
   231  2.30  0.  0.
   232  2.31  0.  0.
   233  2.32  0.  0.
   234  2.33  0.  0.
   235  2.34  0.  0.
   236  2.35  0.  0.
   237  2.36  0.  0.
   238  2.37  0.  0.
   239  2.38  0.  0.
   240  2.39  0.  0.
   241  2.40  0.  0.
   242  2.41  0.  0.
   243  2.42  0.  0.
   244  2.43  0.  0.
   245  2.44  0.  0.
   246  2.45  0.  0.
   247  2.46  0.  0.
   248  2.47  0.  0.
   249  2.48  0.  0.
   250  2.49  0.  0.
   251  2.50  0.  0.
   252  2.51  0.  0.
   253  2.52  0.  0.
   254  2.53  0.  0.
   255  2.54  0.  0.
   256  2.55  0.  0.
   257  2.56  0.  0.
   258  2.57  0.  0.
   259  2.58  0.  0.
   260  2.59  0.  0.
   261  2.60  0.  0.
   262  2.61  0.  0.
   263  2.62  0.  0.
   264  2.63  0.  0.
   265  2.64  0.  0.
   266  2.65  0.  0.
   267  2.66  0.  0.
   268  2.67  0.  0.
   269  2.68  0.  0.
   270  2.69  0.  0.
   271  2.70  0.  0.
   272  2.71  0.  0.
   273  2.72  0.  0.
   274  2.73  0.  0.
   275  2.74  0.  0.
   276  2.75  0.  0.
   277  2.76  0.  0.
   278  2.77  0.  0.
   279  2.78  0.  0.
   280  2.79  0.  0.
   281  2.80  0.  0.
   282  2.81  0.  0.
   283  2.82  0.  0.
   284  2.83  0.  0.
   285  2.84  0.  0.
   286  2.85  0.  0.
   287  2.86  0.  0.
   288  2.87  0.  0.
   289  2.88  0.  0.
   290  2.89  0.  0.
   291  2.90  0.  0.
   292  2.91  0.  0.
   293  2.92  0.  0.
   294  2.93  0.  0.
   295  2.94  0.  0.
   296  2.95  0.  0.
   297  2.96  0.  0.
   298  2.97  0.  0.
   299  2.98  0.  0.
   300  2.99  0.  0.
   301  3.00  0.  0.
   302  3.01  0.  0.
   303  3.02  0.  0.
   304  3.03  0.  0.
   305  3.04  0.  0.
   306  3.05  0.  0.
   307  3.06  0.  0.
   308  3.07  0.  0.
   309  3.08  0.  0.
   310  3.09  0.  0.
   311  3.10  0.  0.
   312  3.11  0.  0.
   313  3.12  0.  0.
   314  3.13  0.  0.
   315  3.14  0.  0.
   316  3.15  0.  0.
   317  3.16  0.  0.
   318  3.17  0.  0.
   319  3.18  0.  0.
   320  3.19  0.  0.
   321  3.20  0.  0.
   322  3.21  0.  0.
   323  3.22  0.  0.
   324  3.23  0.  0.
   325  3.24  0.  0.
   326  3.25  0.  0.
   327  3.26  0.  0.
   328  3.27  0.  0.
   329  3.28  0.  0.
   330  3.29  0.  0.
   331  3.30  0.  0.
   332  3.31  0.  0.
   333  3.32  0.  0.
   334  3.33  0.  0.
   335  3.34  0.  0.
   336  3.35  0.  0.
   337  3.36  0.  0.
   338  3.37  0.  0.
   339  3.38  0.  0.
   340  3.39  0.  0.
   341  3.40  0.  0.
   342  3.41  0.  0.
   343  3.42  0.  0.
   344  3.43  0.  0.
   345  3.44  0.  0.
   346  3.45  0.  0.
   347  3.46  0.  0.
   348  3.47  0.  0.
   349  3.48  0.  0.
   350  3.49  0.  0.
   351  3.50  0.  0.
   352  3.51  0.  0.
   353  3.52  0.  0.
   354  3.53  0.  0.
   355  3.54  0.  0.
   356  3.55  0.  0.
   357  3.56  0.  0.
   358  3.57  0.  0.
   359  3.58  0.  0.
   360  3.59  0.  0.
   361  3.60  0.  0.
   362  3.61  0.  0.
   363  3.62  0.  0.
   364  3.63  0.  0.
   365  3.64  0.  0.
   366  3.65  0.  0.
   367  3.66  0.  0.
   368  3.67  0.  0.
   369  3.68  0.  0.
   370  3.69  0.  0.
   371  3.70  0.  0.
   372  3.71  0.  0.
   373  3.72  0.  0.
   374  3.73  0.  0.
   375  3.74  0.  0.
   376  3.75  0.  0.
   377  3.76  0.  0.
   378  3.77  0.  0.
   379  3.78  0.  0.
   380  3.79  0.  0.
   381  3.80  0.  0.
   382  3.81  0.  0.
   383  3.82  0.  0.
   384  3.83  0.  0.
   385  3.84  0.  0.
   386  3.85  0.  0.
   387  3.86  0.  0.
   388  3.87  0.  0.
   389  3.88  0.  0.
   390  3.89  0.  0.
   391  3.90  0.  0.
   392  3.91  0.  0.
   393  3.92  0.  0.
   394  3.93  0.  0.
   395  3.94  0.  0.
   396  3.95  0.  0.
   397  3.96  0.  0.
   398  3.97  0.  0.
   399  3.98  0.  0.
   400  3.99  0.  0.
   401  4.00  0.  0.
   402  4.01  0.  0.
   403  4.02  0.  0.
   404  4.03  0.  0.
   405  4.04  0.  0.
   406  4.05  0.  0.
   407  4.06  0.  0.
   408  4.07  0.  0.
   409  4.08  0.  0.
   410  4.09  0.  0.
   411  4.10  0.  0.
   412  4.11  0.  0.
   413  4.12  0.  0.
   414  4.13  0.  0.
   415  4.14  0.  0.
   416  4.15  0.  0.
   417  4.16  0.  0.
   418  4.17  0.  0.
   419  4.18  0.  0.
   420  4.19  0.  0.
   421  4.20  0.  0.
   422  4.21  0.  0.
   423  4.22  0.  0.
   424  4.23  0.  0.
   425  4.24  0.  0.
   426  4.25  0.  0.
   427  4.26  0.  0.
   428  4.27  0.  0.
   429  4.28  0.  0.
   430  4.29  0.  0.
   431  4.30  0.  0.
   432  4.31  0.  0.
   433  4.32  0.  0.
   434  4.33  0.  0.
   435  4.34  0.  0.
   436  4.35  0.  0.
   437  4.36  0.  0.
   438  4.37  0.  0.
   439  4.38  0.  0.
   440  4.39  0.  0.
   441  4.40  0.  0.
   442  4.41  0.  0.
   443  4.42  0.  0.
   444  4.43  0.  0.
   445  4.44  0.  0.
   446  4.45  0.  0.
   447  4.46  0.  0.
   448  4.47  0.  0.
   449  4.48  0.  0.
   450  4.49  0.  0.
   451  4.50  0.  0.
   452  4.51  0.  0.
   453  4.52  0.  0.
   454  4.53  0.  0.
   455  4.54  0.  0.
   456  4.55  0.  0.
   457  4.56  0.  0.
   458  4.57  0.  0.
   459  4.58  0.  0.
   460  4.59  0.  0.
   461  4.60  0.  0.
   462  4.61  0.  0.
   463  4.62  0.  0.
   464  4.63  0.  0.
   465  4.64  0.  0.
   466  4.65  0.  0.
   467  4.66  0.  0.
   468  4.67  0.  0.
   469  4.68  0.  0.
   470  4.69  0.  0.
   471  4.70  0.  0.
   472  4.71  0.  0.
   473  4.72  0.  0.
   474  4.73  0.  0.
   475  4.74  0.  0.
   476  4.75  0.  0.
   477  4.76  0.  0.
   478  4.77  0.  0.
   479  4.78  0.  0.
   480  4.79  0.  0.
   481  4.80  0.  0.
   482  4.81  0.  0.
   483  4.82  0.  0.
   484  4.83  0.  0.
   485  4.84  0.  0.
   486  4.85  0.  0.
   487  4.86  0.  0.
   488  4.87  0.  0.
   489  4.88  0.  0.
   490  4.89  0.  0.
   491  4.90  0.  0.
   492  4.91  0.  0.
   493  4.92  0.  0.
   494  4.93  0.  0.
   495  4.94  0.  0.
   496  4.95  0.  0.
   497  4.96  0.  0.
   498  4.97  0.  0.
   499  4.98  0.  0.
   500  4.99  0.  0.
   501  5.00  0.  0.
   502  5.01  0.  0.
   503  5.02  0.  0.
   504  5.03  0.  0.
   505  5.04  0.  0.
   506  5.05  0.  0.
   507  5.06  0.  0.
   508  5.07  0.  0.
   509  5.08  0.  0.
   510  5.09  0.  0.
   511  5.10  0.  0.
   512  5.11  0.  0.
   513  5.12  0.  0.
   514  5.13  0.  0.
   515  5.14  0.  0.
   516  5.15  0.  0.
   517  5.16  0.  0.
   518  5.17  0.  0.
   519  5.18  0.  0.
   520  5.19  0.  0.
   521  5.20  0.  0.
   522  5.21  0.  0.
   523  5.22  0.  0.
   524  5.23  0.  0.
   525  5.24  0.  0.
   526  5.25  0.  0.
   527  5.26  0.  0.
   528  5.27  0.  0.
   529  5.28  0.  0.
   530  5.29  0.  0.
   531  5.30  0.  0.
   532  5.31  0.  0.
   533  5.32  0.  0.
   534  5.33  0.  0.
   535  5.34  0.  0.
   536  5.35  0.  0.
   537  5.36  0.  0.
   538  5.37  0.  0.
   539  5.38  0.  0.
   540  5.39  0.  0.
   541  5.40  0.  0.
   542  5.41  0.  0.
   543  5.42  0.  0.
   544  5.43  0.  0.
   545  5.44  0.  0.
   546  5.45  0.  0.
   547  5.46  0.  0.
   548  5.47  0.  0.
   549  5.48  0.  0.
   550  5.49  0.  0.
   551  5.50  0.  0.
   552  5.51  0.  0.
   553  5.52  0.  0.
   554  5.53  0.  0.
   555  5.54  0.  0.
   556  5.55  0.  0.
   557  5.56  0.  0.
   558  5.57  0.  0.
   559  5.58  0.  0.
   560  5.59  0.  0.
   561  5.60  0.  0.
   562  5.61  0.  0.
   563  5.62  0.  0.
   564  5.63  0.  0.
   565  5.64  0.  0.
   566  5.65  0.  0.
   567  5.66  0.  0.
   568  5.67  0.  0.
   569  5.68  0.  0.
   570  5.69  0.  0.
   571  5.70  0.  0.
   572  5.71  0.  0.
   573  5.72  0.  0.
   574  5.73  0.  0.
   575  5.74  0.  0.
   576  5.75  0.  0.
   577  5.76  0.  0.
   578  5.77  0.  0.
   579  5.78  0.  0.
   580  5.79  0.  0.
   581  5.80  0.  0.
   582  5.81  0.  0.
   583  5.82  0.  0.
   584  5.83  0.  0.
   585  5.84  0.  0.
   586  5.85  0.  0.
   587  5.86  0.  0.
   588  5.87  0.  0.
   589  5.88  0.  0.
   590  5.89  0.  0.
   591  5.90  0.  0.
   592  5.91  0.  0.
   593  5.92  0.  0.
   594  5.93  0.  0.
   595  5.94  0.  0.
   596  5.95  0.  0.
   597  5.96  0.  0.
   598  5.97  0.  0.
   599  5.98  0.  0.
   600  5.99  0.  0.
   1                         9.6489707201345E+00  1.4844334154177E+00  1.5095233601856E-02
     1  0.0000000000000E+00 -2.3641041485556E-08  4.4411908909150E-08 -8.0911225965735E-08
     2  1.0000000000000E-02  2.3472154806966E-03 -5.4835398039045E-05 -5.5361207485502E-04
     3  2.0000000000000E-02  9.3868397958874E-03 -2.3564819033412E-04 -2.1709499730867E-03
     4  3.0000000000000E-02  2.1112402436626E-02 -5.9052357668720E-04 -4.7231496104384E-03
     5  4.0000000000000E-02  3.7511787816408E-02 -1.1968509967649E-03 -8.0008208366075E-03
     6  5.0000000000000E-02  5.8565292573455E-02 -2.1572973305401E-03 -1.1721938579361E-02
     7  6.0000000000000E-02  8.4243012819898E-02 -3.5943701140634E-03 -1.5542528575593E-02
     8  7.0000000000000E-02  1.1450166423530E-01 -5.6437638043367E-03 -1.9069799189375E-02
     9  8.0000000000000E-02  1.4928096154307E-01 -8.4467265389706E-03 -2.1877289905834E-02
    10  9.0000000000000E-02  1.8849970347329E-01 -1.2141721647590E-02 -2.3521539406679E-02
    11  1.0000000000000E-01  2.3205172415662E-01 -1.6855686176040E-02 -2.3559723784231E-02
    12  1.1000000000000E-01  2.7980188150966E-01 -2.2695206950469E-02 -2.1567680096824E-02
    13  1.2000000000000E-01  3.3158225721787E-01 -2.9737942596407E-02 -1.7157713268062E-02
    14  1.3000000000000E-01  3.8718874122600E-01 -3.8024617125421E-02 -9.9955858578196E-03
    15  1.4000000000000E-01  4.4637816621013E-01 -4.7551897216197E-02  1.8388942725675E-04
    16  1.5000000000000E-01  5.0886614451028E-01 -5.8266441494804E-02  1.3563196033382E-02
    17  1.6000000000000E-01  5.7432574180110E-01 -7.0060376623775E-02  3.0230884441319E-02
    18  1.7000000000000E-01  6.4238709888429E-01 -8.2768412809594E-02  5.0173182032847E-02
    19  1.8000000000000E-01  7.1263808606485E-01 -9.6166761679093E-02  7.3268771479005E-02
    20  1.9000000000000E-01  7.8462604441499E-01 -1.0997396384015E-01  9.9286971296404E-02
    21  2.0000000000000E-01  8.5786063573340E-01 -1.2385367351333E-01  1.2788944816427E-01
    22  2.1000000000000E-01  9.3181778915144E-01 -1.3741938522506E-01  1.5863548146979E-01
    23  2.2000000000000E-01  1.0059446981502E+00 -1.5024102461301E-01  1.9099068964392E-01
    24  2.3000000000000E-01  1.0796657882826E+00 -1.6185326386432E-01  2.2433901850421E-01
    25  2.4000000000000E-01  1.1523895441806E+00 -1.7176536412220E-01  2.5799768738513E-01
    26  2.5000000000000E-01  1.2235160554646E+00 -1.7947229420643E-01  2.9123469250367E-01
    27  2.6000000000000E-01  1.2924451158844E+00 -1.8446682891037E-01  3.2328838179144E-01
    28  2.7000000000000E-01  1.3585846892297E+00 -1.8625229248254E-01  3.5338854398824E-01
    29  2.8000000000000E-01  1.4213595399479E+00 -1.8435558495527E-01  3.8077839945802E-01
    30  2.9000000000000E-01  1.4802198165480E+00 -1.7834011174639E-01  4.0473684276507E-01
    31  3.0000000000000E-01  1.5346493721311E+00 -1.6781823112068E-01  4.2460026887840E-01
    32  3.1000000000000E-01  1.5841736089654E+00 -1.5246284000255E-01  4.3978331668792E-01
    33  3.2000000000000E-01  1.6283666429442E+00 -1.3201773627936E-01  4.4979788550307E-01
    34  3.3000000000000E-01  1.6668575988364E+00 -1.0630642476497E-01  4.5426982191254E-01
    35  3.4000000000000E-01  1.6993358681101E+00 -7.5239073697296E-02  4.5295273479250E-01
    36  3.5000000000000E-01  1.7255551872341E+00 -3.8817377980763E-02  4.4573847377778E-01
    37  3.6000000000000E-01  1.7453364250320E+00  2.8628569935318E-03  4.3266389901350E-01
    38  3.7000000000000E-01  1.7585690020394E+00  4.9611532824466E-02  4.1391367492556E-01
    39  3.8000000000000E-01  1.7652109019081E+00  1.0114652962861E-01  3.8981893507322E-01
    40  3.9000000000000E-01  1.7652872736674E+00  1.5709841243453E-01  3.6085178561536E-01
    41  4.0000000000000E-01  1.7588876629391E+00  2.1701748063221E-01  3.2761573798072E-01
    42  4.1000000000000E-01  1.7461619488746E+00  2.8038299752810E-01  2.9083228338454E-01
    43  4.2000000000000E-01  1.7273151004582E+00  3.4661436957572E-01  2.5132393921512E-01
    44  4.3000000000000E-01  1.7026008998024E+00  4.1508398312123E-01  2.0999420648059E-01
    45  4.4000000000000E-01  1.6723148100863E+00  4.8513135247183E-01  1.6780497512396E-01
    46  4.5000000000000E-01  1.6367861909164E+00  5.5607818851779E-01  1.2575199701378E-01
    47  4.6000000000000E-01  1.5963700833124E+00  6.2724396350911E-01  8.4839112184684E-02
    48  4.7000000000000E-01  1.5514387995761E+00  6.9796152610424E-01  4.6051960217455E-02
    49  4.8000000000000E-01  1.5023735595251E+00  7.6759231231628E-01  1.0331933936738E-02
    50  4.9000000000000E-01  1.4495564136730E+00  8.3554070296537E-01 -2.1448864200795E-02
    51  5.0000000000000E-01  1.3933626858621E+00  9.0126709678309E-01 -4.8510921923274E-02
    52  5.1000000000000E-01  1.3341541527250E+00  9.6429930009225E-01 -7.0188173517604E-02
    53  5.2000000000000E-01  1.2722731555363E+00  1.0242418782852E+00 -8.5945775844293E-02
    54  5.3000000000000E-01  1.2080378120626E+00  1.0807831700448E+00 -9.5394249511642E-02
    55  5.4000000000000E-01  1.1417384626779E+00  1.1336997309377E+00 -9.8299530698572E-02
    56  5.5000000000000E-01  1.0736354472027E+00  1.1828580468815E+00 -9.4588593912452E-02
    57  5.6000000000000E-01  1.0039582677044E+00  1.2282134379915E+00 -8.4350432430847E-02
    58  5.7000000000000E-01  9.3290614906241E-01  1.2698061571837E+00 -6.7832317692625E-02
    59  5.8000000000000E-01  8.6064996469896E-01  1.3077547732248E+00 -4.5431397680717E-02
    60  5.9000000000000E-01  7.8733545084185E-01  1.3422470121663E+00 -1.7681833310409E-02
    61  6.0000000000000E-01  7.1308759032652E-01  1.3735283117610E+00  1.4762193080897E-02
    62  6.1000000000000E-01  6.3801600757152E-01  1.4018884180751E+00  5.1147135862626E-02
    63  6.2000000000000E-01  5.6222118119669E-01  1.4276464197428E+00  9.0643834159808E-02
    64  6.3000000000000E-01  4.8580125092531E-01  1.4511346710578E+00  1.3237367305190E-01
    65  6.4000000000000E-01  4.0885917191015E-01  1.4726820984782E+00  1.7543639953154E-01
    66  6.5000000000000E-01  3.3150995326201E-01  1.4925974146412E+00  2.1893877441409E-01
    67  6.6000000000000E-01  2.5388770896347E-01  1.5111527784715E+00  2.6202320417286E-01
    68  6.7000000000000E-01  1.7615224891965E-01  1.5285684387091E+00  3.0389548416158E-01
    69  6.8000000000000E-01  9.8494945804526E-02  1.5449988808939E+00  3.4385079757933E-01
    70  6.9000000000000E-01  2.1143629530589E-02  1.5605209647036E+00  3.8129715284309E-01
    71  7.0000000000000E-01 -5.5633714712557E-02  1.5751244902001E+00  4.1577550503368E-01
    72  7.1000000000000E-01 -1.3152663739617E-01  1.5887055691003E+00  4.4697589329625E-01
    73  7.2000000000000E-01 -2.0618145899268E-01  1.6010631021758E+00  4.7474903335847E-01
    74  7.3000000000000E-01 -2.7920215840660E-01  1.6118985782441E+00  4.9911292983996E-01
    75  7.4000000000000E-01 -3.5015297799516E-01  1.6208193161858E+00  5.2025421345776E-01
    76  7.5000000000000E-01 -4.1856275637004E-01  1.6273451716052E+00  5.3852405962489E-01
    77  7.6000000000000E-01 -4.8393094717626E-01  1.6309186268734E+00  5.5442870316919E-01
    78  7.7000000000000E-01 -5.4573522888209E-01  1.6309180803033E+00  5.6861472439488E-01
    79  7.8000000000000E-01 -6.0344055883278E-01  1.6266740500543E+00  5.8184943988688E-01
    80  7.9000000000000E-01 -6.5650947595992E-01  1.6174879140127E+00  5.9499688268333E-01
    81  8.0000000000000E-01 -7.0441341207911E-01  1.6026527211614E+00  6.0898999623368E-01
    82  8.1000000000000E-01 -7.4664473303724E-01  1.5814755354981E+00  6.2479979068377E-01
    83  8.2000000000000E-01 -7.8272919933081E-01  1.5533007127383E+00  6.4340231466203E-01
    84  8.3000000000000E-01 -8.1223851227382E-01  1.5175334648875E+00  6.6574437754540E-01
    85  8.4000000000000E-01 -8.3480259720101E-01  1.4736630398843E+00  6.9270901345546E-01
    86  8.5000000000000E-01 -8.5012127016388E-01  1.4212848340681E+00  7.2508170693007E-01
    87  8.6000000000000E-01 -8.5797493946523E-01  1.3601207648640E+00  7.6351840010004E-01
    88  8.7000000000000E-01 -8.5823400825872E-01  1.2900372599093E+00  8.0851627178021E-01
    89  8.8000000000000E-01 -8.5086666910766E-01  1.2110602664777E+00  8.6038822059208E-01
    90  8.9000000000000E-01 -8.3594481536423E-01  1.1233867505073E+00  9.1924189822355E-01
    91  9.0000000000000E-01 -8.1364783673734E-01  1.0273922363485E+00  9.8496402726749E-01
    92  9.1000000000000E-01 -7.8426411645069E-01  9.2363403454601E-01  1.0572106035101E+00
    93  9.2000000000000E-01 -7.4819010370751E-01  8.1284991316194E-01  1.1354034285480E+00
    94  9.3000000000000E-01 -7.0592689633680E-01  6.9595208555371E-01  1.2187332492546E+00
    95  9.4000000000000E-01 -6.5807433287985E-01  5.7401651104667E-01  1.3061696004889E+00
    96  9.5000000000000E-01 -6.0532265929304E-01  4.4826763132089E-01  1.3964772613931E+00
    97  9.6000000000000E-01 -5.4844190106619E-01  3.2005879107133E-01  1.4882390489109E+00
    98  9.7000000000000E-01 -4.8826913509745E-01  1.9084871316843E-01  1.5798844899509E+00
    99  9.8000000000000E-01 -4.2569391532462E-01  6.2174512696120E-02  1.6697237411411E+00
   100  9.9000000000000E-01 -3.6164216018338E-01 -6.4378162387787E-02  1.7559859673470E+00
   101  1.0000000000000E+00 -2.9705885688403E-01 -1.8720718661984E-01  1.8368612516276E+00
   102  1.0100000000000E+00 -2.3288997582933E-01 -3.0472745799017E-01  1.9105449943118E+00
   103  1.0200000000000E+00 -1.7006401707090E-01 -4.1540503970303E-01  1.9752836708674E+00
   104  1.0300000000000E+00 -1.0947362859167E-01 -5.1779110410023E-01  2.0294207599592E+00
   105  1.0400000000000E+00 -5.1957742700969E-02 -6.1055482810283E-01  2.0714416267205E+00
   106  1.0500000000000E+00  1.7153283552885E-03 -6.9251439990745E-01  2.1000161527492E+00
   107  1.0600000000000E+00  5.0863413436521E-02 -7.6266532962391E-01  2.1140379440652E+00
   108  1.0700000000000E+00  9.4904224520006E-02 -8.2020531146571E-01  2.1126590205207E+00
   109  1.0800000000000E+00  1.3336696327104E-01 -8.6455496071574E-01  2.0953189931028E+00
   110  1.0900000000000E+00  1.6590148516343E-01 -8.9537384367499E-01  2.0617678673610E+00
   111  1.1000000000000E+00  1.9228477210443E-01 -9.1257133011964E-01  2.0120817674437E+00
   112  1.1100000000000E+00  2.1242453015033E-01 -9.1631192373958E-01  1.9466710534006E+00
   113  1.1200000000000E+00  2.2635979992395E-01 -9.0701486223779E-01  1.8662804981707E+00
   114  1.1300000000000E+00  2.3425854255922E-01 -8.8534792292507E-01  1.7719813965524E+00
   115  1.1400000000000E+00  2.3641224089378E-01 -8.5221551694262E-01  1.6651556894341E+00
   116  1.1500000000000E+00  2.3322763268640E-01 -8.0874130276974E-01  1.5474723982895E+00