H     ONCVPSP-4.0.1  r_core=   1.00231   0.70004
      1.0000      1.0000      250217    zatom,zion,pspd
     8       2   1     4   300     0    pspcod,pspxc,lmax,lloc,mmax,r2well
  2.99000000  0.00000000  0.00000000    rchrg fchrg qchrg
     2     1     0     0    nproj
     3     1           extension_switch
     2     0     0    nprojso
   0                        -1.8433304055209E+00 -5.9534849992832E-01
     1  0.0000000000000E+00  1.0780515283249E-07 -1.1106503394753E-07
     2  1.0000000000000E-02 -2.9170103495658E-03  1.3272769978932E-01
     3  2.0000000000000E-02 -3.9529909188970E-03  2.6309134923417E-01
     4  3.0000000000000E-02 -1.2765025627693E-03  3.8878084417627E-01
     5  4.0000000000000E-02  6.8458970490366E-03  5.0759272469053E-01
     6  5.0000000000000E-02  2.2003587437845E-02  6.1748040639564E-01
     7  6.0000000000000E-02  4.5599258511821E-02  7.1660078479456E-01
     8  7.0000000000000E-02  7.8810738645048E-02  8.0335613817059E-01
     9  8.0000000000000E-02  1.2255818552853E-01  8.7643036563022E-01
    10  9.0000000000000E-02  1.7747741807779E-01  9.3481873054835E-01
    11  1.0000000000000E-01  2.4390001951848E-01  9.7785043268231E-01
    12  1.1000000000000E-01  3.2184067874387E-01  1.0052035008619E+00
    13  1.2000000000000E-01  4.1099206320518E-01  1.0169116783429E+00
    14  1.3000000000000E-01  5.1072733627445E-01  1.0133631602734E+00
    15  1.4000000000000E-01  6.2011024967213E-01  9.9529123274737E-01
    16  1.5000000000000E-01  7.3791256167559E-01  9.6375705103982E-01
    17  1.6000000000000E-01  8.6263835883516E-01  9.2012497633300E-01
    18  1.7000000000000E-01  9.9255469703863E-01  8.6603106122839E-01
    19  1.8000000000000E-01  1.1257278309078E+00  8.0334543055187E-01
    20  1.9000000000000E-01  1.2600641721959E+00  7.3412944174355E-01
    21  2.0000000000000E-01  1.3933550111205E+00  6.6058862528764E-01
    22  2.1000000000000E-01  1.5233239518798E+00  5.8502249754160E-01
    23  2.2000000000000E-01  1.6476759568138E+00  5.0977240393667E-01
    24  2.3000000000000E-01  1.7641468639682E+00  4.3716858846377E-01
    25  2.4000000000000E-01  1.8705522406968E+00  3.6947769494261E-01
    26  2.5000000000000E-01  1.9648344611907E+00  3.0885188679932E-01
    27  2.6000000000000E-01  2.0451069475627E+00  2.5728072564919E-01
    28  2.7000000000000E-01  2.1096945908008E+00  2.1654687625890E-01
    29  2.8000000000000E-01  2.1571694673657E+00  1.8818660844098E-01
    30  2.9000000000000E-01  2.1863810867414E+00  1.7345594768180E-01
    31  3.0000000000000E-01  2.1964805416685E+00  1.7330318888467E-01
    32  3.1000000000000E-01  2.1869380825120E+00  1.8834833502416E-01
    33  3.2000000000000E-01  2.1575537963855E+00  2.1886985856697E-01
    34  3.3000000000000E-01  2.1084612361958E+00  2.6479901227910E-01
    35  3.4000000000000E-01  2.0401240105626E+00  3.2572174168607E-01
    36  3.5000000000000E-01  1.9533255084800E+00  4.0088807818336E-01
    37  3.6000000000000E-01  1.8491520886393E+00  4.8922872372860E-01
    38  3.7000000000000E-01  1.7289702087834E+00  5.8937837911635E-01
    39  3.8000000000000E-01  1.5943981018763E+00  6.9970522169547E-01
    40  3.9000000000000E-01  1.4472727202508E+00  8.1834580831738E-01
    41  4.0000000000000E-01  1.2896127637030E+00  9.4324456814590E-01
    42  4.1000000000000E-01  1.1235786807623E+00  1.0721969600430E+00
    43  4.2000000000000E-01  9.5143058267197E-01  1.2028953023391E+00
    44  4.3000000000000E-01  7.7548503618808E-01  1.3329762400869E+00
    45  4.4000000000000E-01  5.9807170397756E-01  1.4600687969412E+00
    46  4.5000000000000E-01  4.2149078062395E-01  1.5818419655562E+00
    47  4.6000000000000E-01  2.4797212907392E-01  1.6960508211981E+00
    48  4.7000000000000E-01  7.9636958381176E-02  1.8005801968946E+00
    49  4.8000000000000E-01 -8.1537199077902E-02  1.8934850331424E+00
    50  4.9000000000000E-01 -2.3374755159501E-01  1.9730266087159E+00
    51  5.0000000000000E-01 -3.7539260613658E-01  2.0377039688328E+00
    52  5.1000000000000E-01 -5.0509379542443E-01  2.0862799898593E+00
    53  5.2000000000000E-01 -6.2171187816368E-01  2.1178016526407E+00
    54  5.3000000000000E-01 -7.2435794884105E-01  2.1316142360499E+00
    55  5.4000000000000E-01 -8.1239902577044E-01  2.1273692849865E+00
    56  5.5000000000000E-01 -8.8545831489088E-01  2.1050263493984E+00
    57  5.6000000000000E-01 -9.4341036907876E-01  2.0648486295941E+00
    58  5.7000000000000E-01 -9.8637147554605E-01  2.0073927950288E+00
    59  5.8000000000000E-01 -1.0146857047174E+00  1.9334933659871E+00
    60  5.9000000000000E-01 -1.0289071406730E+00  1.8442421575991E+00
    61  6.0000000000000E-01 -1.0297788841114E+00  1.7409633812398E+00
    62  6.1000000000000E-01 -1.0182094726182E+00  1.6251850778342E+00
    63  6.2000000000000E-01 -9.9524739910022E-01  1.4986076196246E+00
    64  6.3000000000000E-01 -9.6205442735047E-01  1.3630700607639E+00
    65  6.4000000000000E-01 -9.1987840413062E-01  1.2205151423175E+00
    66  6.5000000000000E-01 -8.7002625064401E-01  1.0729537640635E+00
    67  6.6000000000000E-01 -8.1383778400759E-01  9.2242972442873E-01
    68  6.7000000000000E-01 -7.5266097289154E-01  7.7098550202719E-01
    69  6.8000000000000E-01 -6.8782917276879E-01  6.2062980892651E-01
    70  6.9000000000000E-01 -6.2064081743412E-01  4.7330758880867E-01
    71  7.0000000000000E-01 -5.5234196625131E-01  3.3087306311732E-01
    72  7.1000000000000E-01 -4.8411111198075E-01  1.9506448939035E-01
    73  7.2000000000000E-01 -4.1703736731674E-01  6.7463234865551E-02
    74  7.3000000000000E-01 -3.5209889269653E-01 -5.0546337027781E-02
    75  7.4000000000000E-01 -2.9015222105119E-01 -1.5779542712556E-01
    76  7.5000000000000E-01 -2.3192558859400E-01 -2.5334315082367E-01
    77  7.6000000000000E-01 -1.7801531990525E-01 -3.3648445106873E-01
    78  7.7000000000000E-01 -1.2888510406182E-01 -4.0675360419509E-01
    79  7.8000000000000E-01 -8.4867943784486E-02 -4.6392342907699E-01
    80  7.9000000000000E-01 -4.6170514388224E-02 -5.0800038441520E-01
    81  8.0000000000000E-01 -1.2879634905444E-02 -5.3921580494329E-01
    82  8.1000000000000E-01  1.5029469737869E-02 -5.5801358419770E-01
    83  8.2000000000000E-01  3.7683449312522E-02 -5.6503465868995E-01
    84  8.3000000000000E-01  5.5299987842279E-02 -5.6109868558260E-01
    85  8.4000000000000E-01  6.8176171159381E-02 -5.4718333332353E-01
    86  8.5000000000000E-01  7.6676375824961E-02 -5.2440162241576E-01
    87  8.6000000000000E-01  8.1219969857902E-02 -4.9397776209389E-01
    88  8.7000000000000E-01  8.2269086970126E-02 -4.5722192885497E-01
    89  8.8000000000000E-01  8.0316702951488E-02 -4.1550442539658E-01
    90  8.9000000000000E-01  7.5875207068197E-02 -3.7022964452677E-01
    91  9.0000000000000E-01  6.9465624392265E-02 -3.2281024305943E-01
    92  9.1000000000000E-01  6.1607608366905E-02 -2.7464190666186E-01
    93  9.2000000000000E-01  5.2810288009823E-02 -2.2707905912164E-01
    94  9.3000000000000E-01  4.3564022184546E-02 -1.8141183955117E-01
    95  9.4000000000000E-01  3.4333038266095E-02 -1.3884459540747E-01
    96  9.5000000000000E-01  2.5549325181823E-02 -1.0047649725697E-01
    97  9.6000000000000E-01  1.7560122430201E-02 -6.7239735300605E-02
    98  9.7000000000000E-01  1.0668086198023E-02 -3.9926005344135E-02
    99  9.8000000000000E-01  5.2589846435252E-03 -1.9297328897776E-02
   100  9.9000000000000E-01  1.6445463778158E-03 -5.9315315150921E-03
   101  1.0000000000000E+00  7.8481794966630E-05 -2.7880847892981E-04
   102  1.0100000000000E+00  5.0516624175346E-06 -1.7910352000834E-05
   103  1.0200000000000E+00 -2.2986173887547E-07  8.1984432974362E-07
   104  1.03  0.  0.
   105  1.04  0.  0.
   106  1.05  0.  0.
   107  1.06  0.  0.
   108  1.07  0.  0.
   109  1.08  0.  0.
   110  1.09  0.  0.
   111  1.10  0.  0.
   112  1.11  0.  0.
   113  1.12  0.  0.
   114  1.13  0.  0.
   115  1.14  0.  0.
   116  1.15  0.  0.
   117  1.16  0.  0.
   118  1.17  0.  0.
   119  1.18  0.  0.
   120  1.19  0.  0.
   121  1.20  0.  0.
   122  1.21  0.  0.
   123  1.22  0.  0.
   124  1.23  0.  0.
   125  1.24  0.  0.
   126  1.25  0.  0.
   127  1.26  0.  0.
   128  1.27  0.  0.
   129  1.28  0.  0.
   130  1.29  0.  0.
   131  1.30  0.  0.
   132  1.31  0.  0.
   133  1.32  0.  0.
   134  1.33  0.  0.
   135  1.34  0.  0.
   136  1.35  0.  0.
   137  1.36  0.  0.
   138  1.37  0.  0.
   139  1.38  0.  0.
   140  1.39  0.  0.
   141  1.40  0.  0.
   142  1.41  0.  0.
   143  1.42  0.  0.
   144  1.43  0.  0.
   145  1.44  0.  0.
   146  1.45  0.  0.
   147  1.46  0.  0.
   148  1.47  0.  0.
   149  1.48  0.  0.
   150  1.49  0.  0.
   151  1.50  0.  0.
   152  1.51  0.  0.
   153  1.52  0.  0.
   154  1.53  0.  0.
   155  1.54  0.  0.
   156  1.55  0.  0.
   157  1.56  0.  0.
   158  1.57  0.  0.
   159  1.58  0.  0.
   160  1.59  0.  0.
   161  1.60  0.  0.
   162  1.61  0.  0.
   163  1.62  0.  0.
   164  1.63  0.  0.
   165  1.64  0.  0.
   166  1.65  0.  0.
   167  1.66  0.  0.
   168  1.67  0.  0.
   169  1.68  0.  0.
   170  1.69  0.  0.
   171  1.70  0.  0.
   172  1.71  0.  0.
   173  1.72  0.  0.
   174  1.73  0.  0.
   175  1.74  0.  0.
   176  1.75  0.  0.
   177  1.76  0.  0.
   178  1.77  0.  0.
   179  1.78  0.  0.
   180  1.79  0.  0.
   181  1.80  0.  0.
   182  1.81  0.  0.
   183  1.82  0.  0.
   184  1.83  0.  0.
   185  1.84  0.  0.
   186  1.85  0.  0.
   187  1.86  0.  0.
   188  1.87  0.  0.
   189  1.88  0.  0.
   190  1.89  0.  0.
   191  1.90  0.  0.
   192  1.91  0.  0.
   193  1.92  0.  0.
   194  1.93  0.  0.
   195  1.94  0.  0.
   196  1.95  0.  0.
   197  1.96  0.  0.
   198  1.97  0.  0.
   199  1.98  0.  0.
   200  1.99  0.  0.
   201  2.00  0.  0.
   202  2.01  0.  0.
   203  2.02  0.  0.
   204  2.03  0.  0.
   205  2.04  0.  0.
   206  2.05  0.  0.
   207  2.06  0.  0.
   208  2.07  0.  0.
   209  2.08  0.  0.
   210  2.09  0.  0.
   211  2.10  0.  0.
   212  2.11  0.  0.
   213  2.12  0.  0.
   214  2.13  0.  0.
   215  2.14  0.  0.
   216  2.15  0.  0.
   217  2.16  0.  0.
   218  2.17  0.  0.
   219  2.18  0.  0.
   220  2.19  0.  0.
   221  2.20  0.  0.
   222  2.21  0.  0.
   223  2.22  0.  0.
   224  2.23  0.  0.
   225  2.24  0.  0.
   226  2.25  0.  0.
   227  2.26  0.  0.
   228  2.27  0.  0.
   229  2.28  0.  0.
   230  2.29  0.  0.
   231  2.30  0.  0.
   232  2.31  0.  0.
   233  2.32  0.  0.
   234  2.33  0.  0.
   235  2.34  0.  0.
   236  2.35  0.  0.
   237  2.36  0.  0.
   238  2.37  0.  0.
   239  2.38  0.  0.
   240  2.39  0.  0.
   241  2.40  0.  0.
   242  2.41  0.  0.
   243  2.42  0.  0.
   244  2.43  0.  0.
   245  2.44  0.  0.
   246  2.45  0.  0.
   247  2.46  0.  0.
   248  2.47  0.  0.
   249  2.48  0.  0.
   250  2.49  0.  0.
   251  2.50  0.  0.
   252  2.51  0.  0.
   253  2.52  0.  0.
   254  2.53  0.  0.
   255  2.54  0.  0.
   256  2.55  0.  0.
   257  2.56  0.  0.
   258  2.57  0.  0.
   259  2.58  0.  0.
   260  2.59  0.  0.
   261  2.60  0.  0.
   262  2.61  0.  0.
   263  2.62  0.  0.
   264  2.63  0.  0.
   265  2.64  0.  0.
   266  2.65  0.  0.
   267  2.66  0.  0.
   268  2.67  0.  0.
   269  2.68  0.  0.
   270  2.69  0.  0.
   271  2.70  0.  0.
   272  2.71  0.  0.
   273  2.72  0.  0.
   274  2.73  0.  0.
   275  2.74  0.  0.
   276  2.75  0.  0.
   277  2.76  0.  0.
   278  2.77  0.  0.
   279  2.78  0.  0.
   280  2.79  0.  0.
   281  2.80  0.  0.
   282  2.81  0.  0.
   283  2.82  0.  0.
   284  2.83  0.  0.
   285  2.84  0.  0.
   286  2.85  0.  0.
   287  2.86  0.  0.
   288  2.87  0.  0.
   289  2.88  0.  0.
   290  2.89  0.  0.
   291  2.90  0.  0.
   292  2.91  0.  0.
   293  2.92  0.  0.
   294  2.93  0.  0.
   295  2.94  0.  0.
   296  2.95  0.  0.
   297  2.96  0.  0.
   298  2.97  0.  0.
   299  2.98  0.  0.
   300  2.99  0.  0.
   1                        -4.9429758305187E-01
     1  0.0000000000000E+00  1.1582204406113E-06
     2  1.0000000000000E-02  8.9004062318290E-03
     3  2.0000000000000E-02  3.5251334223663E-02
     4  3.0000000000000E-02  7.8019931187962E-02
     5  4.0000000000000E-02  1.3554389909389E-01
     6  5.0000000000000E-02  2.0561693386960E-01
     7  6.0000000000000E-02  2.8560202005093E-01
     8  7.0000000000000E-02  3.7256665132511E-01
     9  8.0000000000000E-02  4.6343288919801E-01
    10  9.0000000000000E-02  5.5513437813150E-01
    11  1.0000000000000E-01  6.4477204745965E-01
    12  1.1000000000000E-01  7.2976026917042E-01
    13  1.2000000000000E-01  8.0795570557157E-01
    14  1.3000000000000E-01  8.7776194963932E-01
    15  1.4000000000000E-01  9.3820429059914E-01
    16  1.5000000000000E-01  9.8897046666204E-01
    17  1.6000000000000E-01  1.0304150190603E+00
    18  1.7000000000000E-01  1.0635267482014E+00
    19  1.8000000000000E-01  1.0898606982872E+00
    20  1.9000000000000E-01  1.1114379631041E+00
    21  2.0000000000000E-01  1.1306183173600E+00
    22  2.1000000000000E-01  1.1499521466953E+00
    23  2.2000000000000E-01  1.1720192989054E+00
    24  2.3000000000000E-01  1.1992632481863E+00
    25  2.4000000000000E-01  1.2338293113906E+00
    26  2.5000000000000E-01  1.2774155593596E+00
    27  2.6000000000000E-01  1.3311445285651E+00
    28  2.7000000000000E-01  1.3954628819440E+00
    29  2.8000000000000E-01  1.4700748375213E+00
    30  2.9000000000000E-01  1.5539135428480E+00
    31  3.0000000000000E-01  1.6451527021044E+00
    32  3.1000000000000E-01  1.7412587527359E+00
    33  3.2000000000000E-01  1.8390818391510E+00
    34  3.3000000000000E-01  1.9349818445045E+00
    35  3.4000000000000E-01  2.0249839177642E+00
    36  3.5000000000000E-01  2.1049563646697E+00
    37  3.6000000000000E-01  2.1708025384501E+00
    38  3.7000000000000E-01  2.2186575338432E+00
    39  3.8000000000000E-01  2.2450801013172E+00
    40  3.9000000000000E-01  2.2472302809880E+00
    41  4.0000000000000E-01  2.2230238081035E+00
    42  4.1000000000000E-01  2.1712553414852E+00
    43  4.2000000000000E-01  2.0916839681266E+00
    44  4.3000000000000E-01  1.9850761762018E+00
    45  4.4000000000000E-01  1.8532034829390E+00
    46  4.5000000000000E-01  1.6987940578600E+00
    47  4.6000000000000E-01  1.5254398919479E+00
    48  4.7000000000000E-01  1.3374632219967E+00
    49  4.8000000000000E-01  1.1397479210835E+00
    50  4.9000000000000E-01  9.3754331205086E-01
    51  5.0000000000000E-01  7.3624926415650E-01
    52  5.1000000000000E-01  5.4119242281804E-01
    53  5.2000000000000E-01  3.5740394750443E-01
    54  5.3000000000000E-01  1.8940916444261E-01
    55  5.4000000000000E-01  4.1039073881935E-02
    56  5.5000000000000E-01 -8.4727294661977E-02
    57  5.6000000000000E-01 -1.8588206892377E-01
    58  5.7000000000000E-01 -2.6146340792901E-01
    59  5.8000000000000E-01 -3.1158225579887E-01
    60  5.9000000000000E-01 -3.3739940757061E-01
    61  6.0000000000000E-01 -3.4105364606158E-01
    62  6.1000000000000E-01 -3.2554401085839E-01
    63  6.2000000000000E-01 -2.9457142704831E-01
    64  6.3000000000000E-01 -2.5234684759666E-01
    65  6.4000000000000E-01 -2.0337465574722E-01
    66  6.5000000000000E-01 -1.5222125472190E-01
    67  6.6000000000000E-01 -1.0327952506342E-01
    68  6.7000000000000E-01 -6.0601231103200E-02
    69  6.8000000000000E-01 -2.7776207117839E-02
    70  6.9000000000000E-01 -7.1039804716576E-03
    71  7.0000000000000E-01 -4.4116943310577E-06
    72  7.1000000000000E-01  3.0479442139826E-06
    73  7.2000000000000E-01  0.0000000000000E+00
    74  0.73  0.
    75  0.74  0.
    76  0.75  0.
    77  0.76  0.
    78  0.77  0.
    79  0.78  0.
    80  0.79  0.
    81  0.80  0.
    82  0.81  0.
    83  0.82  0.
    84  0.83  0.
    85  0.84  0.
    86  0.85  0.
    87  0.86  0.
    88  0.87  0.
    89  0.88  0.
    90  0.89  0.
    91  0.90  0.
    92  0.91  0.
    93  0.92  0.
    94  0.93  0.
    95  0.94  0.
    96  0.95  0.
    97  0.96  0.
    98  0.97  0.
    99  0.98  0.
   100  0.99  0.
   101  1.00  0.
   102  1.01  0.
   103  1.02  0.
   104  1.03  0.
   105  1.04  0.
   106  1.05  0.
   107  1.06  0.
   108  1.07  0.
   109  1.08  0.
   110  1.09  0.
   111  1.10  0.
   112  1.11  0.
   113  1.12  0.
   114  1.13  0.
   115  1.14  0.
   116  1.15  0.
   117  1.16  0.
   118  1.17  0.
   119  1.18  0.
   120  1.19  0.
   121  1.20  0.
   122  1.21  0.
   123  1.22  0.
   124  1.23  0.
   125  1.24  0.
   126  1.25  0.
   127  1.26  0.
   128  1.27  0.
   129  1.28  0.
   130  1.29  0.
   131  1.30  0.
   132  1.31  0.
   133  1.32  0.
   134  1.33  0.
   135  1.34  0.
   136  1.35  0.
   137  1.36  0.
   138  1.37  0.
   139  1.38  0.
   140  1.39  0.
   141  1.40  0.
   142  1.41  0.
   143  1.42  0.
   144  1.43  0.
   145  1.44  0.
   146  1.45  0.
   147  1.46  0.
   148  1.47  0.
   149  1.48  0.
   150  1.49  0.
   151  1.50  0.
   152  1.51  0.
   153  1.52  0.
   154  1.53  0.
   155  1.54  0.
   156  1.55  0.
   157  1.56  0.
   158  1.57  0.
   159  1.58  0.
   160  1.59  0.
   161  1.60  0.
   162  1.61  0.
   163  1.62  0.
   164  1.63  0.
   165  1.64  0.
   166  1.65  0.
   167  1.66  0.
   168  1.67  0.
   169  1.68  0.
   170  1.69  0.
   171  1.70  0.
   172  1.71  0.
   173  1.72  0.
   174  1.73  0.
   175  1.74  0.
   176  1.75  0.
   177  1.76  0.
   178  1.77  0.
   179  1.78  0.
   180  1.79  0.
   181  1.80  0.
   182  1.81  0.
   183  1.82  0.
   184  1.83  0.
   185  1.84  0.
   186  1.85  0.
   187  1.86  0.
   188  1.87  0.
   189  1.88  0.
   190  1.89  0.
   191  1.90  0.
   192  1.91  0.
   193  1.92  0.
   194  1.93  0.
   195  1.94  0.
   196  1.95  0.
   197  1.96  0.
   198  1.97  0.
   199  1.98  0.
   200  1.99  0.
   201  2.00  0.
   202  2.01  0.
   203  2.02  0.
   204  2.03  0.
   205  2.04  0.
   206  2.05  0.
   207  2.06  0.
   208  2.07  0.
   209  2.08  0.
   210  2.09  0.
   211  2.10  0.
   212  2.11  0.
   213  2.12  0.
   214  2.13  0.
   215  2.14  0.
   216  2.15  0.
   217  2.16  0.
   218  2.17  0.
   219  2.18  0.
   220  2.19  0.
   221  2.20  0.
   222  2.21  0.
   223  2.22  0.
   224  2.23  0.
   225  2.24  0.
   226  2.25  0.
   227  2.26  0.
   228  2.27  0.
   229  2.28  0.
   230  2.29  0.
   231  2.30  0.
   232  2.31  0.
   233  2.32  0.
   234  2.33  0.
   235  2.34  0.
   236  2.35  0.
   237  2.36  0.
   238  2.37  0.
   239  2.38  0.
   240  2.39  0.
   241  2.40  0.
   242  2.41  0.
   243  2.42  0.
   244  2.43  0.
   245  2.44  0.
   246  2.45  0.
   247  2.46  0.
   248  2.47  0.
   249  2.48  0.
   250  2.49  0.
   251  2.50  0.
   252  2.51  0.
   253  2.52  0.
   254  2.53  0.
   255  2.54  0.
   256  2.55  0.
   257  2.56  0.
   258  2.57  0.
   259  2.58  0.
   260  2.59  0.
   261  2.60  0.
   262  2.61  0.
   263  2.62  0.
   264  2.63  0.
   265  2.64  0.
   266  2.65  0.
   267  2.66  0.
   268  2.67  0.
   269  2.68  0.
   270  2.69  0.
   271  2.70  0.
   272  2.71  0.
   273  2.72  0.
   274  2.73  0.
   275  2.74  0.
   276  2.75  0.
   277  2.76  0.
   278  2.77  0.
   279  2.78  0.
   280  2.79  0.
   281  2.80  0.
   282  2.81  0.
   283  2.82  0.
   284  2.83  0.
   285  2.84  0.
   286  2.85  0.
   287  2.86  0.
   288  2.87  0.
   289  2.88  0.
   290  2.89  0.
   291  2.90  0.
   292  2.91  0.
   293  2.92  0.
   294  2.93  0.
   295  2.94  0.
   296  2.95  0.
   297  2.96  0.
   298  2.97  0.
   299  2.98  0.
   300  2.99  0.
   4
     1  0.0000000000000E+00 -3.1150691007364E+00
     2  1.0000000000000E-02 -3.1144370713932E+00
     3  2.0000000000000E-02 -3.1125373949971E+00
     4  3.0000000000000E-02 -3.1093742905501E+00
     5  4.0000000000000E-02 -3.1049522834216E+00
     6  5.0000000000000E-02 -3.0992777039988E+00
     7  6.0000000000000E-02 -3.0923586803709E+00
     8  7.0000000000000E-02 -3.0842051297152E+00
     9  8.0000000000000E-02 -3.0748287477586E+00
    10  9.0000000000000E-02 -3.0642429961822E+00
    11  1.0000000000000E-01 -3.0524630878804E+00
    12  1.1000000000000E-01 -3.0395059699840E+00
    13  1.2000000000000E-01 -3.0253903045508E+00
    14  1.3000000000000E-01 -3.0101364468260E+00
    15  1.4000000000000E-01 -2.9937664209633E+00
    16  1.5000000000000E-01 -2.9763038931003E+00
    17  1.6000000000000E-01 -2.9577741416782E+00
    18  1.7000000000000E-01 -2.9382040248925E+00
    19  1.8000000000000E-01 -2.9176219451700E+00
    20  1.9000000000000E-01 -2.8960578105626E+00
    21  2.0000000000000E-01 -2.8735429929609E+00
    22  2.1000000000000E-01 -2.8501102830302E+00
    23  2.2000000000000E-01 -2.8257938417854E+00
    24  2.3000000000000E-01 -2.8006291487275E+00
    25  2.4000000000000E-01 -2.7746529464742E+00
    26  2.5000000000000E-01 -2.7479031818337E+00
    27  2.6000000000000E-01 -2.7204189432769E+00
    28  2.7000000000000E-01 -2.6922403947829E+00
    29  2.8000000000000E-01 -2.6634087060427E+00
    30  2.9000000000000E-01 -2.6339659790220E+00
    31  3.0000000000000E-01 -2.6039551708988E+00
    32  3.1000000000000E-01 -2.5734200134040E+00
    33  3.2000000000000E-01 -2.5424049286097E+00
    34  3.3000000000000E-01 -2.5109549412215E+00
    35  3.4000000000000E-01 -2.4791155874426E+00
    36  3.5000000000000E-01 -2.4469328204917E+00
    37  3.6000000000000E-01 -2.4144529128647E+00
    38  3.7000000000000E-01 -2.3817223554380E+00
    39  3.8000000000000E-01 -2.3487877535209E+00
    40  3.9000000000000E-01 -2.3156957199674E+00
    41  4.0000000000000E-01 -2.2824927654618E+00
    42  4.1000000000000E-01 -2.2492251860941E+00
    43  4.2000000000000E-01 -2.2159389483397E+00
    44  4.3000000000000E-01 -2.1826795715573E+00
    45  4.4000000000000E-01 -2.1494920081111E+00
    46  4.5000000000000E-01 -2.1164205212192E+00
    47  4.6000000000000E-01 -2.0835085606222E+00
    48  4.7000000000000E-01 -2.0507986361524E+00
    49  4.8000000000000E-01 -2.0183321892772E+00
    50  4.9000000000000E-01 -1.9861494626720E+00
    51  5.0000000000000E-01 -1.9542893678685E+00
    52  5.1000000000000E-01 -1.9227893510047E+00
    53  5.2000000000000E-01 -1.8916852566897E+00
    54  5.3000000000000E-01 -1.8610111899787E+00
    55  5.4000000000000E-01 -1.8307993764368E+00
    56  5.5000000000000E-01 -1.8010800202535E+00
    57  5.6000000000000E-01 -1.7718811603546E+00
    58  5.7000000000000E-01 -1.7432285244392E+00
    59  5.8000000000000E-01 -1.7151453808604E+00
    60  5.9000000000000E-01 -1.6876523882473E+00
    61  6.0000000000000E-01 -1.6607674427608E+00
    62  6.1000000000000E-01 -1.6345055228603E+00
    63  6.2000000000000E-01 -1.6088785314528E+00
    64  6.3000000000000E-01 -1.5838951352866E+00
    65  6.4000000000000E-01 -1.5595606014517E+00
    66  6.5000000000000E-01 -1.5358766308427E+00
    67  6.6000000000000E-01 -1.5128411884444E+00
    68  6.7000000000000E-01 -1.4904483303009E+00
    69  6.8000000000000E-01 -1.4686880270368E+00
    70  6.9000000000000E-01 -1.4475459837881E+00
    71  7.0000000000000E-01 -1.4270034565769E+00
    72  7.1000000000000E-01 -1.4070373264216E+00
    73  7.2000000000000E-01 -1.3876228383613E+00
    74  7.3000000000000E-01 -1.3687364203395E+00
    75  7.4000000000000E-01 -1.3503558627174E+00
    76  7.5000000000000E-01 -1.3324602344740E+00
    77  7.6000000000000E-01 -1.3150298046092E+00
    78  7.7000000000000E-01 -1.2980459682835E+00
    79  7.8000000000000E-01 -1.2814911771741E+00
    80  7.9000000000000E-01 -1.2653488736148E+00
    81  8.0000000000000E-01 -1.2496034281601E+00
    82  8.1000000000000E-01 -1.2342400802706E+00
    83  8.2000000000000E-01 -1.2192448818761E+00
    84  8.3000000000000E-01 -1.2046046436174E+00
    85  8.4000000000000E-01 -1.1903068836157E+00
    86  8.5000000000000E-01 -1.1763397786522E+00
    87  8.6000000000000E-01 -1.1626921176782E+00
    88  8.7000000000000E-01 -1.1493532575981E+00
    89  8.8000000000000E-01 -1.1363130812957E+00
    90  8.9000000000000E-01 -1.1235619578887E+00
    91  9.0000000000000E-01 -1.1110907052115E+00
    92  9.1000000000000E-01 -1.0988905545351E+00
    93  9.2000000000000E-01 -1.0869531175392E+00
    94  9.3000000000000E-01 -1.0752703555530E+00
    95  9.4000000000000E-01 -1.0638345510781E+00
    96  9.5000000000000E-01 -1.0526382816064E+00
    97  9.6000000000000E-01 -1.0416743957363E+00
    98  9.7000000000000E-01 -1.0309359915989E+00
    99  9.8000000000000E-01 -1.0204163975578E+00
   100  9.9000000000000E-01 -1.0101091550986E+00
   101  1.0000000000000E+00 -1.0000080039292E+00
   102  1.0100000000000E+00 -9.9010687048259E-01
   103  1.0200000000000E+00 -9.8039987742783E-01
   104  1.0300000000000E+00 -9.7088137030302E-01
   105  1.0400000000000E+00 -9.6154591208232E-01
   106  1.0500000000000E+00 -9.5238827279893E-01
   107  1.0600000000000E+00 -9.4340341983375E-01
   108  1.0700000000000E+00 -9.3458650870476E-01
   109  1.0800000000000E+00 -9.2593287435523E-01
   110  1.0900000000000E+00 -9.1743802292314E-01
   111  1.1000000000000E+00 -9.0909762395963E-01
   112  1.1100000000000E+00 -9.0090750306807E-01
   113  1.1200000000000E+00 -8.9286363493742E-01
   114  1.1300000000000E+00 -8.8496213674550E-01
   115  1.1400000000000E+00 -8.7719926190956E-01
   116  1.1500000000000E+00 -8.6957139416275E-01
   117  1.1600000000000E+00 -8.6207504193709E-01
   118  1.1700000000000E+00 -8.5470683303448E-01
   119  1.1800000000000E+00 -8.4746350956862E-01
   120  1.1900000000000E+00 -8.4034192316200E-01
   121  1.2000000000000E+00 -8.3333903038308E-01
   122  1.2100000000000E+00 -8.2645188840962E-01
   123  1.2200000000000E+00 -8.1967765090538E-01
   124  1.2300000000000E+00 -8.1301356409794E-01
   125  1.2400000000000E+00 -8.0645696304625E-01
   126  1.2500000000000E+00 -8.0000526808740E-01
   127  1.2600000000000E+00 -7.9365598145260E-01
   128  1.2700000000000E+00 -7.8740668404292E-01
   129  1.2800000000000E+00 -7.8125503235633E-01
   130  1.2900000000000E+00 -7.7519875555755E-01
   131  1.3000000000000E+00 -7.6923565268319E-01
   132  1.3100000000000E+00 -7.6336358997486E-01
   133  1.3200000000000E+00 -7.5758049833356E-01
   134  1.3300000000000E+00 -7.5188437088885E-01
   135  1.3400000000000E+00 -7.4627326067691E-01
   136  1.3500000000000E+00 -7.4074527842175E-01
   137  1.3600000000000E+00 -7.3529859041437E-01
   138  1.3700000000000E+00 -7.2993141648474E-01
   139  1.3800000000000E+00 -7.2464202806198E-01
   140  1.3900000000000E+00 -7.1942874631831E-01
   141  1.4000000000000E+00 -7.1428994039246E-01
   142  1.4100000000000E+00 -7.0922402568879E-01
   143  1.4200000000000E+00 -7.0422946224816E-01
   144  1.4300000000000E+00 -6.9930475318725E-01
   145  1.4400000000000E+00 -6.9444844320286E-01
   146  1.4500000000000E+00 -6.8965911713812E-01
   147  1.4600000000000E+00 -6.8493539860760E-01
   148  1.4700000000000E+00 -6.8027594867858E-01
   149  1.4800000000000E+00 -6.7567946460571E-01
   150  1.4900000000000E+00 -6.7114467861673E-01
   151  1.5000000000000E+00 -6.6667035674666E-01
   152  1.5100000000000E+00 -6.6225529771835E-01
   153  1.5200000000000E+00 -6.5789833186724E-01
   154  1.5300000000000E+00 -6.5359832010828E-01
   155  1.5400000000000E+00 -6.4935415294305E-01
   156  1.5500000000000E+00 -6.4516474950538E-01
   157  1.5600000000000E+00 -6.4102905664365E-01
   158  1.5700000000000E+00 -6.3694604803816E-01
   159  1.5800000000000E+00 -6.3291472335199E-01
   160  1.5900000000000E+00 -6.2893410741399E-01
   161  1.6000000000000E+00 -6.2500324943228E-01
   162  1.6100000000000E+00 -6.2112122223718E-01
   163  1.6200000000000E+00 -6.1728712155212E-01
   164  1.6300000000000E+00 -6.1350006529138E-01
   165  1.6400000000000E+00 -6.0975919288355E-01
   166  1.6500000000000E+00 -6.0606366461960E-01
   167  1.6600000000000E+00 -6.0241266102445E-01
   168  1.6700000000000E+00 -5.9880538225121E-01
   169  1.6800000000000E+00 -5.9524104749697E-01
   170  1.6900000000000E+00 -5.9171889443940E-01
   171  1.7000000000000E+00 -5.8823817869318E-01
   172  1.7100000000000E+00 -5.8479817328555E-01
   173  1.7200000000000E+00 -5.8139816815009E-01
   174  1.7300000000000E+00 -5.7803746963814E-01
   175  1.7400000000000E+00 -5.7471540004701E-01
   176  1.7500000000000E+00 -5.7143129716437E-01
   177  1.7600000000000E+00 -5.6818451382819E-01
   178  1.7700000000000E+00 -5.6497441750160E-01
   179  1.7800000000000E+00 -5.6180038986205E-01
   180  1.7900000000000E+00 -5.5866182640430E-01
   181  1.8000000000000E+00 -5.5555813605654E-01
   182  1.8100000000000E+00 -5.5248874080938E-01
   183  1.8200000000000E+00 -5.4945307535692E-01
   184  1.8300000000000E+00 -5.4645058674972E-01
   185  1.8400000000000E+00 -5.4348073405898E-01
   186  1.8500000000000E+00 -5.4054298805168E-01
   187  1.8600000000000E+00 -5.3763683087618E-01
   188  1.8700000000000E+00 -5.3476175575789E-01
   189  1.8800000000000E+00 -5.3191726670468E-01
   190  1.8900000000000E+00 -5.2910287822164E-01
   191  1.9000000000000E+00 -5.2631811503479E-01
   192  1.9100000000000E+00 -5.2356251182358E-01
   193  1.9200000000000E+00 -5.2083561296164E-01
   194  1.9300000000000E+00 -5.1813697226565E-01
   195  1.9400000000000E+00 -5.1546615275198E-01
   196  1.9500000000000E+00 -5.1282272640075E-01
   197  1.9600000000000E+00 -5.1020627392722E-01
   198  1.9700000000000E+00 -5.0761638456007E-01
   199  1.9800000000000E+00 -5.0505265582638E-01
   200  1.9900000000000E+00 -5.0251469334316E-01
   201  2.0000000000000E+00 -5.0000211061511E-01
   202  2.0100000000000E+00 -4.9751452883839E-01
   203  2.0200000000000E+00 -4.9505157671022E-01
   204  2.0300000000000E+00 -4.9261289024418E-01
   205  2.0400000000000E+00 -4.9019811259081E-01
   206  2.0500000000000E+00 -4.8780689386362E-01
   207  2.0600000000000E+00 -4.8543889097003E-01
   208  2.0700000000000E+00 -4.8309376744727E-01
   209  2.0800000000000E+00 -4.8077119330305E-01
   210  2.0900000000000E+00 -4.7847084486071E-01
   211  2.1000000000000E+00 -4.7619240460888E-01
   212  2.1100000000000E+00 -4.7393556105539E-01
   213  2.1200000000000E+00 -4.7170000858527E-01
   214  2.1300000000000E+00 -4.6948544732282E-01
   215  2.1400000000000E+00 -4.6729158299752E-01
   216  2.1500000000000E+00 -4.6511812681366E-01
   217  2.1600000000000E+00 -4.6296479532353E-01
   218  2.1700000000000E+00 -4.6083131030436E-01
   219  2.1800000000000E+00 -4.5871739863843E-01