H     ONCVPSP-4.0.1  r_core=   1.00283   0.70040
      1.0000      1.0000      231019    zatom,zion,pspd
     8       2   1     4   300     0    pspcod,pspxc,lmax,lloc,mmax,r2well
  2.99000000  0.00000000  0.00000000    rchrg fchrg qchrg
     2     1     0     0     0    nproj
     1     1           extension_switch
   0                        -1.8415805342960E+00 -5.9487986971365E-01
     1  0.0000000000000E+00  1.0697782684699E-07 -1.1034787938957E-07
     2  1.0000000000000E-02 -2.7471295588154E-03  1.3252705536873E-01
     3  2.0000000000000E-02 -3.6206763354946E-03  2.6269617357350E-01
     4  3.0000000000000E-02 -7.9639885754174E-04  3.8820315746871E-01
     5  4.0000000000000E-02  7.4524386327903E-03  5.0685004824901E-01
     6  5.0000000000000E-02  2.2709227081654E-02  6.1659516972671E-01
     7  6.0000000000000E-02  4.6371590950501E-02  7.1559956419931E-01
     8  7.0000000000000E-02  7.9613393415508E-02  8.0226875074365E-01
     9  8.0000000000000E-02  1.2335207091049E-01  8.7528884712152E-01
    10  9.0000000000000E-02  1.7822207086811E-01  9.3365622928968E-01
    11  1.0000000000000E-01  2.4455501946940E-01  9.7670005454942E-01
    12  1.1000000000000E-01  3.2236708440058E-01  1.0040971419574E+00
    13  1.2000000000000E-01  4.1135382506248E-01  1.0158788826923E+00
    14  1.3000000000000E-01  5.1089264365918E-01  1.0124300393076E+00
    15  1.4000000000000E-01  6.2005276953512E-01  9.9447948170771E-01
    16  1.5000000000000E-01  7.3761253049132E-01  9.6308309474021E-01
    17  1.6000000000000E-01  8.6208349297094E-01  9.1959927301720E-01
    18  1.7000000000000E-01  9.9174089214718E-01  8.6565758868117E-01
    19  1.8000000000000E-01  1.1246596269639E+00  8.0312137329351E-01
    20  1.9000000000000E-01  1.2587549675629E+00  7.3404509221167E-01
    21  2.0000000000000E-01  1.3918270162978E+00  6.6062750556431E-01
    22  2.1000000000000E-01  1.5216078811349E+00  5.8516170160263E-01
    23  2.2000000000000E-01  1.6458104635213E+00  5.0998315377615E-01
    24  2.3000000000000E-01  1.7621777329436E+00  4.3741699097798E-01
    25  2.4000000000000E-01  1.8685313579029E+00  3.6972568033119E-01
    26  2.5000000000000E-01  1.9628185877047E+00  3.0905830364147E-01
    27  2.6000000000000E-01  2.0431563304397E+00  2.5740256290177E-01
    28  2.7000000000000E-01  2.1078714482749E+00  2.1654057835035E-01
    29  2.8000000000000E-01  2.1555363895687E+00  1.8800944651990E-01
    30  2.9000000000000E-01  2.1849993956761E+00  1.7306740801418E-01
    31  3.0000000000000E-01  2.1954086554808E+00  1.7266633844554E-01
    32  3.1000000000000E-01  2.1862299291247E+00  1.8743112452578E-01
    33  3.2000000000000E-01  2.1572573202934E+00  2.1764632450411E-01
    34  3.3000000000000E-01  2.1086170397132E+00  2.6325034202033E-01
    35  3.4000000000000E-01  2.0407641671389E+00  3.2383716912413E-01
    36  3.5000000000000E-01  1.9544725809631E+00  3.9866558188660E-01
    37  3.6000000000000E-01  1.8508183797167E+00  4.8667550477860E-01
    38  3.7000000000000E-01  1.7311572644255E+00  5.8651110173029E-01
    39  3.8000000000000E-01  1.5970964816401E+00  6.9655000614280E-01
    40  3.9000000000000E-01  1.4504620409718E+00  8.1493797237308E-01
    41  4.0000000000000E-01  1.2932620156285E+00  9.3962812018138E-01
    42  4.1000000000000E-01  1.1276468077650E+00  1.0684238536481E+00
    43  4.2000000000000E-01  9.5586731105254E-01  1.1990244689059E+00
    44  4.3000000000000E-01  7.8023192992446E-01  1.3290724218780E+00
    45  4.4000000000000E-01  6.0306341829376E-01  1.4562012086478E+00
    46  4.5000000000000E-01  4.2665648060424E-01  1.5780828170690E+00
    47  4.6000000000000E-01  2.5323703587347E-01  1.6924737381317E+00
    48  4.7000000000000E-01  8.4923982495912E-02  1.7972585782324E+00
    49  4.8000000000000E-01 -7.6305779943566E-02  1.8904903871108E+00
    50  4.9000000000000E-01 -2.2864841324024E-01  1.9704269086241E+00
    51  5.0000000000000E-01 -3.7049973983576E-01  2.0355620701076E+00
    52  5.1000000000000E-01 -5.0047695214960E-01  2.0846521478803E+00
    53  5.2000000000000E-01 -6.1743513323653E-01  2.1167361782976E+00
    54  5.3000000000000E-01 -7.2047842134678E-01  2.1311503222721E+00
    55  5.4000000000000E-01 -8.0896578231018E-01  2.1275360329473E+00
    56  5.5000000000000E-01 -8.8251148173171E-01  2.1058420178004E+00
    57  5.6000000000000E-01 -9.4098047064848E-01  2.0663201245461E+00
    58  5.7000000000000E-01 -9.8447901069733E-01  2.0095154116998E+00
    59  5.8000000000000E-01 -1.0133409654425E+00  1.9362507866309E+00
    60  5.9000000000000E-01 -1.0281102711844E+00  1.8476067038795E+00
    61  6.0000000000000E-01 -1.0295201716051E+00  1.7448965122177E+00
    62  6.1000000000000E-01 -1.0184698547905E+00  1.6296381186800E+00
    63  6.2000000000000E-01 -9.9599916776541E-01  1.5035227002687E+00
    64  6.3000000000000E-01 -9.6326210245736E-01  1.3683812384158E+00
    65  6.4000000000000E-01 -9.2149974822978E-01  1.2261496772330E+00
    66  6.5000000000000E-01 -8.7201339051272E-01  1.0788335141972E+00
    67  6.6000000000000E-01 -8.1613840377317E-01  9.2847262177726E-01
    68  6.7000000000000E-01 -7.5521954164403E-01  7.7710707159284E-01
    69  6.8000000000000E-01 -6.9058816933055E-01  6.2674469034052E-01
    70  6.9000000000000E-01 -6.2354191563872E-01  4.7933102075184E-01
    71  7.0000000000000E-01 -5.5532714519245E-01  3.3672229063521E-01
    72  7.1000000000000E-01 -4.8712379040010E-01  2.0066032321634E-01
    73  7.2000000000000E-01 -4.2002390507101E-01  7.2732402880323E-02
    74  7.3000000000000E-01 -3.5500970933082E-01 -4.5669620545619E-02
    75  7.4000000000000E-01 -2.9294264039416E-01 -1.5336834234448E-01
    76  7.5000000000000E-01 -2.3455652308643E-01 -2.4941334663842E-01
    77  7.6000000000000E-01 -1.8045378525408E-01 -3.3308932922863E-01
    78  7.7000000000000E-01 -1.3110456044478E-01 -4.0391982334658E-01
    79  7.8000000000000E-01 -8.6848464741400E-02 -4.6166663361567E-01
    80  7.9000000000000E-01 -4.7898789185138E-02 -5.0632515793596E-01
    81  8.0000000000000E-01 -1.4348814403413E-02 -5.3811584318561E-01
    82  8.1000000000000E-01  1.3820069948487E-02 -5.5747207781956E-01
    83  8.2000000000000E-01  3.6728771633575E-02 -5.6502487207297E-01
    84  8.3000000000000E-01  5.4589761927440E-02 -5.6158471425401E-01
    85  8.4000000000000E-01  6.7695528681537E-02 -5.4812101954572E-01
    86  8.5000000000000E-01  7.6406528749582E-02 -5.2573960608234E-01
    87  8.6000000000000E-01  8.1138929987782E-02 -4.9565864231101E-01
    88  8.7000000000000E-01  8.2352404996391E-02 -4.5918351047710E-01
    89  8.8000000000000E-01  8.0538206366558E-02 -4.1768102431452E-01
    90  8.9000000000000E-01  7.6207717991276E-02 -3.7255342563707E-01
    91  9.0000000000000E-01  6.9881640535152E-02 -3.2521256552862E-01
    92  9.1000000000000E-01  6.2079932921396E-02 -2.7705465227298E-01
    93  9.2000000000000E-01  5.3312597056940E-02 -2.2943592108542E-01
    94  9.3000000000000E-01  4.4071361181703E-02 -1.8364955109014E-01
    95  9.4000000000000E-01  3.4822256231626E-02 -1.4090409278088E-01
    96  9.5000000000000E-01  2.5999353117913E-02 -1.0230391582214E-01
    97  9.6000000000000E-01  1.7957749632769E-02 -6.8792501899628E-02
    98  9.7000000000000E-01  1.0994853116842E-02 -4.1161168709272E-02
    99  9.8000000000000E-01  5.4981987672487E-03 -2.0178841630305E-02
   100  9.9000000000000E-01  1.7835378373150E-03 -6.4335318411813E-03
   101  1.0000000000000E+00  1.0694605456086E-04 -3.8008226737432E-04
   102  1.0100000000000E+00  3.9618811779334E-06 -1.4026525972377E-05
   103  1.0200000000000E+00 -4.7609870528764E-07  1.6953328340023E-06
   104  1.03  0.  0.
   105  1.04  0.  0.
   106  1.05  0.  0.
   107  1.06  0.  0.
   108  1.07  0.  0.
   109  1.08  0.  0.
   110  1.09  0.  0.
   111  1.10  0.  0.
   112  1.11  0.  0.
   113  1.12  0.  0.
   114  1.13  0.  0.
   115  1.14  0.  0.
   116  1.15  0.  0.
   117  1.16  0.  0.
   118  1.17  0.  0.
   119  1.18  0.  0.
   120  1.19  0.  0.
   121  1.20  0.  0.
   122  1.21  0.  0.
   123  1.22  0.  0.
   124  1.23  0.  0.
   125  1.24  0.  0.
   126  1.25  0.  0.
   127  1.26  0.  0.
   128  1.27  0.  0.
   129  1.28  0.  0.
   130  1.29  0.  0.
   131  1.30  0.  0.
   132  1.31  0.  0.
   133  1.32  0.  0.
   134  1.33  0.  0.
   135  1.34  0.  0.
   136  1.35  0.  0.
   137  1.36  0.  0.
   138  1.37  0.  0.
   139  1.38  0.  0.
   140  1.39  0.  0.
   141  1.40  0.  0.
   142  1.41  0.  0.
   143  1.42  0.  0.
   144  1.43  0.  0.
   145  1.44  0.  0.
   146  1.45  0.  0.
   147  1.46  0.  0.
   148  1.47  0.  0.
   149  1.48  0.  0.
   150  1.49  0.  0.
   151  1.50  0.  0.
   152  1.51  0.  0.
   153  1.52  0.  0.
   154  1.53  0.  0.
   155  1.54  0.  0.
   156  1.55  0.  0.
   157  1.56  0.  0.
   158  1.57  0.  0.
   159  1.58  0.  0.
   160  1.59  0.  0.
   161  1.60  0.  0.
   162  1.61  0.  0.
   163  1.62  0.  0.
   164  1.63  0.  0.
   165  1.64  0.  0.
   166  1.65  0.  0.
   167  1.66  0.  0.
   168  1.67  0.  0.
   169  1.68  0.  0.
   170  1.69  0.  0.
   171  1.70  0.  0.
   172  1.71  0.  0.
   173  1.72  0.  0.
   174  1.73  0.  0.
   175  1.74  0.  0.
   176  1.75  0.  0.
   177  1.76  0.  0.
   178  1.77  0.  0.
   179  1.78  0.  0.
   180  1.79  0.  0.
   181  1.80  0.  0.
   182  1.81  0.  0.
   183  1.82  0.  0.
   184  1.83  0.  0.
   185  1.84  0.  0.
   186  1.85  0.  0.
   187  1.86  0.  0.
   188  1.87  0.  0.
   189  1.88  0.  0.
   190  1.89  0.  0.
   191  1.90  0.  0.
   192  1.91  0.  0.
   193  1.92  0.  0.
   194  1.93  0.  0.
   195  1.94  0.  0.
   196  1.95  0.  0.
   197  1.96  0.  0.
   198  1.97  0.  0.
   199  1.98  0.  0.
   200  1.99  0.  0.
   201  2.00  0.  0.
   202  2.01  0.  0.
   203  2.02  0.  0.
   204  2.03  0.  0.
   205  2.04  0.  0.
   206  2.05  0.  0.
   207  2.06  0.  0.
   208  2.07  0.  0.
   209  2.08  0.  0.
   210  2.09  0.  0.
   211  2.10  0.  0.
   212  2.11  0.  0.
   213  2.12  0.  0.
   214  2.13  0.  0.
   215  2.14  0.  0.
   216  2.15  0.  0.
   217  2.16  0.  0.
   218  2.17  0.  0.
   219  2.18  0.  0.
   220  2.19  0.  0.
   221  2.20  0.  0.
   222  2.21  0.  0.
   223  2.22  0.  0.
   224  2.23  0.  0.
   225  2.24  0.  0.
   226  2.25  0.  0.
   227  2.26  0.  0.
   228  2.27  0.  0.
   229  2.28  0.  0.
   230  2.29  0.  0.
   231  2.30  0.  0.
   232  2.31  0.  0.
   233  2.32  0.  0.
   234  2.33  0.  0.
   235  2.34  0.  0.
   236  2.35  0.  0.
   237  2.36  0.  0.
   238  2.37  0.  0.
   239  2.38  0.  0.
   240  2.39  0.  0.
   241  2.40  0.  0.
   242  2.41  0.  0.
   243  2.42  0.  0.
   244  2.43  0.  0.
   245  2.44  0.  0.
   246  2.45  0.  0.
   247  2.46  0.  0.
   248  2.47  0.  0.
   249  2.48  0.  0.
   250  2.49  0.  0.
   251  2.50  0.  0.
   252  2.51  0.  0.
   253  2.52  0.  0.
   254  2.53  0.  0.
   255  2.54  0.  0.
   256  2.55  0.  0.
   257  2.56  0.  0.
   258  2.57  0.  0.
   259  2.58  0.  0.
   260  2.59  0.  0.
   261  2.60  0.  0.
   262  2.61  0.  0.
   263  2.62  0.  0.
   264  2.63  0.  0.
   265  2.64  0.  0.
   266  2.65  0.  0.
   267  2.66  0.  0.
   268  2.67  0.  0.
   269  2.68  0.  0.
   270  2.69  0.  0.
   271  2.70  0.  0.
   272  2.71  0.  0.
   273  2.72  0.  0.
   274  2.73  0.  0.
   275  2.74  0.  0.
   276  2.75  0.  0.
   277  2.76  0.  0.
   278  2.77  0.  0.
   279  2.78  0.  0.
   280  2.79  0.  0.
   281  2.80  0.  0.
   282  2.81  0.  0.
   283  2.82  0.  0.
   284  2.83  0.  0.
   285  2.84  0.  0.
   286  2.85  0.  0.
   287  2.86  0.  0.
   288  2.87  0.  0.
   289  2.88  0.  0.
   290  2.89  0.  0.
   291  2.90  0.  0.
   292  2.91  0.  0.
   293  2.92  0.  0.
   294  2.93  0.  0.
   295  2.94  0.  0.
   296  2.95  0.  0.
   297  2.96  0.  0.
   298  2.97  0.  0.
   299  2.98  0.  0.
   300  2.99  0.  0.
   1                        -4.9406822745549E-01
     1  0.0000000000000E+00 -1.1539587148612E-06
     2  1.0000000000000E-02 -8.8891984594398E-03
     3  2.0000000000000E-02 -3.5207291333164E-02
     4  3.0000000000000E-02 -7.7923731708117E-02
     5  4.0000000000000E-02 -1.3537987295725E-01
     6  5.0000000000000E-02 -2.0537413418310E-01
     7  6.0000000000000E-02 -2.8527493834539E-01
     8  7.0000000000000E-02 -3.7215551821041E-01
     9  8.0000000000000E-02 -4.6294353130137E-01
    10  9.0000000000000E-02 -5.5457763354996E-01
    11  1.0000000000000E-01 -6.4416277368494E-01
    12  1.1000000000000E-01 -7.2911600746973E-01
    13  1.2000000000000E-01 -8.0729509213883E-01
    14  1.3000000000000E-01 -8.7710298467929E-01
    15  1.4000000000000E-01 -9.3756259039893E-01
    16  1.5000000000000E-01 -9.8835762958318E-01
    17  1.6000000000000E-01 -1.0298372336707E+00
    18  1.7000000000000E-01 -1.0629837604092E+00
    19  1.8000000000000E-01 -1.0893452348243E+00
    20  1.9000000000000E-01 -1.1109356820412E+00
    21  2.0000000000000E-01 -1.1301083239873E+00
    22  2.1000000000000E-01 -1.1494080769368E+00
    23  2.2000000000000E-01 -1.1714109345926E+00
    24  2.3000000000000E-01 -1.1985585913077E+00
    25  2.4000000000000E-01 -1.2329970101889E+00
    26  2.5000000000000E-01 -1.2764275500961E+00
    27  2.6000000000000E-01 -1.3299787348870E+00
    28  2.7000000000000E-01 -1.3941058006805E+00
    29  2.8000000000000E-01 -1.4685238365404E+00
    30  2.9000000000000E-01 -1.5521787039042E+00
    31  3.0000000000000E-01 -1.6432580593780E+00
    32  3.1000000000000E-01 -1.7392428053679E+00
    33  3.2000000000000E-01 -1.8369972522805E+00
    34  3.3000000000000E-01 -1.9328942963316E+00
    35  3.4000000000000E-01 -2.0229700977528E+00
    36  3.5000000000000E-01 -2.1031011776011E+00
    37  3.6000000000000E-01 -2.1691956178425E+00
    38  3.7000000000000E-01 -2.2173892134420E+00
    39  3.8000000000000E-01 -2.2442370322047E+00
    40  3.9000000000000E-01 -2.2468909118986E+00
    41  4.0000000000000E-01 -2.2232539657160E+00
    42  4.1000000000000E-01 -2.1721041542895E+00
    43  4.2000000000000E-01 -2.0931803710582E+00
    44  4.3000000000000E-01 -1.9872262134491E+00
    45  4.4000000000000E-01 -1.8559885937307E+00
    46  4.5000000000000E-01 -1.7021704859436E+00
    47  4.6000000000000E-01 -1.5293393058542E+00
    48  4.7000000000000E-01 -1.3417945726311E+00
    49  4.8000000000000E-01 -1.1444004987159E+00
    50  4.9000000000000E-01 -9.4239089975688E-01
    51  5.0000000000000E-01 -7.4115522266616E-01
    52  5.1000000000000E-01 -5.4601548599872E-01
    53  5.2000000000000E-01 -3.6200446154907E-01
    54  5.3000000000000E-01 -1.9365547003343E-01
    55  5.4000000000000E-01 -4.4813711369304E-02
    56  5.5000000000000E-01  8.1521880190092E-02
    57  5.6000000000000E-01  1.8331863221824E-01
    58  5.7000000000000E-01  2.5958609718580E-01
    59  5.8000000000000E-01  3.1040412903090E-01
    60  5.9000000000000E-01  3.3690144626333E-01
    61  6.0000000000000E-01  3.4118537053590E-01
    62  6.1000000000000E-01  3.2622572413944E-01
    63  6.2000000000000E-01  2.9569803271655E-01
    64  6.3000000000000E-01  2.5379310620507E-01
    65  6.4000000000000E-01  2.0500166815929E-01
    66  6.5000000000000E-01  1.5388389323086E-01
    67  6.6000000000000E-01  1.0483445875985E-01
    68  6.7000000000000E-01  6.1907425575602E-02
    69  6.8000000000000E-01  2.8720607748067E-02
    70  6.9000000000000E-01  7.6072775584154E-03
    71  7.0000000000000E-01  3.9900771753974E-05
    72  7.1000000000000E-01 -2.6558001878669E-06
    73  7.2000000000000E-01  0.0000000000000E+00
    74  0.73  0.
    75  0.74  0.
    76  0.75  0.
    77  0.76  0.
    78  0.77  0.
    79  0.78  0.
    80  0.79  0.
    81  0.80  0.
    82  0.81  0.
    83  0.82  0.
    84  0.83  0.
    85  0.84  0.
    86  0.85  0.
    87  0.86  0.
    88  0.87  0.
    89  0.88  0.
    90  0.89  0.
    91  0.90  0.
    92  0.91  0.
    93  0.92  0.
    94  0.93  0.
    95  0.94  0.
    96  0.95  0.
    97  0.96  0.
    98  0.97  0.
    99  0.98  0.
   100  0.99  0.
   101  1.00  0.
   102  1.01  0.
   103  1.02  0.
   104  1.03  0.
   105  1.04  0.
   106  1.05  0.
   107  1.06  0.
   108  1.07  0.
   109  1.08  0.
   110  1.09  0.
   111  1.10  0.
   112  1.11  0.
   113  1.12  0.
   114  1.13  0.
   115  1.14  0.
   116  1.15  0.
   117  1.16  0.
   118  1.17  0.
   119  1.18  0.
   120  1.19  0.
   121  1.20  0.
   122  1.21  0.
   123  1.22  0.
   124  1.23  0.
   125  1.24  0.
   126  1.25  0.
   127  1.26  0.
   128  1.27  0.
   129  1.28  0.
   130  1.29  0.
   131  1.30  0.
   132  1.31  0.
   133  1.32  0.
   134  1.33  0.
   135  1.34  0.
   136  1.35  0.
   137  1.36  0.
   138  1.37  0.
   139  1.38  0.
   140  1.39  0.
   141  1.40  0.
   142  1.41  0.
   143  1.42  0.
   144  1.43  0.
   145  1.44  0.
   146  1.45  0.
   147  1.46  0.
   148  1.47  0.
   149  1.48  0.
   150  1.49  0.
   151  1.50  0.
   152  1.51  0.
   153  1.52  0.
   154  1.53  0.
   155  1.54  0.
   156  1.55  0.
   157  1.56  0.
   158  1.57  0.
   159  1.58  0.
   160  1.59  0.
   161  1.60  0.
   162  1.61  0.
   163  1.62  0.
   164  1.63  0.
   165  1.64  0.
   166  1.65  0.
   167  1.66  0.
   168  1.67  0.
   169  1.68  0.
   170  1.69  0.
   171  1.70  0.
   172  1.71  0.
   173  1.72  0.
   174  1.73  0.
   175  1.74  0.
   176  1.75  0.
   177  1.76  0.
   178  1.77  0.
   179  1.78  0.
   180  1.79  0.
   181  1.80  0.
   182  1.81  0.
   183  1.82  0.
   184  1.83  0.
   185  1.84  0.
   186  1.85  0.
   187  1.86  0.
   188  1.87  0.
   189  1.88  0.
   190  1.89  0.
   191  1.90  0.
   192  1.91  0.
   193  1.92  0.
   194  1.93  0.
   195  1.94  0.
   196  1.95  0.
   197  1.96  0.
   198  1.97  0.
   199  1.98  0.
   200  1.99  0.
   201  2.00  0.
   202  2.01  0.
   203  2.02  0.
   204  2.03  0.
   205  2.04  0.
   206  2.05  0.
   207  2.06  0.
   208  2.07  0.
   209  2.08  0.
   210  2.09  0.
   211  2.10  0.
   212  2.11  0.
   213  2.12  0.
   214  2.13  0.
   215  2.14  0.
   216  2.15  0.
   217  2.16  0.
   218  2.17  0.
   219  2.18  0.
   220  2.19  0.
   221  2.20  0.
   222  2.21  0.
   223  2.22  0.
   224  2.23  0.
   225  2.24  0.
   226  2.25  0.
   227  2.26  0.
   228  2.27  0.
   229  2.28  0.
   230  2.29  0.
   231  2.30  0.
   232  2.31  0.
   233  2.32  0.
   234  2.33  0.
   235  2.34  0.
   236  2.35  0.
   237  2.36  0.
   238  2.37  0.
   239  2.38  0.
   240  2.39  0.
   241  2.40  0.
   242  2.41  0.
   243  2.42  0.
   244  2.43  0.
   245  2.44  0.
   246  2.45  0.
   247  2.46  0.
   248  2.47  0.
   249  2.48  0.
   250  2.49  0.
   251  2.50  0.
   252  2.51  0.
   253  2.52  0.
   254  2.53  0.
   255  2.54  0.
   256  2.55  0.
   257  2.56  0.
   258  2.57  0.
   259  2.58  0.
   260  2.59  0.
   261  2.60  0.
   262  2.61  0.
   263  2.62  0.
   264  2.63  0.
   265  2.64  0.
   266  2.65  0.
   267  2.66  0.
   268  2.67  0.
   269  2.68  0.
   270  2.69  0.
   271  2.70  0.
   272  2.71  0.
   273  2.72  0.
   274  2.73  0.
   275  2.74  0.
   276  2.75  0.
   277  2.76  0.
   278  2.77  0.
   279  2.78  0.
   280  2.79  0.
   281  2.80  0.
   282  2.81  0.
   283  2.82  0.
   284  2.83  0.
   285  2.84  0.
   286  2.85  0.
   287  2.86  0.
   288  2.87  0.
   289  2.88  0.
   290  2.89  0.
   291  2.90  0.
   292  2.91  0.
   293  2.92  0.
   294  2.93  0.
   295  2.94  0.
   296  2.95  0.
   297  2.96  0.
   298  2.97  0.
   299  2.98  0.
   300  2.99  0.
   4
     1  0.0000000000000E+00 -3.1134658926392E+00
     2  1.0000000000000E-02 -3.1128333744171E+00
     3  2.0000000000000E-02 -3.1109366227466E+00
     4  3.0000000000000E-02 -3.1077783819551E+00
     5  4.0000000000000E-02 -3.1033631669021E+00
     6  5.0000000000000E-02 -3.0976972918918E+00
     7  6.0000000000000E-02 -3.0907888641589E+00
     8  7.0000000000000E-02 -3.0826477753993E+00
     9  8.0000000000000E-02 -3.0732856913009E+00
    10  9.0000000000000E-02 -3.0627160390082E+00
    11  1.0000000000000E-01 -3.0509539924430E+00
    12  1.1000000000000E-01 -3.0380164553969E+00
    13  1.2000000000000E-01 -3.0239220422999E+00
    14  1.3000000000000E-01 -3.0086910565660E+00
    15  1.4000000000000E-01 -2.9923454664115E+00
    16  1.5000000000000E-01 -2.9749088780364E+00
    17  1.6000000000000E-01 -2.9564065060598E+00
    18  1.7000000000000E-01 -2.9368651410993E+00
    19  1.8000000000000E-01 -2.9163131143853E+00
    20  1.9000000000000E-01 -2.8947802593062E+00
    21  2.0000000000000E-01 -2.8722978697822E+00
    22  2.1000000000000E-01 -2.8488986553762E+00
    23  2.2000000000000E-01 -2.8246166930542E+00
    24  2.3000000000000E-01 -2.7994873755195E+00
    25  2.4000000000000E-01 -2.7735473560547E+00
    26  2.5000000000000E-01 -2.7468344898175E+00
    27  2.6000000000000E-01 -2.7193877715491E+00
    28  2.7000000000000E-01 -2.6912472696664E+00
    29  2.8000000000000E-01 -2.6624540567264E+00
    30  2.9000000000000E-01 -2.6330501362605E+00
    31  3.0000000000000E-01 -2.6030783659954E+00
    32  3.1000000000000E-01 -2.5725823774892E+00
    33  3.2000000000000E-01 -2.5416064922263E+00
    34  3.3000000000000E-01 -2.5101956342256E+00
    35  3.4000000000000E-01 -2.4783952392334E+00
    36  3.5000000000000E-01 -2.4462511605781E+00
    37  3.6000000000000E-01 -2.4138095717791E+00
    38  3.7000000000000E-01 -2.3811168660063E+00
    39  3.8000000000000E-01 -2.3482195524980E+00
    40  3.9000000000000E-01 -2.3151641500454E+00
    41  4.0000000000000E-01 -2.2819970776598E+00
    42  4.1000000000000E-01 -2.2487645425371E+00
    43  4.2000000000000E-01 -2.2155124254337E+00
    44  4.3000000000000E-01 -2.1822861635675E+00
    45  4.4000000000000E-01 -2.1491306311502E+00
    46  4.5000000000000E-01 -2.1160900176531E+00
    47  4.6000000000000E-01 -2.0832077038985E+00
    48  4.7000000000000E-01 -2.0505261360599E+00
    49  4.8000000000000E-01 -2.0180866976413E+00
    50  4.9000000000000E-01 -1.9859295794950E+00
    51  5.0000000000000E-01 -1.9540936479198E+00
    52  5.1000000000000E-01 -1.9226163108699E+00
    53  5.2000000000000E-01 -1.8915333822858E+00
    54  5.3000000000000E-01 -1.8608789445434E+00
    55  5.4000000000000E-01 -1.8306852090012E+00
    56  5.5000000000000E-01 -1.8009823746070E+00
    57  5.6000000000000E-01 -1.7717984845120E+00
    58  5.7000000000000E-01 -1.7431592806212E+00
    59  5.8000000000000E-01 -1.7150880559970E+00
    60  5.9000000000000E-01 -1.6876055050183E+00
    61  6.0000000000000E-01 -1.6607295711836E+00
    62  6.1000000000000E-01 -1.6344752924398E+00
    63  6.2000000000000E-01 -1.6088546439060E+00
    64  6.3000000000000E-01 -1.5838763778572E+00
    65  6.4000000000000E-01 -1.5595458608285E+00
    66  6.5000000000000E-01 -1.5358649076974E+00
    67  6.6000000000000E-01 -1.5128316126050E+00
    68  6.7000000000000E-01 -1.4904401765753E+00
    69  6.8000000000000E-01 -1.4686807317040E+00
    70  6.9000000000000E-01 -1.4475391617709E+00
    71  7.0000000000000E-01 -1.4269969194691E+00
    72  7.1000000000000E-01 -1.4070310640903E+00
    73  7.2000000000000E-01 -1.3876168773413E+00
    74  7.3000000000000E-01 -1.3687307831863E+00
    75  7.4000000000000E-01 -1.3503505680077E+00
    76  7.5000000000000E-01 -1.3324552966884E+00
    77  7.6000000000000E-01 -1.3150252340691E+00
    78  7.7000000000000E-01 -1.2980417711432E+00
    79  7.8000000000000E-01 -1.2814873554674E+00
    80  7.9000000000000E-01 -1.2653454253585E+00
    81  8.0000000000000E-01 -1.2496003475122E+00
    82  8.1000000000000E-01 -1.2342373577430E+00
    83  8.2000000000000E-01 -1.2192425045980E+00
    84  8.3000000000000E-01 -1.2046025956471E+00
    85  8.4000000000000E-01 -1.1903051462958E+00
    86  8.5000000000000E-01 -1.1763383310032E+00
    87  8.6000000000000E-01 -1.1626909368241E+00
    88  8.7000000000000E-01 -1.1493523192185E+00
    89  8.8000000000000E-01 -1.1363123600959E+00
    90  8.9000000000000E-01 -1.1235614280813E+00
    91  9.0000000000000E-01 -1.1110903410003E+00
    92  9.1000000000000E-01 -1.0988903305948E+00
    93  9.2000000000000E-01 -1.0869530094814E+00
    94  9.3000000000000E-01 -1.0752703403704E+00
    95  9.4000000000000E-01 -1.0638346075608E+00
    96  9.5000000000000E-01 -1.0526383907207E+00
    97  9.6000000000000E-01 -1.0416745409596E+00
    98  9.7000000000000E-01 -1.0309361592039E+00
    99  9.8000000000000E-01 -1.0204165768427E+00
   100  9.9000000000000E-01 -1.0101093385587E+00
   101  1.0000000000000E+00 -1.0000081873658E+00
   102  1.0100000000000E+00 -9.9010705278407E-01
   103  1.0200000000000E+00 -9.8040005864358E-01
   104  1.0300000000000E+00 -9.7088155040323E-01
   105  1.0400000000000E+00 -9.6154609107737E-01
   106  1.0500000000000E+00 -9.5238845069380E-01
   107  1.0600000000000E+00 -9.4340359663344E-01
   108  1.0700000000000E+00 -9.3458668441446E-01
   109  1.0800000000000E+00 -9.2593304898022E-01
   110  1.0900000000000E+00 -9.1743819646884E-01
   111  1.1000000000000E+00 -9.0909779643160E-01
   112  1.1100000000000E+00 -9.0090767447196E-01
   113  1.1200000000000E+00 -8.9286380527899E-01
   114  1.1300000000000E+00 -8.8496230603063E-01
   115  1.1400000000000E+00 -8.7719943014420E-01
   116  1.1500000000000E+00 -8.6957156135294E-01
   117  1.1600000000000E+00 -8.6207520808899E-01
   118  1.1700000000000E+00 -8.5470699815428E-01
   119  1.1800000000000E+00 -8.4746367366262E-01
   120  1.1900000000000E+00 -8.4034208623655E-01
   121  1.2000000000000E+00 -8.3333919244459E-01
   122  1.2100000000000E+00 -8.2645204946457E-01
   123  1.2200000000000E+00 -8.1967781096030E-01
   124  1.2300000000000E+00 -8.1301372315939E-01
   125  1.2400000000000E+00 -8.0645712112085E-01
   126  1.2500000000000E+00 -8.0000542518183E-01
   127  1.2600000000000E+00 -7.9365613757353E-01
   128  1.2700000000000E+00 -7.8740683919708E-01
   129  1.2800000000000E+00 -7.8125518655049E-01
   130  1.2900000000000E+00 -7.7519890879848E-01
   131  1.3000000000000E+00 -7.6923580497768E-01
   132  1.3100000000000E+00 -7.6336374132973E-01
   133  1.3200000000000E+00 -7.5758064875564E-01
   134  1.3300000000000E+00 -7.5188452038498E-01
   135  1.3400000000000E+00 -7.4627340925393E-01
   136  1.3500000000000E+00 -7.4074542608652E-01
   137  1.3600000000000E+00 -7.3529873717373E-01
   138  1.3700000000000E+00 -7.2993156234555E-01
   139  1.3800000000000E+00 -7.2464217303109E-01
   140  1.3900000000000E+00 -7.1942889040255E-01
   141  1.4000000000000E+00 -7.1429008359867E-01
   142  1.4100000000000E+00 -7.0922416802379E-01
   143  1.4200000000000E+00 -7.0422960371875E-01
   144  1.4300000000000E+00 -6.9930489380022E-01
   145  1.4400000000000E+00 -6.9444858296499E-01
   146  1.4500000000000E+00 -6.8965925605616E-01
   147  1.4600000000000E+00 -6.8493553668829E-01
   148  1.4700000000000E+00 -6.8027608592861E-01
   149  1.4800000000000E+00 -6.7567960103178E-01
   150  1.4900000000000E+00 -6.7114481422549E-01
   151  1.5000000000000E+00 -6.6667049154474E-01
   152  1.5100000000000E+00 -6.6225543171235E-01
   153  1.5200000000000E+00 -6.5789846506373E-01
   154  1.5300000000000E+00 -6.5359845251379E-01
   155  1.5400000000000E+00 -6.4935428456409E-01
   156  1.5500000000000E+00 -6.4516488034841E-01
   157  1.5600000000000E+00 -6.4102918671511E-01
   158  1.5700000000000E+00 -6.3694617734443E-01
   159  1.5800000000000E+00 -6.3291485189944E-01
   160  1.5900000000000E+00 -6.2893423520893E-01
   161  1.6000000000000E+00 -6.2500337648099E-01
   162  1.6100000000000E+00 -6.2112134854589E-01
   163  1.6200000000000E+00 -6.1728724712703E-01
   164  1.6300000000000E+00 -6.1350019013865E-01
   165  1.6400000000000E+00 -6.0975931700928E-01
   166  1.6500000000000E+00 -6.0606378802986E-01
   167  1.6600000000000E+00 -6.0241278372527E-01
   168  1.6700000000000E+00 -5.9880550424855E-01
   169  1.6800000000000E+00 -5.9524116879678E-01
   170  1.6900000000000E+00 -5.9171901504756E-01
   171  1.7000000000000E+00 -5.8823829861554E-01
   172  1.7100000000000E+00 -5.8479829252789E-01
   173  1.7200000000000E+00 -5.8139828671817E-01
   174  1.7300000000000E+00 -5.7803758753766E-01
   175  1.7400000000000E+00 -5.7471551728362E-01
   176  1.7500000000000E+00 -5.7143141374368E-01
   177  1.7600000000000E+00 -5.6818462975575E-01
   178  1.7700000000000E+00 -5.6497453278293E-01
   179  1.7800000000000E+00 -5.6180050450262E-01
   180  1.7900000000000E+00 -5.5866194040951E-01
   181  1.8000000000000E+00 -5.5555824943177E-01
   182  1.8100000000000E+00 -5.5248885355993E-01
   183  1.8200000000000E+00 -5.4945318748808E-01
   184  1.8300000000000E+00 -5.4645069826670E-01
   185  1.8400000000000E+00 -5.4348084496695E-01
   186  1.8500000000000E+00 -5.4054309835577E-01
   187  1.8600000000000E+00 -5.3763694058147E-01
   188  1.8700000000000E+00 -5.3476186486941E-01
   189  1.8800000000000E+00 -5.3191737522741E-01
   190  1.8900000000000E+00 -5.2910298616050E-01
   191  1.9000000000000E+00 -5.2631822239468E-01
   192  1.9100000000000E+00 -5.2356261860933E-01
   193  1.9200000000000E+00 -5.2083571917805E-01
   194  1.9300000000000E+00 -5.1813707791745E-01
   195  1.9400000000000E+00 -5.1546625784386E-01
   196  1.9500000000000E+00 -5.1282283093737E-01
   197  1.9600000000000E+00 -5.1020637791319E-01
   198  1.9700000000000E+00 -5.0761648799992E-01
   199  1.9800000000000E+00 -5.0505275872463E-01
   200  1.9900000000000E+00 -5.0251479570428E-01
   201  2.0000000000000E+00 -5.0000221244351E-01
   202  2.0100000000000E+00 -4.9751463013844E-01
   203  2.0200000000000E+00 -4.9505167748625E-01
   204  2.0300000000000E+00 -4.9261299050045E-01
   205  2.0400000000000E+00 -4.9019821233158E-01
   206  2.0500000000000E+00 -4.8780699309307E-01
   207  2.0600000000000E+00 -4.8543898969231E-01
   208  2.0700000000000E+00 -4.8309386566649E-01
   209  2.0800000000000E+00 -4.8077129102326E-01
   210  2.0900000000000E+00 -4.7847094208593E-01
   211  2.1000000000000E+00 -4.7619250134309E-01
   212  2.1100000000000E+00 -4.7393565730251E-01
   213  2.1200000000000E+00 -4.7170010434920E-01
   214  2.1300000000000E+00 -4.6948554260741E-01
   215  2.1400000000000E+00 -4.6729167780657E-01
   216  2.1500000000000E+00 -4.6511822115093E-01
   217  2.1600000000000E+00 -4.6296488919276E-01
   218  2.1700000000000E+00 -4.6083140370923E-01
   219  2.1800000000000E+00 -4.5871749158258E-01