H     ONCVPSP-4.0.1  r_core=   1.00231   0.70004
      1.0000      1.0000      250925    zatom,zion,pspd
     8   -1012   1     4   300     0    pspcod,pspxc,lmax,lloc,mmax,r2well
  2.99000000  0.00000000  0.00000000    rchrg fchrg qchrg
     2     1     0     0    nproj
     3     1           extension_switch
     2     0     0    nprojso
   0                        -1.8434718730090E+00 -5.9543635613665E-01
     1  0.0000000000000E+00  1.0781427960127E-07 -1.1106371156089E-07
     2  1.0000000000000E-02 -2.9273219819033E-03  1.3272808895041E-01
     3  2.0000000000000E-02 -3.9734283607979E-03  2.6309216683775E-01
     4  3.0000000000000E-02 -1.3066983035677E-03  3.8878216790638E-01
     5  4.0000000000000E-02  6.8064840364177E-03  5.0759466889329E-01
     6  5.0000000000000E-02  2.1955659682953E-02  6.1748311951060E-01
     7  6.0000000000000E-02  4.5543664475454E-02  7.1660444600732E-01
     8  7.0000000000000E-02  7.8748453959869E-02  8.0336095335137E-01
     9  8.0000000000000E-02  1.2249029149543E-01  8.7643656263660E-01
    10  9.0000000000000E-02  1.7740507792584E-01  9.3482655398225E-01
    11  1.0000000000000E-01  2.4382445298744E-01  9.7786013820213E-01
    12  1.1000000000000E-01  3.2176313558567E-01  1.0052153491587E+00
    13  1.2000000000000E-01  4.1091379622406E-01  1.0169259288956E+00
    14  1.3000000000000E-01  5.1064957453233E-01  1.0133800650025E+00
    15  1.4000000000000E-01  6.2003417247866E-01  9.9531102968804E-01
    16  1.5000000000000E-01  7.3783927395961E-01  9.6377995815398E-01
    17  1.6000000000000E-01  8.6256886845645E-01  9.2015118557884E-01
    18  1.7000000000000E-01  9.9248989454927E-01  8.6606073299881E-01
    19  1.8000000000000E-01  1.1256684722088E+00  8.0337868858769E-01
    20  1.9000000000000E-01  1.2600108644624E+00  7.3416636861751E-01
    21  2.0000000000000E-01  1.3933082022872E+00  6.6062925854500E-01
    22  2.1000000000000E-01  1.5232839238889E+00  5.8506682657120E-01
    23  2.2000000000000E-01  1.6476428227378E+00  5.0982036763255E-01
    24  2.3000000000000E-01  1.7641205690238E+00  4.3722007372364E-01
    25  2.4000000000000E-01  1.8705325670734E+00  3.6953253603436E-01
    26  2.5000000000000E-01  1.9648210365262E+00  3.0890986561187E-01
    27  2.6000000000000E-01  2.0450992568140E+00  2.5734157282813E-01
    28  2.7000000000000E-01  2.1096919911780E+00  2.1661027321232E-01
    29  2.8000000000000E-01  2.1571712059293E+00  1.8825219018701E-01
    30  2.9000000000000E-01  2.1863863202051E+00  1.7352330649350E-01
    31  3.0000000000000E-01  2.1964883579012E+00  1.7337187867719E-01
    32  3.1000000000000E-01  2.1869475232031E+00  1.8841787641491E-01
    33  3.2000000000000E-01  2.1575638803153E+00  2.1893974452990E-01
    34  3.3000000000000E-01  2.1084709825502E+00  2.6486871430495E-01
    35  3.4000000000000E-01  2.0401324617390E+00  3.2579071635230E-01
    36  3.5000000000000E-01  1.9533317518536E+00  4.0095577403171E-01
    37  3.6000000000000E-01  1.8491552767974E+00  4.8929458834341E-01
    38  3.7000000000000E-01  1.7289695777791E+00  5.8944186629505E-01
    39  3.8000000000000E-01  1.5943929871133E+00  6.9976579860099E-01
    40  3.9000000000000E-01  1.4472625696768E+00  8.1840296250294E-01
    41  4.0000000000000E-01  1.2895971480621E+00  9.4329781434678E-01
    42  4.1000000000000E-01  1.1235573007355E+00  1.0722458466318E+00
    43  4.2000000000000E-01  9.5140327281509E-01  1.2029394173487E+00
    44  4.3000000000000E-01  7.7545176565858E-01  1.3330152167116E+00
    45  4.4000000000000E-01  5.9803257412064E-01  1.4601023184350E+00
    46  4.5000000000000E-01  4.2144601956487E-01  1.5818697694573E+00
    47  4.6000000000000E-01  2.4792208353373E-01  1.6960727028181E+00
    48  4.7000000000000E-01  7.9582082996387E-02  1.8005960120248E+00
    49  4.8000000000000E-01 -8.1596354597322E-02  1.8934946999388E+00
    50  4.9000000000000E-01 -2.3381035709004E-01  1.9730301087380E+00
    51  5.0000000000000E-01 -3.7545836699446E-01  2.0377013472260E+00
    52  5.1000000000000E-01 -5.0516176951108E-01  2.0862713546804E+00
    53  5.2000000000000E-01 -6.2178129325049E-01  2.1177871733402E+00
    54  5.3000000000000E-01 -7.2442802008532E-01  2.1315941411373E+00
    55  5.4000000000000E-01 -8.1246897282306E-01  2.1273438589162E+00
    56  5.5000000000000E-01 -8.8552737822923E-01  2.1049959287227E+00
    57  5.6000000000000E-01 -9.4347782519801E-01  2.0648135984428E+00
    58  5.7000000000000E-01 -9.8643665068480E-01  2.0073535799811E+00
    59  5.8000000000000E-01 -1.0147479868450E+00  1.9334504304086E+00
    60  5.9000000000000E-01 -1.0289659895207E+00  1.8441959955242E+00
    61  6.0000000000000E-01 -1.0298338390915E+00  1.7409145108813E+00
    62  6.1000000000000E-01 -1.0182601585361E+00  1.6251340348055E+00
    63  6.2000000000000E-01 -9.9529352962701E-01  1.4985549499604E+00
    64  6.3000000000000E-01 -9.6209580628478E-01  1.3630163138206E+00
    65  6.4000000000000E-01 -9.1991492453707E-01  1.2204608636363E+00
    66  6.5000000000000E-01 -8.7005789200754E-01  1.0728994882666E+00
    67  6.6000000000000E-01 -8.1386460759085E-01  9.2237596821765E-01
    68  6.7000000000000E-01 -7.5268311552231E-01  7.7093275733849E-01
    69  6.8000000000000E-01 -6.8784683931647E-01  6.2057853629111E-01
    70  6.9000000000000E-01 -6.2065427225661E-01  4.7325821094693E-01
    71  7.0000000000000E-01 -5.5235152390938E-01  3.3082595878961E-01
    72  7.1000000000000E-01 -4.8411712748042E-01  1.9501998763113E-01
    73  7.2000000000000E-01 -4.1704022575946E-01  6.7421610956343E-02
    74  7.3000000000000E-01 -3.5209899856189E-01 -5.0584863467759E-02
    75  7.4000000000000E-01 -2.9014998775971E-01 -1.5783069300394E-01
    76  7.5000000000000E-01 -2.3192142863866E-01 -2.5337504951429E-01
    77  7.6000000000000E-01 -1.7800963576926E-01 -3.3651293144334E-01
    78  7.7000000000000E-01 -1.2887828010498E-01 -4.0677866877896E-01
    79  7.8000000000000E-01 -8.4860339241669E-02 -4.6394513137468E-01
    80  7.9000000000000E-01 -4.6162457582620E-02 -5.0801882546577E-01
    81  8.0000000000000E-01 -1.2871418738408E-02 -5.3923112917557E-01
    82  8.1000000000000E-01  1.5037590998506E-02 -5.5802597466624E-01
    83  8.2000000000000E-01  3.7691261962245E-02 -5.6504433178055E-01
    84  8.3000000000000E-01  5.5307319438229E-02 -5.6110588528196E-01
    85  8.4000000000000E-01  6.8182890069328E-02 -5.4718832515252E-01
    86  8.5000000000000E-01  7.6682389733093E-02 -5.2440468712652E-01
    87  8.6000000000000E-01  8.1225223355518E-02 -4.9397918923276E-01
    88  8.7000000000000E-01  8.2273558371190E-02 -4.5722201028904E-01
    89  8.8000000000000E-01  8.0320400483031E-02 -4.1550344889956E-01
    90  8.9000000000000E-01  7.5878164586780E-02 -3.7022788751313E-01
    91  9.0000000000000E-01  6.9467896774132E-02 -3.2280796654853E-01
    92  9.1000000000000E-01  6.1609266711436E-02 -2.7463934954543E-01
    93  9.2000000000000E-01  5.2811414782526E-02 -2.2707643279809E-01
    94  9.3000000000000E-01  4.3564706408605E-02 -1.8140932297894E-01
    95  9.4000000000000E-01  3.4333370876338E-02 -1.3884233064179E-01
    96  9.5000000000000E-01  2.5549394446605E-02 -1.0047458534456E-01
    97  9.6000000000000E-01  1.7560034142694E-02 -6.7238255923416E-02
    98  9.7000000000000E-01  1.0667963323187E-02 -3.9925016952571E-02
    99  9.8000000000000E-01  5.2588955157760E-03 -1.9296801732704E-02
   100  9.9000000000000E-01  1.6445110445552E-03 -5.9313552284943E-03
   101  1.0000000000000E+00  7.8479758551459E-05 -2.7879949541431E-04
   102  1.0100000000000E+00  5.0515394987433E-06 -1.7909782703874E-05
   103  1.0200000000000E+00 -2.2985651188866E-07  8.1981902894058E-07
   104  1.03  0.  0.
   105  1.04  0.  0.
   106  1.05  0.  0.
   107  1.06  0.  0.
   108  1.07  0.  0.
   109  1.08  0.  0.
   110  1.09  0.  0.
   111  1.10  0.  0.
   112  1.11  0.  0.
   113  1.12  0.  0.
   114  1.13  0.  0.
   115  1.14  0.  0.
   116  1.15  0.  0.
   117  1.16  0.  0.
   118  1.17  0.  0.
   119  1.18  0.  0.
   120  1.19  0.  0.
   121  1.20  0.  0.
   122  1.21  0.  0.
   123  1.22  0.  0.
   124  1.23  0.  0.
   125  1.24  0.  0.
   126  1.25  0.  0.
   127  1.26  0.  0.
   128  1.27  0.  0.
   129  1.28  0.  0.
   130  1.29  0.  0.
   131  1.30  0.  0.
   132  1.31  0.  0.
   133  1.32  0.  0.
   134  1.33  0.  0.
   135  1.34  0.  0.
   136  1.35  0.  0.
   137  1.36  0.  0.
   138  1.37  0.  0.
   139  1.38  0.  0.
   140  1.39  0.  0.
   141  1.40  0.  0.
   142  1.41  0.  0.
   143  1.42  0.  0.
   144  1.43  0.  0.
   145  1.44  0.  0.
   146  1.45  0.  0.
   147  1.46  0.  0.
   148  1.47  0.  0.
   149  1.48  0.  0.
   150  1.49  0.  0.
   151  1.50  0.  0.
   152  1.51  0.  0.
   153  1.52  0.  0.
   154  1.53  0.  0.
   155  1.54  0.  0.
   156  1.55  0.  0.
   157  1.56  0.  0.
   158  1.57  0.  0.
   159  1.58  0.  0.
   160  1.59  0.  0.
   161  1.60  0.  0.
   162  1.61  0.  0.
   163  1.62  0.  0.
   164  1.63  0.  0.
   165  1.64  0.  0.
   166  1.65  0.  0.
   167  1.66  0.  0.
   168  1.67  0.  0.
   169  1.68  0.  0.
   170  1.69  0.  0.
   171  1.70  0.  0.
   172  1.71  0.  0.
   173  1.72  0.  0.
   174  1.73  0.  0.
   175  1.74  0.  0.
   176  1.75  0.  0.
   177  1.76  0.  0.
   178  1.77  0.  0.
   179  1.78  0.  0.
   180  1.79  0.  0.
   181  1.80  0.  0.
   182  1.81  0.  0.
   183  1.82  0.  0.
   184  1.83  0.  0.
   185  1.84  0.  0.
   186  1.85  0.  0.
   187  1.86  0.  0.
   188  1.87  0.  0.
   189  1.88  0.  0.
   190  1.89  0.  0.
   191  1.90  0.  0.
   192  1.91  0.  0.
   193  1.92  0.  0.
   194  1.93  0.  0.
   195  1.94  0.  0.
   196  1.95  0.  0.
   197  1.96  0.  0.
   198  1.97  0.  0.
   199  1.98  0.  0.
   200  1.99  0.  0.
   201  2.00  0.  0.
   202  2.01  0.  0.
   203  2.02  0.  0.
   204  2.03  0.  0.
   205  2.04  0.  0.
   206  2.05  0.  0.
   207  2.06  0.  0.
   208  2.07  0.  0.
   209  2.08  0.  0.
   210  2.09  0.  0.
   211  2.10  0.  0.
   212  2.11  0.  0.
   213  2.12  0.  0.
   214  2.13  0.  0.
   215  2.14  0.  0.
   216  2.15  0.  0.
   217  2.16  0.  0.
   218  2.17  0.  0.
   219  2.18  0.  0.
   220  2.19  0.  0.
   221  2.20  0.  0.
   222  2.21  0.  0.
   223  2.22  0.  0.
   224  2.23  0.  0.
   225  2.24  0.  0.
   226  2.25  0.  0.
   227  2.26  0.  0.
   228  2.27  0.  0.
   229  2.28  0.  0.
   230  2.29  0.  0.
   231  2.30  0.  0.
   232  2.31  0.  0.
   233  2.32  0.  0.
   234  2.33  0.  0.
   235  2.34  0.  0.
   236  2.35  0.  0.
   237  2.36  0.  0.
   238  2.37  0.  0.
   239  2.38  0.  0.
   240  2.39  0.  0.
   241  2.40  0.  0.
   242  2.41  0.  0.
   243  2.42  0.  0.
   244  2.43  0.  0.
   245  2.44  0.  0.
   246  2.45  0.  0.
   247  2.46  0.  0.
   248  2.47  0.  0.
   249  2.48  0.  0.
   250  2.49  0.  0.
   251  2.50  0.  0.
   252  2.51  0.  0.
   253  2.52  0.  0.
   254  2.53  0.  0.
   255  2.54  0.  0.
   256  2.55  0.  0.
   257  2.56  0.  0.
   258  2.57  0.  0.
   259  2.58  0.  0.
   260  2.59  0.  0.
   261  2.60  0.  0.
   262  2.61  0.  0.
   263  2.62  0.  0.
   264  2.63  0.  0.
   265  2.64  0.  0.
   266  2.65  0.  0.
   267  2.66  0.  0.
   268  2.67  0.  0.
   269  2.68  0.  0.
   270  2.69  0.  0.
   271  2.70  0.  0.
   272  2.71  0.  0.
   273  2.72  0.  0.
   274  2.73  0.  0.
   275  2.74  0.  0.
   276  2.75  0.  0.
   277  2.76  0.  0.
   278  2.77  0.  0.
   279  2.78  0.  0.
   280  2.79  0.  0.
   281  2.80  0.  0.
   282  2.81  0.  0.
   283  2.82  0.  0.
   284  2.83  0.  0.
   285  2.84  0.  0.
   286  2.85  0.  0.
   287  2.86  0.  0.
   288  2.87  0.  0.
   289  2.88  0.  0.
   290  2.89  0.  0.
   291  2.90  0.  0.
   292  2.91  0.  0.
   293  2.92  0.  0.
   294  2.93  0.  0.
   295  2.94  0.  0.
   296  2.95  0.  0.
   297  2.96  0.  0.
   298  2.97  0.  0.
   299  2.98  0.  0.
   300  2.99  0.  0.
   1                        -4.9433816679657E-01
     1  0.0000000000000E+00  1.1582280661782E-06
     2  1.0000000000000E-02  8.9004048442892E-03
     3  2.0000000000000E-02  3.5251327087437E-02
     4  3.0000000000000E-02  7.8019909295995E-02
     5  4.0000000000000E-02  1.3554384606425E-01
     6  5.0000000000000E-02  2.0561682374795E-01
     7  6.0000000000000E-02  2.8560181581628E-01
     8  7.0000000000000E-02  3.7256630423229E-01
     9  8.0000000000000E-02  4.6343233904414E-01
    10  9.0000000000000E-02  5.5513355448241E-01
    11  1.0000000000000E-01  6.4477087181768E-01
    12  1.1000000000000E-01  7.2975865801109E-01
    13  1.2000000000000E-01  8.0795357412408E-01
    14  1.3000000000000E-01  8.7775921624014E-01
    15  1.4000000000000E-01  9.3820088140889E-01
    16  1.5000000000000E-01  9.8896632050670E-01
    17  1.6000000000000E-01  1.0304100921412E+00
    18  1.7000000000000E-01  1.0635210184135E+00
    19  1.8000000000000E-01  1.0898541688929E+00
    20  1.9000000000000E-01  1.1114306655336E+00
    21  2.0000000000000E-01  1.1306103129412E+00
    22  2.1000000000000E-01  1.1499435271622E+00
    23  2.2000000000000E-01  1.1720101855885E+00
    24  2.3000000000000E-01  1.1992537898489E+00
    25  2.4000000000000E-01  1.2338196807389E+00
    26  2.5000000000000E-01  1.2774059483217E+00
    27  2.6000000000000E-01  1.3311351424951E+00
    28  2.7000000000000E-01  1.3954539329655E+00
    29  2.8000000000000E-01  1.4700665372726E+00
    30  2.9000000000000E-01  1.5539060949309E+00
    31  3.0000000000000E-01  1.6451462945599E+00
    32  3.1000000000000E-01  1.7412535508796E+00
    33  3.2000000000000E-01  1.8390779790968E+00
    34  3.3000000000000E-01  1.9349794276798E+00
    35  3.4000000000000E-01  2.0249830066814E+00
    36  3.5000000000000E-01  2.1049569801709E+00
    37  3.6000000000000E-01  2.1708046585735E+00
    38  3.7000000000000E-01  2.2186610943914E+00
    39  3.8000000000000E-01  2.2450849981267E+00
    40  3.9000000000000E-01  2.2472363738225E+00
    41  4.0000000000000E-01  2.2230309260127E+00
    42  4.1000000000000E-01  2.1712632894020E+00
    43  4.2000000000000E-01  2.0916925344121E+00
    44  4.3000000000000E-01  1.9850851407985E+00
    45  4.4000000000000E-01  1.8532126257594E+00
    46  4.5000000000000E-01  1.6988031670223E+00
    47  4.6000000000000E-01  1.5254487714748E+00
    48  4.7000000000000E-01  1.3374716986138E+00
    49  4.8000000000000E-01  1.1397558497982E+00
    50  4.9000000000000E-01  9.3755058024898E-01
    51  5.0000000000000E-01  7.3625579402853E-01
    52  5.1000000000000E-01  5.4119817201024E-01
    53  5.2000000000000E-01  3.5740890798297E-01
    54  5.3000000000000E-01  1.8941335965328E-01
    55  5.4000000000000E-01  4.1042554381564E-02
    56  5.5000000000000E-01 -8.4724456839112E-02
    57  5.6000000000000E-01 -1.8587978682484E-01
    58  5.7000000000000E-01 -2.6146158676519E-01
    59  5.8000000000000E-01 -3.1158080010601E-01
    60  5.9000000000000E-01 -3.3739822797923E-01
    61  6.0000000000000E-01 -3.4105266520565E-01
    62  6.1000000000000E-01 -3.2554316797359E-01
    63  6.2000000000000E-01 -2.9457068085269E-01
    64  6.3000000000000E-01 -2.5234617710943E-01
    65  6.4000000000000E-01 -2.0337405878066E-01
    66  6.5000000000000E-01 -1.5222074387438E-01
    67  6.6000000000000E-01 -1.0327912114094E-01
    68  6.7000000000000E-01 -6.0600953400613E-02
    69  6.8000000000000E-01 -2.7776057393735E-02
    70  6.9000000000000E-01 -7.1039349346553E-03
    71  7.0000000000000E-01 -4.4117019889549E-06
    72  7.1000000000000E-01  3.0479213679010E-06
    73  7.2000000000000E-01  0.0000000000000E+00
    74  0.73  0.
    75  0.74  0.
    76  0.75  0.
    77  0.76  0.
    78  0.77  0.
    79  0.78  0.
    80  0.79  0.
    81  0.80  0.
    82  0.81  0.
    83  0.82  0.
    84  0.83  0.
    85  0.84  0.
    86  0.85  0.
    87  0.86  0.
    88  0.87  0.
    89  0.88  0.
    90  0.89  0.
    91  0.90  0.
    92  0.91  0.
    93  0.92  0.
    94  0.93  0.
    95  0.94  0.
    96  0.95  0.
    97  0.96  0.
    98  0.97  0.
    99  0.98  0.
   100  0.99  0.
   101  1.00  0.
   102  1.01  0.
   103  1.02  0.
   104  1.03  0.
   105  1.04  0.
   106  1.05  0.
   107  1.06  0.
   108  1.07  0.
   109  1.08  0.
   110  1.09  0.
   111  1.10  0.
   112  1.11  0.
   113  1.12  0.
   114  1.13  0.
   115  1.14  0.
   116  1.15  0.
   117  1.16  0.
   118  1.17  0.
   119  1.18  0.
   120  1.19  0.
   121  1.20  0.
   122  1.21  0.
   123  1.22  0.
   124  1.23  0.
   125  1.24  0.
   126  1.25  0.
   127  1.26  0.
   128  1.27  0.
   129  1.28  0.
   130  1.29  0.
   131  1.30  0.
   132  1.31  0.
   133  1.32  0.
   134  1.33  0.
   135  1.34  0.
   136  1.35  0.
   137  1.36  0.
   138  1.37  0.
   139  1.38  0.
   140  1.39  0.
   141  1.40  0.
   142  1.41  0.
   143  1.42  0.
   144  1.43  0.
   145  1.44  0.
   146  1.45  0.
   147  1.46  0.
   148  1.47  0.
   149  1.48  0.
   150  1.49  0.
   151  1.50  0.
   152  1.51  0.
   153  1.52  0.
   154  1.53  0.
   155  1.54  0.
   156  1.55  0.
   157  1.56  0.
   158  1.57  0.
   159  1.58  0.
   160  1.59  0.
   161  1.60  0.
   162  1.61  0.
   163  1.62  0.
   164  1.63  0.
   165  1.64  0.
   166  1.65  0.
   167  1.66  0.
   168  1.67  0.
   169  1.68  0.
   170  1.69  0.
   171  1.70  0.
   172  1.71  0.
   173  1.72  0.
   174  1.73  0.
   175  1.74  0.
   176  1.75  0.
   177  1.76  0.
   178  1.77  0.
   179  1.78  0.
   180  1.79  0.
   181  1.80  0.
   182  1.81  0.
   183  1.82  0.
   184  1.83  0.
   185  1.84  0.
   186  1.85  0.
   187  1.86  0.
   188  1.87  0.
   189  1.88  0.
   190  1.89  0.
   191  1.90  0.
   192  1.91  0.
   193  1.92  0.
   194  1.93  0.
   195  1.94  0.
   196  1.95  0.
   197  1.96  0.
   198  1.97  0.
   199  1.98  0.
   200  1.99  0.
   201  2.00  0.
   202  2.01  0.
   203  2.02  0.
   204  2.03  0.
   205  2.04  0.
   206  2.05  0.
   207  2.06  0.
   208  2.07  0.
   209  2.08  0.
   210  2.09  0.
   211  2.10  0.
   212  2.11  0.
   213  2.12  0.
   214  2.13  0.
   215  2.14  0.
   216  2.15  0.
   217  2.16  0.
   218  2.17  0.
   219  2.18  0.
   220  2.19  0.
   221  2.20  0.
   222  2.21  0.
   223  2.22  0.
   224  2.23  0.
   225  2.24  0.
   226  2.25  0.
   227  2.26  0.
   228  2.27  0.
   229  2.28  0.
   230  2.29  0.
   231  2.30  0.
   232  2.31  0.
   233  2.32  0.
   234  2.33  0.
   235  2.34  0.
   236  2.35  0.
   237  2.36  0.
   238  2.37  0.
   239  2.38  0.
   240  2.39  0.
   241  2.40  0.
   242  2.41  0.
   243  2.42  0.
   244  2.43  0.
   245  2.44  0.
   246  2.45  0.
   247  2.46  0.
   248  2.47  0.
   249  2.48  0.
   250  2.49  0.
   251  2.50  0.
   252  2.51  0.
   253  2.52  0.
   254  2.53  0.
   255  2.54  0.
   256  2.55  0.
   257  2.56  0.
   258  2.57  0.
   259  2.58  0.
   260  2.59  0.
   261  2.60  0.
   262  2.61  0.
   263  2.62  0.
   264  2.63  0.
   265  2.64  0.
   266  2.65  0.
   267  2.66  0.
   268  2.67  0.
   269  2.68  0.
   270  2.69  0.
   271  2.70  0.
   272  2.71  0.
   273  2.72  0.
   274  2.73  0.
   275  2.74  0.
   276  2.75  0.
   277  2.76  0.
   278  2.77  0.
   279  2.78  0.
   280  2.79  0.
   281  2.80  0.
   282  2.81  0.
   283  2.82  0.
   284  2.83  0.
   285  2.84  0.
   286  2.85  0.
   287  2.86  0.
   288  2.87  0.
   289  2.88  0.
   290  2.89  0.
   291  2.90  0.
   292  2.91  0.
   293  2.92  0.
   294  2.93  0.
   295  2.94  0.
   296  2.95  0.
   297  2.96  0.
   298  2.97  0.
   299  2.98  0.
   300  2.99  0.
   4
     1  0.0000000000000E+00 -3.1150079261117E+00
     2  1.0000000000000E-02 -3.1143759366238E+00
     3  2.0000000000000E-02 -3.1124763818115E+00
     4  3.0000000000000E-02 -3.1093134792359E+00
     5  4.0000000000000E-02 -3.1048917530801E+00
     6  5.0000000000000E-02 -3.0992175320994E+00
     7  6.0000000000000E-02 -3.0922989423179E+00
     8  7.0000000000000E-02 -3.0841458984371E+00
     9  8.0000000000000E-02 -3.0747700933239E+00
    10  9.0000000000000E-02 -3.0641849854477E+00
    11  1.0000000000000E-01 -3.0524057841734E+00
    12  1.1000000000000E-01 -3.0394494328230E+00
    13  1.2000000000000E-01 -3.0253345894074E+00
    14  1.3000000000000E-01 -3.0100816049282E+00
    15  1.4000000000000E-01 -2.9937124991435E+00
    16  1.5000000000000E-01 -2.9762509336884E+00
    17  1.6000000000000E-01 -2.9577221824380E+00
    18  1.7000000000000E-01 -2.9381530990042E+00
    19  1.8000000000000E-01 -2.9175720812546E+00
    20  1.9000000000000E-01 -2.8960090327485E+00
    21  2.0000000000000E-01 -2.8734953209892E+00
    22  2.1000000000000E-01 -2.8500637323977E+00
    23  2.2000000000000E-01 -2.8257484239201E+00
    24  2.3000000000000E-01 -2.8005848711944E+00
    25  2.4000000000000E-01 -2.7746098132074E+00
    26  2.5000000000000E-01 -2.7478611933899E+00
    27  2.6000000000000E-01 -2.7203780971075E+00
    28  2.7000000000000E-01 -2.6922006855183E+00
    29  2.8000000000000E-01 -2.6633701257859E+00
    30  2.9000000000000E-01 -2.6339285176468E+00
    31  3.0000000000000E-01 -2.6039188163471E+00
    32  3.1000000000000E-01 -2.5733847519801E+00
    33  3.2000000000000E-01 -2.5423707452660E+00
    34  3.3000000000000E-01 -2.5109218198326E+00
    35  3.4000000000000E-01 -2.4790835110646E+00
    36  3.5000000000000E-01 -2.4469017716040E+00
    37  3.6000000000000E-01 -2.4144228735916E+00
    38  3.7000000000000E-01 -2.3816933077483E+00
    39  3.8000000000000E-01 -2.3487596794043E+00
    40  3.9000000000000E-01 -2.3156686015860E+00
    41  4.0000000000000E-01 -2.2824665852775E+00
    42  4.1000000000000E-01 -2.2491999269703E+00
    43  4.2000000000000E-01 -2.2159145936197E+00
    44  4.3000000000000E-01 -2.1826561051183E+00
    45  4.4000000000000E-01 -2.1494694143962E+00
    46  4.5000000000000E-01 -2.1163987852495E+00
    47  4.6000000000000E-01 -2.0834876679891E+00
    48  4.7000000000000E-01 -2.0507785729946E+00
    49  4.8000000000000E-01 -2.0183129422419E+00
    50  4.9000000000000E-01 -1.9861310188651E+00
    51  5.0000000000000E-01 -1.9542717147947E+00
    52  5.1000000000000E-01 -1.9227724764999E+00
    53  5.2000000000000E-01 -1.8916691488481E+00
    54  5.3000000000000E-01 -1.8609958370764E+00
    55  5.4000000000000E-01 -1.8307847668532E+00
    56  5.5000000000000E-01 -1.8010661423925E+00
    57  5.6000000000000E-01 -1.7718680025650E+00
    58  5.7000000000000E-01 -1.7432160749367E+00
    59  5.8000000000000E-01 -1.7151336276493E+00
    60  5.9000000000000E-01 -1.6876413190424E+00
    61  6.0000000000000E-01 -1.6607570449082E+00
    62  6.1000000000000E-01 -1.6344957832556E+00
    63  6.2000000000000E-01 -1.6088694364538E+00
    64  6.3000000000000E-01 -1.5838866706198E+00
    65  6.4000000000000E-01 -1.5595527521069E+00
    66  6.5000000000000E-01 -1.5358693809546E+00
    67  6.6000000000000E-01 -1.5128345211558E+00
    68  6.7000000000000E-01 -1.4904422276041E+00
    69  6.8000000000000E-01 -1.4686824695888E+00
    70  6.9000000000000E-01 -1.4475409506937E+00
    71  7.0000000000000E-01 -1.4269989251369E+00
    72  7.1000000000000E-01 -1.4070332718738E+00
    73  7.2000000000000E-01 -1.3876192339641E+00
    74  7.3000000000000E-01 -1.3687332378146E+00
    75  7.4000000000000E-01 -1.3503530727091E+00
    76  7.5000000000000E-01 -1.3324578069853E+00
    77  7.6000000000000E-01 -1.3150277094110E+00
    78  7.7000000000000E-01 -1.2980441752947E+00
    79  7.8000000000000E-01 -1.2814896568089E+00
    80  7.9000000000000E-01 -1.2653475970953E+00
    81  8.0000000000000E-01 -1.2496023677921E+00
    82  8.1000000000000E-01 -1.2342392096819E+00
    83  8.2000000000000E-01 -1.2192441762155E+00
    84  8.3000000000000E-01 -1.2046040797149E+00
    85  8.4000000000000E-01 -1.1903064401036E+00
    86  8.5000000000000E-01 -1.1763394360487E+00
    87  8.6000000000000E-01 -1.1626918584330E+00
    88  8.7000000000000E-01 -1.1493530661039E+00
    89  8.8000000000000E-01 -1.1363129438661E+00
    90  8.9000000000000E-01 -1.1235618627057E+00
    91  9.0000000000000E-01 -1.1110906422454E+00
    92  9.1000000000000E-01 -1.0988905154403E+00
    93  9.2000000000000E-01 -1.0869530955287E+00
    94  9.3000000000000E-01 -1.0752703452553E+00
    95  9.4000000000000E-01 -1.0638345483816E+00
    96  9.5000000000000E-01 -1.0526382834933E+00
    97  9.6000000000000E-01 -1.0416744001106E+00
    98  9.7000000000000E-01 -1.0309359971127E+00
    99  9.8000000000000E-01 -1.0204164034390E+00
   100  9.9000000000000E-01 -1.0101091609841E+00
   101  1.0000000000000E+00 -1.0000080097050E+00
   102  1.0100000000000E+00 -9.9010687613900E-01
   103  1.0200000000000E+00 -9.8039988296675E-01
   104  1.0300000000000E+00 -9.7088137572656E-01
   105  1.0400000000000E+00 -9.6154591739269E-01
   106  1.0500000000000E+00 -9.5238827799830E-01
   107  1.0600000000000E+00 -9.4340342492421E-01
   108  1.0700000000000E+00 -9.3458651368836E-01
   109  1.0800000000000E+00 -9.2593287923395E-01
   110  1.0900000000000E+00 -9.1743802769892E-01
   111  1.1000000000000E+00 -9.0909762863437E-01
   112  1.1100000000000E+00 -9.0090750764359E-01
   113  1.1200000000000E+00 -8.9286363941550E-01
   114  1.1300000000000E+00 -8.8496214112789E-01
   115  1.1400000000000E+00 -8.7719926619794E-01
   116  1.1500000000000E+00 -8.6957139835878E-01
   117  1.1600000000000E+00 -8.6207504604237E-01
   118  1.1700000000000E+00 -8.5470683705058E-01
   119  1.1800000000000E+00 -8.4746351349706E-01
   120  1.1900000000000E+00 -8.4034192700427E-01
   121  1.2000000000000E+00 -8.3333903414062E-01
   122  1.2100000000000E+00 -8.2645189208384E-01
   123  1.2200000000000E+00 -8.1967765449767E-01
   124  1.2300000000000E+00 -8.1301356760962E-01
   125  1.2400000000000E+00 -8.0645696647863E-01
   126  1.2500000000000E+00 -8.0000527144177E-01
   127  1.2600000000000E+00 -7.9365598473019E-01
   128  1.2700000000000E+00 -7.8740668724494E-01
   129  1.2800000000000E+00 -7.8125503548397E-01
   130  1.2900000000000E+00 -7.7519875861197E-01
   131  1.3000000000000E+00 -7.6923565566551E-01
   132  1.3100000000000E+00 -7.6336359288618E-01
   133  1.3200000000000E+00 -7.5758050117496E-01
   134  1.3300000000000E+00 -7.5188437366137E-01
   135  1.3400000000000E+00 -7.4627326338158E-01
   136  1.3500000000000E+00 -7.4074528105957E-01
   137  1.3600000000000E+00 -7.3529859298632E-01
   138  1.3700000000000E+00 -7.2993141899177E-01
   139  1.3800000000000E+00 -7.2464203050503E-01
   140  1.3900000000000E+00 -7.1942874869829E-01
   141  1.4000000000000E+00 -7.1428994271027E-01
   142  1.4100000000000E+00 -7.0922402794529E-01
   143  1.4200000000000E+00 -7.0422946444421E-01
   144  1.4300000000000E+00 -6.9930475532369E-01
   145  1.4400000000000E+00 -6.9444844528050E-01
   146  1.4500000000000E+00 -6.8965911915777E-01
   147  1.4600000000000E+00 -6.8493540057004E-01
   148  1.4700000000000E+00 -6.8027595058457E-01
   149  1.4800000000000E+00 -6.7567946645601E-01
   150  1.4900000000000E+00 -6.7114468041208E-01
   151  1.5000000000000E+00 -6.6667035848777E-01
   152  1.5100000000000E+00 -6.6225529940594E-01
   153  1.5200000000000E+00 -6.5789833350201E-01
   154  1.5300000000000E+00 -6.5359832169090E-01
   155  1.5400000000000E+00 -6.4935415447418E-01
   156  1.5500000000000E+00 -6.4516475098569E-01
   157  1.5600000000000E+00 -6.4102905807378E-01
   158  1.5700000000000E+00 -6.3694604941874E-01
   159  1.5800000000000E+00 -6.3291472468365E-01
   160  1.5900000000000E+00 -6.2893410869732E-01
   161  1.6000000000000E+00 -6.2500325066789E-01
   162  1.6100000000000E+00 -6.2112122342566E-01
   163  1.6200000000000E+00 -6.1728712269404E-01
   164  1.6300000000000E+00 -6.1350006638732E-01
   165  1.6400000000000E+00 -6.0975919393407E-01
   166  1.6500000000000E+00 -6.0606366562524E-01
   167  1.6600000000000E+00 -6.0241266198576E-01
   168  1.6700000000000E+00 -5.9880538316872E-01
   169  1.6800000000000E+00 -5.9524104837121E-01
   170  1.6900000000000E+00 -5.9171889527089E-01
   171  1.7000000000000E+00 -5.8823817948243E-01
   172  1.7100000000000E+00 -5.8479817403305E-01
   173  1.7200000000000E+00 -5.8139816885635E-01
   174  1.7300000000000E+00 -5.7803747030364E-01
   175  1.7400000000000E+00 -5.7471540067224E-01
   176  1.7500000000000E+00 -5.7143129774980E-01
   177  1.7600000000000E+00 -5.6818451437429E-01
   178  1.7700000000000E+00 -5.6497441800883E-01
   179  1.7800000000000E+00 -5.6180039033088E-01
   180  1.7900000000000E+00 -5.5866182683516E-01
   181  1.8000000000000E+00 -5.5555813644990E-01
   182  1.8100000000000E+00 -5.5248874116567E-01
   183  1.8200000000000E+00 -5.4945307567658E-01
   184  1.8300000000000E+00 -5.4645058703318E-01
   185  1.8400000000000E+00 -5.4348073430667E-01
   186  1.8500000000000E+00 -5.4054298826402E-01
   187  1.8600000000000E+00 -5.3763683105358E-01
   188  1.8700000000000E+00 -5.3476175590077E-01
   189  1.8800000000000E+00 -5.3191726681346E-01
   190  1.8900000000000E+00 -5.2910287829671E-01
   191  1.9000000000000E+00 -5.2631811507656E-01
   192  1.9100000000000E+00 -5.2356251183245E-01
   193  1.9200000000000E+00 -5.2083561293800E-01
   194  1.9300000000000E+00 -5.1813697220989E-01
   195  1.9400000000000E+00 -5.1546615266449E-01
   196  1.9500000000000E+00 -5.1282272628192E-01
   197  1.9600000000000E+00 -5.1020627377743E-01
   198  1.9700000000000E+00 -5.0761638437969E-01
   199  1.9800000000000E+00 -5.0505265561579E-01
   200  1.9900000000000E+00 -5.0251469310273E-01
   201  2.0000000000000E+00 -5.0000211034522E-01
   202  2.0100000000000E+00 -4.9751452853940E-01
   203  2.0200000000000E+00 -4.9505157638249E-01
   204  2.0300000000000E+00 -4.9261288988807E-01
   205  2.0400000000000E+00 -4.9019811220670E-01
   206  2.0500000000000E+00 -4.8780689345185E-01
   207  2.0600000000000E+00 -4.8543889053096E-01
   208  2.0700000000000E+00 -4.8309376698125E-01
   209  2.0800000000000E+00 -4.8077119281044E-01
   210  2.0900000000000E+00 -4.7847084434185E-01
   211  2.1000000000000E+00 -4.7619240406412E-01
   212  2.1100000000000E+00 -4.7393556048507E-01
   213  2.1200000000000E+00 -4.7170000798974E-01
   214  2.1300000000000E+00 -4.6948544670243E-01
   215  2.1400000000000E+00 -4.6729158235259E-01
   216  2.1500000000000E+00 -4.6511812614453E-01
   217  2.1600000000000E+00 -4.6296479463055E-01
   218  2.1700000000000E+00 -4.6083130958786E-01
   219  2.1800000000000E+00 -4.5871739789874E-01