Tl    ONCVPSP-4.0.1  r_core=   2.10952   2.60084   2.01094
     81.0000     13.0000      250217    zatom,zion,pspd
     8       2   2     4   600     0    pspcod,pspxc,lmax,lloc,mmax,r2well
  5.99000000  7.00000000  0.00000000    rchrg fchrg qchrg
     2     3     2     0    nproj
     3     1           extension_switch
     4     3     0    nprojso
   0                         6.0828596470924E+00  8.6180054969127E-01
     1  0.0000000000000E+00  9.4706742448381E-12 -4.2088763030357E-11
     2  1.0000000000000E-02  1.4516801566678E-02  8.8644487802973E-03
     3  2.0000000000000E-02  2.9037517495252E-02  1.7658063157053E-02
     4  3.0000000000000E-02  4.3566028145543E-02  2.6310376404629E-02
     5  4.0000000000000E-02  5.8106146145832E-02  3.4751655238742E-02
     6  5.0000000000000E-02  7.2661583206195E-02  4.2913261761697E-02
     7  6.0000000000000E-02  8.7235917740016E-02  5.0728009706967E-02
     8  7.0000000000000E-02  1.0183256355181E-01  5.8130513132532E-02
     9  8.0000000000000E-02  1.1645473984008E-01  6.5057525754534E-02
    10  9.0000000000000E-02  1.3110544275207E-01  7.1448269165049E-02
    11  1.0000000000000E-01  1.4578741871352E-01  7.7244748239782E-02
    12  1.1000000000000E-01  1.6050313974065E-01  8.2392052112963E-02
    13  1.2000000000000E-01  1.7525478092356E-01  8.6838639177111E-02
    14  1.3000000000000E-01  1.9004420025106E-01  9.0536604654314E-02
    15  1.4000000000000E-01  2.0487292092550E-01  9.3441929382659E-02
    16  1.5000000000000E-01  2.1974211629367E-01  9.5514708565931E-02
    17  1.6000000000000E-01  2.3465259749615E-01  9.6719359345900E-02
    18  1.7000000000000E-01  2.4960480391237E-01  9.7024806174116E-02
    19  1.8000000000000E-01  2.6459879645329E-01  9.6404643083043E-02
    20  1.9000000000000E-01  2.7963425372688E-01  9.4837272084250E-02
    21  2.0000000000000E-01  2.9471047107513E-01  9.2306017053271E-02
    22  2.1000000000000E-01  3.0982636245429E-01  8.8799212595826E-02
    23  2.2000000000000E-01  3.2498046510305E-01  8.4310267527883E-02
    24  2.3000000000000E-01  3.4017094691693E-01  7.8837702741473E-02
    25  2.4000000000000E-01  3.5539561642077E-01  7.2385163368248E-02
    26  2.5000000000000E-01  3.7065193520608E-01  6.4961405293506E-02
    27  2.6000000000000E-01  3.8593703267522E-01  5.6580256212765E-02
    28  2.7000000000000E-01  4.0124772291139E-01  4.7260551561220E-02
    29  2.8000000000000E-01  4.1658052347116E-01  3.7026045782244E-02
    30  2.9000000000000E-01  4.3193167587616E-01  2.5905299533592E-02
    31  3.0000000000000E-01  4.4729716756181E-01  1.3931543558924E-02
    32  3.1000000000000E-01  4.6267275502424E-01  1.1425200761211E-03
    33  3.2000000000000E-01  4.7805398789225E-01 -1.2419697347101E-02
    34  3.3000000000000E-01  4.9343623363858E-01 -2.6708904347293E-02
    35  3.4000000000000E-01  5.0881470263503E-01 -4.1674985560018E-02
    36  3.5000000000000E-01  5.2418447324858E-01 -5.7264152367412E-02
    37  3.6000000000000E-01  5.3954051667090E-01 -7.3419197220050E-02
    38  3.7000000000000E-01  5.5487772117151E-01 -9.0079763071874E-02
    39  3.8000000000000E-01  5.7019091546562E-01 -1.0718262639380E-01
    40  3.9000000000000E-01  5.8547489089123E-01 -1.2466199216678E-01
    41  4.0000000000000E-01  6.0072442209626E-01 -1.4244979920094E-01
    42  4.1000000000000E-01  6.1593428594567E-01 -1.6047603408201E-01
    43  4.2000000000000E-01  6.3109927837065E-01 -1.7866905201248E-01
    44  4.3000000000000E-01  6.4621422889625E-01 -1.9695590278981E-01
    45  4.4000000000000E-01  6.6127401260164E-01 -2.1526266015082E-01
    46  4.5000000000000E-01  6.7627355928679E-01 -2.3351475270788E-01
    47  4.6000000000000E-01  6.9120785964198E-01 -2.5163729470977E-01
    48  4.7000000000000E-01  7.0607196824125E-01 -2.6955541487756E-01
    49  4.8000000000000E-01  7.2086100320790E-01 -2.8719458159402E-01
    50  4.9000000000000E-01  7.3557014242913E-01 -3.0448092276285E-01
    51  5.0000000000000E-01  7.5019461622773E-01 -3.2134153870178E-01
    52  5.1000000000000E-01  7.6472969643109E-01 -3.3770480649102E-01
    53  5.2000000000000E-01  7.7917068181180E-01 -3.5350067426470E-01
    54  5.3000000000000E-01  7.9351287990871E-01 -3.6866094400791E-01
    55  5.4000000000000E-01  8.0775158527380E-01 -3.8311954150522E-01
    56  5.5000000000000E-01  8.2188205422602E-01 -3.9681277217735E-01
    57  5.6000000000000E-01  8.3589947623062E-01 -4.0967956163992E-01
    58  5.7000000000000E-01  8.4979894205923E-01 -4.2166167992314E-01
    59  5.8000000000000E-01  8.6357540892263E-01 -4.3270394840027E-01
    60  5.9000000000000E-01  8.7722366280447E-01 -4.4275442858793E-01
    61  6.0000000000000E-01  8.9073827825942E-01 -4.5176459210040E-01
    62  6.1000000000000E-01  9.0411357597381E-01 -4.5968947116206E-01
    63  6.2000000000000E-01  9.1734357841929E-01 -4.6648778920788E-01
    64  6.3000000000000E-01  9.3042196396169E-01 -4.7212207122822E-01
    65  6.4000000000000E-01  9.4334201981612E-01 -4.7655873364271E-01
    66  6.5000000000000E-01  9.5609659426656E-01 -4.7976815361603E-01
    67  6.6000000000000E-01  9.6867804859246E-01 -4.8172471785567E-01
    68  6.7000000000000E-01  9.8107820916690E-01 -4.8240685105885E-01
    69  6.8000000000000E-01  9.9328832020901E-01 -4.8179702429819E-01
    70  6.9000000000000E-01  1.0052989976895E+00 -4.7988174375813E-01
    71  7.0000000000000E-01  1.0171001848994E+00 -4.7665152034986E-01
    72  7.1000000000000E-01  1.0286811102016E+00 -4.7210082084535E-01
    73  7.2000000000000E-01  1.0400302474882E+00 -4.6622800127844E-01
    74  7.3000000000000E-01  1.0511352798686E+00 -4.5903522346107E-01
    75  7.4000000000000E-01  1.0619830671093E+00 -4.5052835555822E-01
    76  7.5000000000000E-01  1.0725596173394E+00 -4.4071685775136E-01
    77  7.6000000000000E-01  1.0828500635246E+00 -4.2961365409977E-01
    78  7.7000000000000E-01  1.0928386451952E+00 -4.1723499178036E-01
    79  7.8000000000000E-01  1.1025086958975E+00 -4.0360028894820E-01
    80  7.9000000000000E-01  1.1118426368088E+00 -3.8873197251354E-01
    81  8.0000000000000E-01  1.1208219769339E+00 -3.7265530717424E-01
    82  8.1000000000000E-01  1.1294273202637E+00 -3.5539821707660E-01
    83  8.2000000000000E-01  1.1376383802448E+00 -3.3699110150137E-01
    84  8.3000000000000E-01  1.1454340018673E+00 -3.1746664598493E-01
    85  8.4000000000000E-01  1.1527921916348E+00 -2.9685963029049E-01
    86  8.5000000000000E-01  1.1596901556360E+00 -2.7520673463612E-01
    87  8.6000000000000E-01  1.1661043458856E+00 -2.5254634557127E-01
    88  8.7000000000000E-01  1.1720105150516E+00 -2.2891836286590E-01
    89  8.8000000000000E-01  1.1773837796309E+00 -2.0436400874105E-01
    90  8.9000000000000E-01  1.1821986915776E+00 -1.7892564072374E-01
    91  9.0000000000000E-01  1.1864293183307E+00 -1.5264656935425E-01
    92  9.1000000000000E-01  1.1900493311264E+00 -1.2557088191183E-01
    93  9.2000000000000E-01  1.1930321014200E+00 -9.7743273251838E-02
    94  9.3000000000000E-01  1.1953508051799E+00 -6.9208884769942E-02
    95  9.4000000000000E-01  1.1969785347525E+00 -4.0013152422037E-02
    96  9.5000000000000E-01  1.1978884179377E+00 -1.0201664636806E-02
    97  9.6000000000000E-01  1.1980537438490E+00  2.0179969140920E-02
    98  9.7000000000000E-01  1.1974480950753E+00  5.1086238639948E-02
    99  9.8000000000000E-01  1.1960454855984E+00  8.2471841157758E-02
   100  9.9000000000000E-01  1.1938205038667E+00  1.1429177774297E-01
   101  1.0000000000000E+00  1.1907484603671E+00  1.4650143686081E-01
   102  1.0100000000000E+00  1.1868055389858E+00  1.7905666535239E-01
   103  1.0200000000000E+00  1.1819689514008E+00  2.1191382661410E-01
   104  1.0300000000000E+00  1.1762170937001E+00  2.4502984603958E-01
   105  1.0400000000000E+00  1.1695297043818E+00  2.7836224388173E-01
   106  1.0500000000000E+00  1.1618880228492E+00  3.1186915580560E-01
   107  1.0600000000000E+00  1.1532749474887E+00  3.4550934151362E-01
   108  1.0700000000000E+00  1.1436751923820E+00  3.7924218193221E-01
   109  1.0800000000000E+00  1.1330754416885E+00  4.1302766555158E-01
   110  1.0900000000000E+00  1.1214645007132E+00  4.4682636460900E-01
   111  1.1000000000000E+00  1.1088334426645E+00  4.8059940189787E-01
   112  1.1100000000000E+00  1.0951757501036E+00  5.1430840907047E-01
   113  1.1200000000000E+00  1.0804874500835E+00  5.4791547738150E-01
   114  1.1300000000000E+00  1.0647672419891E+00  5.8138310188960E-01
   115  1.1400000000000E+00  1.0480166170986E+00  6.1467412019680E-01
   116  1.1500000000000E+00  1.0302399689092E+00  6.4775164685920E-01
   117  1.1600000000000E+00  1.0114446932970E+00  6.8057900464631E-01
   118  1.1700000000000E+00  9.9164127761315E-01  7.1311965386100E-01
   119  1.1800000000000E+00  9.7084337785982E-01  7.4533712095589E-01
   120  1.1900000000000E+00  9.4906788313306E-01  7.7719492769675E-01
   121  1.2000000000000E+00  9.2633496657478E-01  8.0865652212643E-01
   122  1.2100000000000E+00  9.0266812213220E-01  8.3968521257586E-01
   123  1.2200000000000E+00  8.7809418648751E-01  8.7024410595180E-01
   124  1.2300000000000E+00  8.5264334559017E-01  9.0029605150193E-01
   125  1.2400000000000E+00  8.2634912529819E-01  9.2980359122000E-01
   126  1.2500000000000E+00  7.9924836571414E-01  9.5872891800545E-01
   127  1.2600000000000E+00  7.7138117888516E-01  9.8703384263223E-01
   128  1.2700000000000E+00  7.4279088962314E-01  1.0146797705154E+00
   129  1.2800000000000E+00  7.1352395929292E-01  1.0416276891854E+00
   130  1.2900000000000E+00  6.8362989250933E-01  1.0678381672950E+00
   131  1.3000000000000E+00  6.5316112678031E-01  1.0932713658908E+00
   132  1.3100000000000E+00  6.2217290523180E-01  1.1178870625809E+00
   133  1.3200000000000E+00  5.9072313264884E-01  1.1416446891191E+00
   134  1.3300000000000E+00  5.5887221516754E-01  1.1645033828199E+00
   135  1.3400000000000E+00  5.2668288405300E-01  1.1864220520924E+00
   136  1.3500000000000E+00  4.9422000409761E-01  1.2073594562643E+00
   137  1.3600000000000E+00  4.6155036727263E-01  1.2272742997389E+00
   138  1.3700000000000E+00  4.2874247236280E-01  1.2461253403995E+00
   139  1.3800000000000E+00  3.9586629140801E-01  1.2638715120478E+00
   140  1.3900000000000E+00  3.6299302386738E-01  1.2804720605309E+00
   141  1.4000000000000E+00  3.3019483950906E-01  1.2958866930813E+00
   142  1.4100000000000E+00  2.9754461111178E-01  1.3100757402693E+00
   143  1.4200000000000E+00  2.6511563814415E-01  1.3230003298370E+00
   144  1.4300000000000E+00  2.3298136265990E-01  1.3346225715640E+00
   145  1.4400000000000E+00  2.0121507871543E-01  1.3449057521950E+00
   146  1.4500000000000E+00  1.6988963667696E-01  1.3538145393470E+00
   147  1.4600000000000E+00  1.3907714383865E-01  1.3613151932088E+00
   148  1.4700000000000E+00  1.0884866282047E-01  1.3673757847420E+00
   149  1.4800000000000E+00  7.9273909253335E-02  1.3719664190056E+00
   150  1.4900000000000E+00  5.0420950290816E-02  1.3750594621396E+00
   151  1.5000000000000E+00  2.2355905509181E-02  1.3766297704707E+00
   152  1.5100000000000E+00 -4.8573482277642E-03  1.3766549201392E+00
   153  1.5200000000000E+00 -3.1157466357478E-02  1.3751154355931E+00
   154  1.5300000000000E+00 -5.6485919082393E-02  1.3719950152514E+00
   155  1.5400000000000E+00 -8.0787265143240E-02  1.3672807526114E+00
   156  1.5500000000000E+00 -1.0400941535734E-01  1.3609633510522E+00
   157  1.5600000000000E+00 -1.2610388440873E-01  1.3530373305819E+00
   158  1.5700000000000E+00 -1.4702602941647E-01  1.3435012247825E+00
   159  1.5800000000000E+00 -1.6673527385610E-01  1.3323577662211E+00
   160  1.5900000000000E+00 -1.8519531546699E-01  1.3196140586320E+00
   161  1.6000000000000E+00 -2.0237431684398E-01  1.3052817342108E+00
   162  1.6100000000000E+00 -2.1824507748619E-01  1.2893770944229E+00
   163  1.6200000000000E+00 -2.3278518615780E-01  1.2719212327922E+00
   164  1.6300000000000E+00 -2.4597715250512E-01  1.2529401382156E+00
   165  1.6400000000000E+00 -2.5780851697115E-01  1.2324647774397E+00
   166  1.6500000000000E+00 -2.6827193815174E-01  1.2105311554366E+00
   167  1.6600000000000E+00 -2.7736525684652E-01  1.1871803525260E+00
   168  1.6700000000000E+00 -2.8509153617303E-01  1.1624585372131E+00
   169  1.6800000000000E+00 -2.9145907723086E-01  1.1364169538388E+00
   170  1.6900000000000E+00 -2.9648140992717E-01  1.1091118842786E+00
   171  1.7000000000000E+00 -3.0017725870136E-01  1.0806045830685E+00
   172  1.7100000000000E+00 -3.0257048301662E-01  1.0509611854893E+00
   173  1.7200000000000E+00 -3.0368999261810E-01  1.0202525882944E+00
   174  1.7300000000000E+00 -3.0356963769008E-01  9.8855430292791E-01
   175  1.7400000000000E+00 -3.0224807417878E-01  9.5594628124346E-01
   176  1.7500000000000E+00 -2.9976860467962E-01  9.2251271389694E-01
   177  1.7600000000000E+00 -2.9617899542147E-01  8.8834180175723E-01
   178  1.7700000000000E+00 -2.9153127000929E-01  8.5352550084156E-01
   179  1.7800000000000E+00 -2.8588148071537E-01  8.1815924144961E-01
   180  1.7900000000000E+00 -2.7928945823335E-01  7.8234162233281E-01
   181  1.8000000000000E+00 -2.7181854092936E-01  7.4617408089490E-01
   182  1.8100000000000E+00 -2.6353528474018E-01  7.0976054057498E-01
   183  1.8200000000000E+00 -2.5450915497810E-01  6.7320703671378E-01
   184  1.8300000000000E+00 -2.4481220140554E-01  6.3662132234722E-01
   185  1.8400000000000E+00 -2.3451871803951E-01  6.0011245550596E-01
   186  1.8500000000000E+00 -2.2370488923478E-01  5.6379036972750E-01
   187  1.8600000000000E+00 -2.1244842367623E-01  5.2776542960435E-01
   188  1.8700000000000E+00 -2.0082817798332E-01  4.9214797329934E-01
   189  1.8800000000000E+00 -1.8892377169302E-01  4.5704784405537E-01
   190  1.8900000000000E+00 -1.7681519544194E-01  4.2257391281126E-01
   191  1.9000000000000E+00 -1.6458241421306E-01  3.8883359410869E-01
   192  1.9100000000000E+00 -1.5230496754655E-01  3.5593235753402E-01
   193  1.9200000000000E+00 -1.4006156863815E-01  3.2397323698524E-01
   194  1.9300000000000E+00 -1.2792970426262E-01  2.9305634008727E-01
   195  1.9400000000000E+00 -1.1598523746240E-01  2.6327836009772E-01
   196  1.9500000000000E+00 -1.0430201493458E-01  2.3473209265012E-01
   197  1.9600000000000E+00 -9.2951481029781E-02  2.0750595967145E-01
   198  1.9700000000000E+00 -8.2002299172975E-02  1.8168354013997E-01
   199  1.9800000000000E+00 -7.1519992522497E-02  1.5734313469891E-01
   200  1.9900000000000E+00 -6.1566570305653E-02  1.3455727587034E-01
   201  2.0000000000000E+00 -5.2200194450289E-02  1.1339233682125E-01
   202  2.0100000000000E+00 -4.3475264427782E-02  9.3909105010297E-02
   203  2.0200000000000E+00 -3.5442687512779E-02  7.6163764127973E-02
   204  2.0300000000000E+00 -2.8147459520535E-02  6.0202647706843E-02
   205  2.0400000000000E+00 -2.1629344221066E-02  4.6064717863201E-02
   206  2.0500000000000E+00 -1.5923083746628E-02  3.3782483565604E-02
   207  2.0600000000000E+00 -1.1058149576375E-02  2.3381586322592E-02
   208  2.0700000000000E+00 -7.0586149746784E-03  1.4880709574894E-02
   209  2.0800000000000E+00 -3.9445841157745E-03  8.2947041846636E-03
   210  2.0900000000000E+00 -1.7149511709516E-03  3.5986645947734E-03
   211  2.1000000000000E+00 -4.2786938734317E-04  8.9626247055030E-04
   212  2.1100000000000E+00  7.2117247773434E-06 -1.5063741099686E-05
   213  2.1200000000000E+00  1.2900121746198E-05 -2.6956738157150E-05
   214  2.13  0.  0.
   215  2.14  0.  0.
   216  2.15  0.  0.
   217  2.16  0.  0.
   218  2.17  0.  0.
   219  2.18  0.  0.
   220  2.19  0.  0.
   221  2.20  0.  0.
   222  2.21  0.  0.
   223  2.22  0.  0.
   224  2.23  0.  0.
   225  2.24  0.  0.
   226  2.25  0.  0.
   227  2.26  0.  0.
   228  2.27  0.  0.
   229  2.28  0.  0.
   230  2.29  0.  0.
   231  2.30  0.  0.
   232  2.31  0.  0.
   233  2.32  0.  0.
   234  2.33  0.  0.
   235  2.34  0.  0.
   236  2.35  0.  0.
   237  2.36  0.  0.
   238  2.37  0.  0.
   239  2.38  0.  0.
   240  2.39  0.  0.
   241  2.40  0.  0.
   242  2.41  0.  0.
   243  2.42  0.  0.
   244  2.43  0.  0.
   245  2.44  0.  0.
   246  2.45  0.  0.
   247  2.46  0.  0.
   248  2.47  0.  0.
   249  2.48  0.  0.
   250  2.49  0.  0.
   251  2.50  0.  0.
   252  2.51  0.  0.
   253  2.52  0.  0.
   254  2.53  0.  0.
   255  2.54  0.  0.
   256  2.55  0.  0.
   257  2.56  0.  0.
   258  2.57  0.  0.
   259  2.58  0.  0.
   260  2.59  0.  0.
   261  2.60  0.  0.
   262  2.61  0.  0.
   263  2.62  0.  0.
   264  2.63  0.  0.
   265  2.64  0.  0.
   266  2.65  0.  0.
   267  2.66  0.  0.
   268  2.67  0.  0.
   269  2.68  0.  0.
   270  2.69  0.  0.
   271  2.70  0.  0.
   272  2.71  0.  0.
   273  2.72  0.  0.
   274  2.73  0.  0.
   275  2.74  0.  0.
   276  2.75  0.  0.
   277  2.76  0.  0.
   278  2.77  0.  0.
   279  2.78  0.  0.
   280  2.79  0.  0.
   281  2.80  0.  0.
   282  2.81  0.  0.
   283  2.82  0.  0.
   284  2.83  0.  0.
   285  2.84  0.  0.
   286  2.85  0.  0.
   287  2.86  0.  0.
   288  2.87  0.  0.
   289  2.88  0.  0.
   290  2.89  0.  0.
   291  2.90  0.  0.
   292  2.91  0.  0.
   293  2.92  0.  0.
   294  2.93  0.  0.
   295  2.94  0.  0.
   296  2.95  0.  0.
   297  2.96  0.  0.
   298  2.97  0.  0.
   299  2.98  0.  0.
   300  2.99  0.  0.
   301  3.00  0.  0.
   302  3.01  0.  0.
   303  3.02  0.  0.
   304  3.03  0.  0.
   305  3.04  0.  0.
   306  3.05  0.  0.
   307  3.06  0.  0.
   308  3.07  0.  0.
   309  3.08  0.  0.
   310  3.09  0.  0.
   311  3.10  0.  0.
   312  3.11  0.  0.
   313  3.12  0.  0.
   314  3.13  0.  0.
   315  3.14  0.  0.
   316  3.15  0.  0.
   317  3.16  0.  0.
   318  3.17  0.  0.
   319  3.18  0.  0.
   320  3.19  0.  0.
   321  3.20  0.  0.
   322  3.21  0.  0.
   323  3.22  0.  0.
   324  3.23  0.  0.
   325  3.24  0.  0.
   326  3.25  0.  0.
   327  3.26  0.  0.
   328  3.27  0.  0.
   329  3.28  0.  0.
   330  3.29  0.  0.
   331  3.30  0.  0.
   332  3.31  0.  0.
   333  3.32  0.  0.
   334  3.33  0.  0.
   335  3.34  0.  0.
   336  3.35  0.  0.
   337  3.36  0.  0.
   338  3.37  0.  0.
   339  3.38  0.  0.
   340  3.39  0.  0.
   341  3.40  0.  0.
   342  3.41  0.  0.
   343  3.42  0.  0.
   344  3.43  0.  0.
   345  3.44  0.  0.
   346  3.45  0.  0.
   347  3.46  0.  0.
   348  3.47  0.  0.
   349  3.48  0.  0.
   350  3.49  0.  0.
   351  3.50  0.  0.
   352  3.51  0.  0.
   353  3.52  0.  0.
   354  3.53  0.  0.
   355  3.54  0.  0.
   356  3.55  0.  0.
   357  3.56  0.  0.
   358  3.57  0.  0.
   359  3.58  0.  0.
   360  3.59  0.  0.
   361  3.60  0.  0.
   362  3.61  0.  0.
   363  3.62  0.  0.
   364  3.63  0.  0.
   365  3.64  0.  0.
   366  3.65  0.  0.
   367  3.66  0.  0.
   368  3.67  0.  0.
   369  3.68  0.  0.
   370  3.69  0.  0.
   371  3.70  0.  0.
   372  3.71  0.  0.
   373  3.72  0.  0.
   374  3.73  0.  0.
   375  3.74  0.  0.
   376  3.75  0.  0.
   377  3.76  0.  0.
   378  3.77  0.  0.
   379  3.78  0.  0.
   380  3.79  0.  0.
   381  3.80  0.  0.
   382  3.81  0.  0.
   383  3.82  0.  0.
   384  3.83  0.  0.
   385  3.84  0.  0.
   386  3.85  0.  0.
   387  3.86  0.  0.
   388  3.87  0.  0.
   389  3.88  0.  0.
   390  3.89  0.  0.
   391  3.90  0.  0.
   392  3.91  0.  0.
   393  3.92  0.  0.
   394  3.93  0.  0.
   395  3.94  0.  0.
   396  3.95  0.  0.
   397  3.96  0.  0.
   398  3.97  0.  0.
   399  3.98  0.  0.
   400  3.99  0.  0.
   401  4.00  0.  0.
   402  4.01  0.  0.
   403  4.02  0.  0.
   404  4.03  0.  0.
   405  4.04  0.  0.
   406  4.05  0.  0.
   407  4.06  0.  0.
   408  4.07  0.  0.
   409  4.08  0.  0.
   410  4.09  0.  0.
   411  4.10  0.  0.
   412  4.11  0.  0.
   413  4.12  0.  0.
   414  4.13  0.  0.
   415  4.14  0.  0.
   416  4.15  0.  0.
   417  4.16  0.  0.
   418  4.17  0.  0.
   419  4.18  0.  0.
   420  4.19  0.  0.
   421  4.20  0.  0.
   422  4.21  0.  0.
   423  4.22  0.  0.
   424  4.23  0.  0.
   425  4.24  0.  0.
   426  4.25  0.  0.
   427  4.26  0.  0.
   428  4.27  0.  0.
   429  4.28  0.  0.
   430  4.29  0.  0.
   431  4.30  0.  0.
   432  4.31  0.  0.
   433  4.32  0.  0.
   434  4.33  0.  0.
   435  4.34  0.  0.
   436  4.35  0.  0.
   437  4.36  0.  0.
   438  4.37  0.  0.
   439  4.38  0.  0.
   440  4.39  0.  0.
   441  4.40  0.  0.
   442  4.41  0.  0.
   443  4.42  0.  0.
   444  4.43  0.  0.
   445  4.44  0.  0.
   446  4.45  0.  0.
   447  4.46  0.  0.
   448  4.47  0.  0.
   449  4.48  0.  0.
   450  4.49  0.  0.
   451  4.50  0.  0.
   452  4.51  0.  0.
   453  4.52  0.  0.
   454  4.53  0.  0.
   455  4.54  0.  0.
   456  4.55  0.  0.
   457  4.56  0.  0.
   458  4.57  0.  0.
   459  4.58  0.  0.
   460  4.59  0.  0.
   461  4.60  0.  0.
   462  4.61  0.  0.
   463  4.62  0.  0.
   464  4.63  0.  0.
   465  4.64  0.  0.
   466  4.65  0.  0.
   467  4.66  0.  0.
   468  4.67  0.  0.
   469  4.68  0.  0.
   470  4.69  0.  0.
   471  4.70  0.  0.
   472  4.71  0.  0.
   473  4.72  0.  0.
   474  4.73  0.  0.
   475  4.74  0.  0.
   476  4.75  0.  0.
   477  4.76  0.  0.
   478  4.77  0.  0.
   479  4.78  0.  0.
   480  4.79  0.  0.
   481  4.80  0.  0.
   482  4.81  0.  0.
   483  4.82  0.  0.
   484  4.83  0.  0.
   485  4.84  0.  0.
   486  4.85  0.  0.
   487  4.86  0.  0.
   488  4.87  0.  0.
   489  4.88  0.  0.
   490  4.89  0.  0.
   491  4.90  0.  0.
   492  4.91  0.  0.
   493  4.92  0.  0.
   494  4.93  0.  0.
   495  4.94  0.  0.
   496  4.95  0.  0.
   497  4.96  0.  0.
   498  4.97  0.  0.
   499  4.98  0.  0.
   500  4.99  0.  0.
   501  5.00  0.  0.
   502  5.01  0.  0.
   503  5.02  0.  0.
   504  5.03  0.  0.
   505  5.04  0.  0.
   506  5.05  0.  0.
   507  5.06  0.  0.
   508  5.07  0.  0.
   509  5.08  0.  0.
   510  5.09  0.  0.
   511  5.10  0.  0.
   512  5.11  0.  0.
   513  5.12  0.  0.
   514  5.13  0.  0.
   515  5.14  0.  0.
   516  5.15  0.  0.
   517  5.16  0.  0.
   518  5.17  0.  0.
   519  5.18  0.  0.
   520  5.19  0.  0.
   521  5.20  0.  0.
   522  5.21  0.  0.
   523  5.22  0.  0.
   524  5.23  0.  0.
   525  5.24  0.  0.
   526  5.25  0.  0.
   527  5.26  0.  0.
   528  5.27  0.  0.
   529  5.28  0.  0.
   530  5.29  0.  0.
   531  5.30  0.  0.
   532  5.31  0.  0.
   533  5.32  0.  0.
   534  5.33  0.  0.
   535  5.34  0.  0.
   536  5.35  0.  0.
   537  5.36  0.  0.
   538  5.37  0.  0.
   539  5.38  0.  0.
   540  5.39  0.  0.
   541  5.40  0.  0.
   542  5.41  0.  0.
   543  5.42  0.  0.
   544  5.43  0.  0.
   545  5.44  0.  0.
   546  5.45  0.  0.
   547  5.46  0.  0.
   548  5.47  0.  0.
   549  5.48  0.  0.
   550  5.49  0.  0.
   551  5.50  0.  0.
   552  5.51  0.  0.
   553  5.52  0.  0.
   554  5.53  0.  0.
   555  5.54  0.  0.
   556  5.55  0.  0.
   557  5.56  0.  0.
   558  5.57  0.  0.
   559  5.58  0.  0.
   560  5.59  0.  0.
   561  5.60  0.  0.
   562  5.61  0.  0.
   563  5.62  0.  0.
   564  5.63  0.  0.
   565  5.64  0.  0.
   566  5.65  0.  0.
   567  5.66  0.  0.
   568  5.67  0.  0.
   569  5.68  0.  0.
   570  5.69  0.  0.
   571  5.70  0.  0.
   572  5.71  0.  0.
   573  5.72  0.  0.
   574  5.73  0.  0.
   575  5.74  0.  0.
   576  5.75  0.  0.
   577  5.76  0.  0.
   578  5.77  0.  0.
   579  5.78  0.  0.
   580  5.79  0.  0.
   581  5.80  0.  0.
   582  5.81  0.  0.
   583  5.82  0.  0.
   584  5.83  0.  0.
   585  5.84  0.  0.
   586  5.85  0.  0.
   587  5.86  0.  0.
   588  5.87  0.  0.
   589  5.88  0.  0.
   590  5.89  0.  0.
   591  5.90  0.  0.
   592  5.91  0.  0.
   593  5.92  0.  0.
   594  5.93  0.  0.
   595  5.94  0.  0.
   596  5.95  0.  0.
   597  5.96  0.  0.
   598  5.97  0.  0.
   599  5.98  0.  0.
   600  5.99  0.  0.
   1                         3.7304277426533E+00  6.7186658975374E-01  4.2792520044814E-02
     1  0.0000000000000E+00  1.6592994339648E-11 -3.1344904102837E-11  2.6637280575725E-10
     2  1.0000000000000E-02  2.7373040865506E-04 -6.5843154845658E-05  7.3193890935897E-04
     3  2.0000000000000E-02  1.0943994317006E-03 -2.6307772620568E-04  2.9230982549061E-03
     4  3.0000000000000E-02  2.4604424165244E-03 -5.9082143576826E-04  6.5595322660857E-03
     5  4.0000000000000E-02  4.3692581206813E-03 -1.0476118073517E-03  1.1618085776912E-02
     6  5.0000000000000E-02  6.8172184497339E-03 -1.6314180911002E-03  1.8066525419218E-02
     7  6.0000000000000E-02  9.7996820303316E-03 -2.3396578430753E-03  2.5863722327367E-02
     8  7.0000000000000E-02  1.3311011558912E-02 -3.1692180467309E-03  3.4959885394231E-02
     9  8.0000000000000E-02  1.7344594849815E-02 -4.1164806314123E-03  4.5296843851825E-02
    10  9.0000000000000E-02  2.1892869490320E-02 -5.1773522125155E-03  5.6808377689738E-02
    11  1.0000000000000E-01  2.6947350994179E-02 -6.3472978483908E-03  6.9420594171419E-02
    12  1.1000000000000E-01  3.2498664329812E-02 -7.6213785807115E-03  8.3052348463512E-02
    13  1.2000000000000E-01  3.8536578684363E-02 -8.9942924979557E-03  9.7615706158797E-02
    14  1.3000000000000E-01  4.5050045310468E-02 -1.0460419036079E-02  1.1301644524902E-01
    15  1.4000000000000E-01  5.2027238288866E-02 -1.2013866206485E-02  1.2915459489175E-01
    16  1.5000000000000E-01  5.9455598026992E-02 -1.3648520419215E-02  1.4592500811638E-01
    17  1.6000000000000E-01  6.7321877301391E-02 -1.5358098548995E-02  1.6321796542937E-01
    18  1.7000000000000E-01  7.5612189640376E-02 -1.7136201873478E-02  1.8091980610853E-01
    19  1.8000000000000E-01  8.4312059832752E-02 -1.8976371496946E-02  1.9891358382209E-01
    20  1.9000000000000E-01  9.3406476338730E-02 -2.0872144858782E-02  2.1707974307062E-01
    21  2.0000000000000E-01  1.0287994537044E-01 -2.2817112914512E-02  2.3529681282973E-01
    22  2.1000000000000E-01  1.1271654640170E-01 -2.4804977568062E-02  2.5344211366915E-01
    23  2.2000000000000E-01  1.2289998886000E-01 -2.6829608927229E-02  2.7139247454042E-01
    24  2.3000000000000E-01  1.3341366974793E-01 -2.8885101950213E-02  2.8902495536081E-01
    25  2.4000000000000E-01  1.4424073193690E-01 -3.0965832049590E-02  3.0621757147619E-01
    26  2.5000000000000E-01  1.5536412287227E-01 -3.3066509221116E-02  3.2285001606032E-01
    27  2.6000000000000E-01  1.6676665342695E-01 -3.5182230268529E-02  3.3880437650294E-01
    28  2.7000000000000E-01  1.7843105663918E-01 -3.7308528701832E-02  3.5396584085393E-01
    29  2.8000000000000E-01  1.9034004607039E-01 -3.9441421895514E-02  3.6822339042600E-01
    30  2.9000000000000E-01  2.0247637351979E-01 -4.1577455104781E-02  3.8147047471365E-01
    31  3.0000000000000E-01  2.1482288583528E-01 -4.3713741951966E-02  3.9360566486126E-01
    32  3.1000000000000E-01  2.2736258056312E-01 -4.5848001011969E-02  4.0453328200799E-01
    33  3.2000000000000E-01  2.4007866018390E-01 -4.7978588144679E-02  4.1416399695145E-01
    34  3.3000000000000E-01  2.5295458468788E-01 -5.0104524243790E-02  4.2241539770512E-01
    35  3.4000000000000E-01  2.6597412224988E-01 -5.2225518095179E-02  4.2921252167587E-01
    36  3.5000000000000E-01  2.7912139777162E-01 -5.4341984063936E-02  4.3448834935690E-01
    37  3.6000000000000E-01  2.9238093906890E-01 -5.6455054357093E-02  4.3818425661771E-01
    38  3.7000000000000E-01  3.0573772049084E-01 -5.8566585639034E-02  4.4025042287467E-01
    39  3.8000000000000E-01  3.1917720376958E-01 -6.0679159808181E-02  4.4064619264327E-01
    40  3.9000000000000E-01  3.3268537591117E-01 -6.2796078776967E-02  4.3934038820484E-01
    41  4.0000000000000E-01  3.4624878395106E-01 -6.4921353131753E-02  4.3631157136565E-01
    42  4.1000000000000E-01  3.5985456641195E-01 -6.7059684585566E-02  4.3154825254281E-01
    43  4.2000000000000E-01  3.7349048131596E-01 -6.9216442173574E-02  4.2504904567988E-01
    44  4.3000000000000E-01  3.8714493061900E-01 -7.1397632179451E-02  4.1682276777224E-01
    45  4.4000000000000E-01  4.0080698095126E-01 -7.3609861819526E-02  4.0688848206803E-01
    46  4.5000000000000E-01  4.1446638056429E-01 -7.5860296751006E-02  3.9527548430344E-01
    47  4.6000000000000E-01  4.2811357240299E-01 -7.8156612510227E-02  3.8202323162915E-01
    48  4.7000000000000E-01  4.4173970323826E-01 -8.0506940026613E-02  3.6718121418680E-01
    49  4.8000000000000E-01  4.5533662881453E-01 -8.2919805397700E-02  3.5080876959956E-01
    50  4.9000000000000E-01  4.6889691498500E-01 -8.5404064149853E-02  3.3297484094612E-01
    51  5.0000000000000E-01  4.8241383482621E-01 -8.7968830248012E-02  3.1375767909282E-01
    52  5.1000000000000E-01  4.9588136174265E-01 -9.0623400155802E-02  2.9324449056190E-01
    53  5.2000000000000E-01  5.0929415859128E-01 -9.3377172284194E-02  2.7153103241283E-01
    54  5.3000000000000E-01  5.2264756287485E-01 -9.6239562202673E-02  2.4872115590834E-01
    55  5.4000000000000E-01  5.3593756807211E-01 -9.9219914021069E-02  2.2492630102364E-01
    56  5.5000000000000E-01  5.4916080119183E-01 -1.0232740838285E-01  2.0026494413681E-01
    57  5.6000000000000E-01  5.6231449665611E-01 -1.0557096754136E-01  1.7486200150720E-01
    58  5.7000000000000E-01  5.7539646663699E-01 -1.0895915801920E-01  1.4884819140677E-01
    59  5.8000000000000E-01  5.8840506798789E-01 -1.1250009137727E-01  1.2235935801416E-01
    60  5.9000000000000E-01  6.0133916592916E-01 -1.1620132364410E-01  9.5535760412774E-02
    61  6.0000000000000E-01  6.1419809466351E-01 -1.2006975397724E-01  6.8521330248934E-02
    62  6.1000000000000E-01  6.2698161511328E-01 -1.2411152314728E-01  4.1462901805490E-02
    63  6.2000000000000E-01  6.3968986998689E-01 -1.2833191245055E-01  1.4509418426981E-02
    64  6.3000000000000E-01  6.5232333639626E-01 -1.3273524366907E-01 -1.2188880606036E-02
    65  6.4000000000000E-01  6.6488277626054E-01 -1.3732478070604E-01 -3.8481288513893E-02
    66  6.5000000000000E-01  6.7736918474429E-01 -1.4210263353074E-01 -6.4217470405900E-02
    67  6.6000000000000E-01  6.8978373698953E-01 -1.4706966506990E-01 -8.9248309160662E-02
    68  6.7000000000000E-01  7.0212773341185E-01 -1.5222540168145E-01 -1.1342675326360E-01
    69  6.8000000000000E-01  7.1440254383983E-01 -1.5756794784255E-01 -1.3660866201361E-01
    70  6.9000000000000E-01  7.2660955078520E-01 -1.6309390567576E-01 -1.5865364348175E-01