Tl    ONCVPSP-4.0.1  r_core=   2.10952   2.60084   2.01094
     81.0000     13.0000      231019    zatom,zion,pspd
     8       2   2     4   600     0    pspcod,pspxc,lmax,lloc,mmax,r2well
  5.99000000  7.00000000  0.00000000    rchrg fchrg qchrg
     2     2     2     0     0    nproj
     1     1           extension_switch
   0                         6.0875794064267E+00  8.6612935908911E-01
     1  0.0000000000000E+00  7.7961803679472E-12 -3.8445663319564E-11
     2  1.0000000000000E-02  1.4732837151602E-02  8.6339135662942E-03
     3  2.0000000000000E-02  2.9468173789012E-02  1.7199526116805E-02
     4  3.0000000000000E-02  4.4208485312962E-02  2.5628884519786E-02
     5  4.0000000000000E-02  5.8956199159732E-02  3.3854729637849E-02
     6  5.0000000000000E-02  7.3713671331165E-02  4.1810838900608E-02
     7  6.0000000000000E-02  8.8483163533819E-02  4.9432363595117E-02
     8  7.0000000000000E-02  1.0326682112110E-01  5.6656159158605E-02
     9  8.0000000000000E-02  1.1806665202441E-01  6.3421106796482E-02
    10  9.0000000000000E-02  1.3288450684973E-01  6.9668424796153E-02
    11  1.0000000000000E-01  1.4772206030474E-01  7.5341967963827E-02
    12  1.1000000000000E-01  1.6258079410844E-01  8.0388513676600E-02
    13  1.2000000000000E-01  1.7746198152088E-01  8.4758033115457E-02
    14  1.3000000000000E-01  1.9236667361447E-01  8.8403946326107E-02
    15  1.4000000000000E-01  2.0729568739114E-01  9.1283359842921E-02
    16  1.5000000000000E-01  2.2224959583131E-01  9.3357285706741E-02
    17  1.6000000000000E-01  2.3722871994124E-01  9.4590840808806E-02
    18  1.7000000000000E-01  2.5223312284505E-01  9.4953425600436E-02
    19  1.8000000000000E-01  2.6726260594714E-01  9.4418881320455E-02
    20  1.9000000000000E-01  2.8231670716935E-01  9.2965625009084E-02
    21  2.0000000000000E-01  2.9739470124549E-01  9.0576761697831E-02
    22  2.1000000000000E-01  3.1249560203488E-01  8.7240173288193E-02
    23  2.2000000000000E-01  3.2761816679423E-01  8.2948583758313E-02
    24  2.3000000000000E-01  3.4276090232689E-01  7.7699600464144E-02
    25  2.4000000000000E-01  3.5792207290707E-01  7.1495731430324E-02
    26  2.5000000000000E-01  3.7309970985729E-01  6.4344378654568E-02
    27  2.6000000000000E-01  3.8829162263783E-01  5.6257807577569E-02
    28  2.7000000000000E-01  4.0349541128915E-01  4.7253092997137E-02
    29  2.8000000000000E-01  4.1870848005137E-01  3.7352041830170E-02
    30  2.9000000000000E-01  4.3392805196964E-01  2.6581093247924E-02
    31  3.0000000000000E-01  4.4915118428027E-01  1.4971196828788E-02
    32  3.1000000000000E-01  4.6437478436073E-01  2.5576694870757E-03
    33  3.2000000000000E-01  4.7959562601595E-01 -1.0619967953932E-02
    34  3.3000000000000E-01  4.9481036586556E-01 -2.4518173572177E-02
    35  3.4000000000000E-01  5.1001555959028E-01 -3.9089585469407E-02
    36  3.5000000000000E-01  5.2520767779176E-01 -5.4283240043822E-02
    37  3.6000000000000E-01  5.4038312121847E-01 -7.0044806165365E-02
    38  3.7000000000000E-01  5.5553823511082E-01 -8.6316833929553E-02
    39  3.8000000000000E-01  5.7066932242173E-01 -1.0303901659628E-01
    40  3.9000000000000E-01  5.8577265567398E-01 -1.2014846425924E-01
    41  4.0000000000000E-01  6.0084448722372E-01 -1.3757998773965E-01
    42  4.1000000000000E-01  6.1588105770946E-01 -1.5526639115452E-01
    43  4.2000000000000E-01  6.3087860247828E-01 -1.7313877157578E-01
    44  4.3000000000000E-01  6.4583335579591E-01 -1.9112682417211E-01
    45  4.4000000000000E-01  6.6074155266424E-01 -2.0915915120964E-01
    46  4.5000000000000E-01  6.7559942808887E-01 -2.2716357328240E-01
    47  4.6000000000000E-01  6.9040321366058E-01 -2.4506744114711E-01
    48  4.7000000000000E-01  7.0514913133757E-01 -2.6279794654995E-01
    49  4.8000000000000E-01  7.1983338434018E-01 -2.8028243045565E-01
    50  4.9000000000000E-01  7.3445214509600E-01 -2.9744868712108E-01
    51  5.0000000000000E-01  7.4900154020148E-01 -3.1422526249603E-01
    52  5.1000000000000E-01  7.6347763239469E-01 -3.3054174548310E-01
    53  5.2000000000000E-01  7.7787639956439E-01 -3.4632905064625E-01
    54  5.3000000000000E-01  7.9219371085112E-01 -3.6151969102330E-01
    55  5.4000000000000E-01  8.0642529992753E-01 -3.7604803977002E-01
    56  5.5000000000000E-01  8.2056673557707E-01 -3.8985057944403E-01
    57  5.6000000000000E-01  8.3461338972180E-01 -4.0286613782272E-01
    58  5.7000000000000E-01  8.4856040308183E-01 -4.1503610924169E-01
    59  5.8000000000000E-01  8.6240264868042E-01 -4.2630466053815E-01
    60  5.9000000000000E-01  8.7613469343878E-01 -4.3661892078515E-01
    61  6.0000000000000E-01  8.8975075813488E-01 -4.4592915410984E-01
    62  6.1000000000000E-01  9.0324467602866E-01 -4.5418891499710E-01
    63  6.2000000000000E-01  9.1660985048297E-01 -4.6135518559334E-01
    64  6.3000000000000E-01  9.2983921193508E-01 -4.6738849463799E-01
    65  6.4000000000000E-01  9.4292517459665E-01 -4.7225301776616E-01
    66  6.5000000000000E-01  9.5585959328139E-01 -4.7591665904086E-01
    67  6.6000000000000E-01  9.6863372077807E-01 -4.7835111368868E-01
    68  6.7000000000000E-01  9.8123816620280E-01 -4.7953191212636E-01
    69  6.8000000000000E-01  9.9366285477778E-01 -4.7943844547834E-01
    70  6.9000000000000E-01  1.0058969894935E+00 -4.7805397289463E-01
    71  7.0000000000000E-01  1.0179290151189E+00 -4.7536561108495E-01
    72  7.1000000000000E-01  1.0297465850275E+00 -4.7136430658752E-01
    73  7.2000000000000E-01  1.0413365313079E+00 -4.6604479138834E-01
    74  7.3000000000000E-01  1.0526848386224E+00 -4.5940552260028E-01
    75  7.4000000000000E-01  1.0637766222736E+00 -4.5144860699737E-01
    76  7.5000000000000E-01  1.0745961109247E+00 -4.4217971128045E-01
    77  7.6000000000000E-01  1.0851266344068E+00 -4.3160795902450E-01
    78  7.7000000000000E-01  1.0953506170284E+00 -4.1974581532349E-01
    79  7.8000000000000E-01  1.1052495767789E+00 -4.0660896020814E-01
    80  7.9000000000000E-01  1.1148041307954E+00 -3.9221615196175E-01
    81  8.0000000000000E-01  1.1239940074289E+00 -3.7658908150251E-01
    82  8.1000000000000E-01  1.1327980652176E+00 -3.5975221903307E-01
    83  8.2000000000000E-01  1.1411943190359E+00 -3.4173265418425E-01
    84  8.3000000000000E-01  1.1491599736504E+00 -3.2255993089460E-01
    85  8.4000000000000E-01  1.1566714648716E+00 -3.0226587827510E-01
    86  8.5000000000000E-01  1.1637045084450E+00 -2.8088443870604E-01
    87  8.6000000000000E-01  1.1702341567771E+00 -2.5845149440168E-01
    88  8.7000000000000E-01  1.1762348635437E+00 -2.3500469365926E-01
    89  8.8000000000000E-01  1.1816805561747E+00 -2.1058327797944E-01
    90  8.9000000000000E-01  1.1865447161564E+00 -1.8522791120954E-01
    91  9.0000000000000E-01  1.1908004670369E+00 -1.5898051181462E-01
    92  9.1000000000000E-01  1.1944206699655E+00 -1.3188408933031E-01
    93  9.2000000000000E-01  1.1973780265390E+00 -1.0398258598976E-01
    94  9.3000000000000E-01  1.1996451886701E+00 -7.5320724451481E-02
    95  9.4000000000000E-01  1.2011948751387E+00 -4.5943862480750E-02
    96  9.5000000000000E-01  1.2019999944273E+00 -1.5897855358860E-02
    97  9.6000000000000E-01  1.2020337733869E+00  1.4771073289913E-02
    98  9.7000000000000E-01  1.2012698912264E+00  4.6016451652641E-02
    99  9.8000000000000E-01  1.1996826182628E+00  7.7791670354454E-02
   100  9.9000000000000E-01  1.1972469588217E+00  1.1005008314494E-01
   101  1.0000000000000E+00  1.1939387976256E+00  1.4274509732951E-01
   102  1.0100000000000E+00  1.1897350489644E+00  1.7583025373088E-01
   103  1.0200000000000E+00  1.1846138078980E+00  2.0925929606675E-01
   104  1.0300000000000E+00  1.1785545027027E+00  2.4298622973055E-01
   105  1.0400000000000E+00  1.1715380477372E+00  2.7696537006302E-01
   106  1.0500000000000E+00  1.1635469958731E+00  3.1115138030067E-01
   107  1.0600000000000E+00  1.1545656896079E+00  3.4549929948504E-01
   108  1.0700000000000E+00  1.1445804099578E+00  3.7996456070982E-01
   109  1.0800000000000E+00  1.1335795222087E+00  4.1450300017414E-01
   110  1.0900000000000E+00  1.1215536175943E+00  4.4907085759601E-01
   111  1.1000000000000E+00  1.1084956499635E+00  4.8362476862139E-01
   112  1.1100000000000E+00  1.0944010664988E+00  5.1812174993984E-01
   113  1.1200000000000E+00  1.0792679315531E+00  5.5251917788719E-01
   114  1.1300000000000E+00  1.0630970426838E+00  5.8677476137816E-01
   115  1.1400000000000E+00  1.0458920379805E+00  6.2084651006726E-01
   116  1.1500000000000E+00  1.0276594938058E+00  6.5469269868433E-01
   117  1.1600000000000E+00  1.0084090120987E+00  6.8827182852938E-01
   118  1.1700000000000E+00  9.8815329642421E-01  7.2154258714403E-01
   119  1.1800000000000E+00  9.6690821599665E-01  7.5446380719753E-01
   120  1.1900000000000E+00  9.4469285694781E-01  7.8699442563953E-01
   121  1.2000000000000E+00  9.2152956016651E-01  8.1909344417550E-01
   122  1.2100000000000E+00  8.9744394509283E-01  8.5071989211532E-01
   123  1.2200000000000E+00  8.7246491891362E-01  8.8183279263197E-01
   124  1.2300000000000E+00  8.4662467067433E-01  9.1239113344218E-01
   125  1.2400000000000E+00  8.1995864989401E-01  9.4235384289039E-01
   126  1.2500000000000E+00  7.9250552934813E-01  9.7167977237304E-01
   127  1.2600000000000E+00  7.6430715176338E-01  1.0003276859928E+00
   128  1.2700000000000E+00  7.3540846025350E-01  1.0282562582715E+00
   129  1.2800000000000E+00  7.0585741241136E-01  1.0554240806857E+00
   130  1.2900000000000E+00  6.7570487806250E-01  1.0817896777140E+00
   131  1.3000000000000E+00  6.4500452077618E-01  1.1073115330044E+00
   132  1.3100000000000E+00  6.1381266332326E-01  1.1319481261829E+00
   133  1.3200000000000E+00  5.8218813736374E-01  1.1556579807312E+00
   134  1.3300000000000E+00  5.5019211774060E-01  1.1783997232639E+00
   135  1.3400000000000E+00  5.1788794185119E-01  1.2001321544306E+00
   136  1.3500000000000E+00  4.8534091465986E-01  1.2208143315658E+00
   137  1.3600000000000E+00  4.5261810000751E-01  1.2404056630951E+00
   138  1.3700000000000E+00  4.1978809896381E-01  1.2588660146014E+00
   139  1.3800000000000E+00  3.8692081605464E-01  1.2761558263344E+00
   140  1.3900000000000E+00  3.5408721428224E-01  1.2922362418410E+00
   141  1.4000000000000E+00  3.2135905993542E-01  1.3070692472767E+00
   142  1.4100000000000E+00  2.8880865826400E-01  1.3206178208487E+00
   143  1.4200000000000E+00  2.5650858116351E-01  1.3328460917318E+00
   144  1.4300000000000E+00  2.2453138808203E-01  1.3437195076935E+00
   145  1.4400000000000E+00  1.9294934142246E-01  1.3532050105586E+00
   146  1.4500000000000E+00  1.6183411776765E-01  1.3612712185513E+00
   147  1.4600000000000E+00  1.3125651630385E-01  1.3678886144561E+00
   148  1.4700000000000E+00  1.0128616585918E-01  1.3730297384556E+00
   149  1.4800000000000E+00  7.1991232007259E-02  1.3766693844222E+00
   150  1.4900000000000E+00  4.3438125712057E-02  1.3787847983720E+00
   151  1.5000000000000E+00  1.5691215008412E-02  1.3793558777226E+00
   152  1.5100000000000E+00 -1.1187458777548E-02  1.3783653699464E+00
   153  1.5200000000000E+00 -3.7138458762550E-02  1.3757990691606E+00
   154  1.5300000000000E+00 -6.2105222695439E-02  1.3716460091657E+00
   155  1.5400000000000E+00 -8.6034324118323E-02  1.3658986514141E+00
   156  1.5500000000000E+00 -1.0887572303961E-01  1.3585530663795E+00
   157  1.5600000000000E+00 -1.3058300469190E-01  1.3496091067919E+00
   158  1.5700000000000E+00 -1.5111360498825E-01  1.3390705712095E+00
   159  1.5800000000000E+00 -1.7042902133984E-01  1.3269453564199E+00
   160  1.5900000000000E+00 -1.8849500755520E-01  1.3132455971876E+00
   161  1.6000000000000E+00 -2.0528175160666E-01  1.2979877919083E+00
   162  1.6100000000000E+00 -2.2076403512266E-01  1.2811929127792E+00
   163  1.6200000000000E+00 -2.3492137354433E-01  1.2628864991562E+00
   164  1.6300000000000E+00 -2.4773813597249E-01  1.2430987328412E+00
   165  1.6400000000000E+00 -2.5920364382433E-01  1.2218644941224E+00
   166  1.6500000000000E+00 -2.6931224751888E-01  1.1992233974829E+00
   167  1.6600000000000E+00 -2.7806338051533E-01  1.1752198059931E+00
   168  1.6700000000000E+00 -2.8546159013848E-01  1.1499028235069E+00
   169  1.6800000000000E+00 -2.9151654473976E-01  1.1233262639036E+00
   170  1.6900000000000E+00 -2.9624301686048E-01  1.0955485967345E+00
   171  1.7000000000000E+00 -2.9966084218527E-01  1.0666328687653E+00
   172  1.7100000000000E+00 -3.0179485419704E-01  1.0366466010395E+00
   173  1.7200000000000E+00 -3.0267479457021E-01  1.0056616612267E+00
   174  1.7300000000000E+00 -3.0233519946553E-01  9.7375411116250E-01
   175  1.7400000000000E+00 -3.0081526201589E-01  9.4100402963199E-01
   176  1.7500000000000E+00 -2.9815867141912E-01  9.0749531059685E-01
   177  1.7600000000000E+00 -2.9441342917869E-01  8.7331543721353E-01
   178  1.7700000000000E+00 -2.8963164315613E-01  8.3855523213821E-01
   179  1.7800000000000E+00 -2.8386930021942E-01  8.0330858476079E-01
   180  1.7900000000000E+00 -2.7718601838917E-01  7.6767215615574E-01
   181  1.8000000000000E+00 -2.6964477949665E-01  7.3174506267800E-01
   182  1.8100000000000E+00 -2.6131164347681E-01  6.9562853927071E-01
   183  1.8200000000000E+00 -2.5225544552204E-01  6.5942558368372E-01
   184  1.8300000000000E+00 -2.4254747741931E-01  6.2324058292823E-01
   185  1.8400000000000E+00 -2.3226115448395E-01  5.8717892341328E-01
   186  1.8500000000000E+00 -2.2147166958639E-01  5.5134658632148E-01
   187  1.8600000000000E+00 -2.1025563584361E-01  5.1584972988567E-01
   188  1.8700000000000E+00 -1.9869071961492E-01  4.8079426032255E-01
   189  1.8800000000000E+00 -1.8685526550002E-01  4.4628539326445E-01
   190  1.8900000000000E+00 -1.7482791508741E-01  4.1242720760433E-01
   191  1.9000000000000E+00 -1.6268722124225E-01  3.7932219373354E-01
   192  1.9100000000000E+00 -1.5051125975339E-01  3.4707079820305E-01
   193  1.9200000000000E+00 -1.3837724018102E-01  3.1577096687972E-01
   194  1.9300000000000E+00 -1.2636111775804E-01  2.8551768869688E-01
   195  1.9400000000000E+00 -1.1453720819933E-01  2.5640254211479E-01
   196  1.9500000000000E+00 -1.0297780726544E-01  2.2851324640949E-01
   197  1.9600000000000E+00 -9.1752816907469E-02  2.0193321989883E-01
   198  1.9700000000000E+00 -8.0929378698800E-02  1.7674114451972E-01
   199  1.9800000000000E+00 -7.0571526455798E-02  1.5301056379459E-01
   200  1.9900000000000E+00 -6.0739823737535E-02  1.3080942476536E-01
   201  2.0000000000000E+00 -5.1491041998735E-02  1.1019971833864E-01
   202  2.0100000000000E+00 -4.2878262483650E-02  9.1238091986010E-02
   203  2.0200000000000E+00 -3.4951164050908E-02  7.3976870628227E-02
   204  2.0300000000000E+00 -2.7753576052604E-02  5.8458779734694E-02
   205  2.0400000000000E+00 -2.1324186926048E-02  4.4719478361996E-02
   206  2.0500000000000E+00 -1.5696770878062E-02  3.2788511608078E-02
   207  2.0600000000000E+00 -1.0899944198956E-02  2.2688913164230E-02
   208  2.0700000000000E+00 -6.9570446335282E-03  1.4437132930924E-02
   209  2.0800000000000E+00 -3.8875436438922E-03  8.0460795186047E-03
   210  2.0900000000000E+00 -1.6900605822323E-03  3.4902987139763E-03
   211  2.1000000000000E+00 -4.2166153278593E-04  8.6920560175405E-04
   212  2.1100000000000E+00  7.0741228028313E-06 -1.4536665343162E-05
   213  2.1200000000000E+00  1.2705978077871E-05 -2.6124991036874E-05
   214  2.13 -0.  0.
   215  2.14  0. -0.
   216  2.15  0. -0.
   217  2.16  0. -0.
   218  2.17  0.  0.
   219  2.18  0.  0.
   220  2.19  0.  0.
   221  2.20  0.  0.
   222  2.21  0.  0.
   223  2.22  0.  0.
   224  2.23  0.  0.
   225  2.24  0.  0.
   226  2.25  0.  0.
   227  2.26  0.  0.
   228  2.27  0.  0.
   229  2.28  0.  0.
   230  2.29  0.  0.
   231  2.30  0.  0.
   232  2.31  0.  0.
   233  2.32  0.  0.
   234  2.33  0.  0.
   235  2.34  0.  0.
   236  2.35  0.  0.
   237  2.36  0.  0.
   238  2.37  0.  0.
   239  2.38  0.  0.
   240  2.39  0.  0.
   241  2.40  0.  0.
   242  2.41  0.  0.
   243  2.42  0.  0.
   244  2.43  0.  0.
   245  2.44  0.  0.
   246  2.45  0.  0.
   247  2.46  0.  0.
   248  2.47  0.  0.
   249  2.48  0.  0.
   250  2.49  0.  0.
   251  2.50  0.  0.
   252  2.51  0.  0.
   253  2.52  0.  0.
   254  2.53  0.  0.
   255  2.54  0.  0.
   256  2.55  0.  0.
   257  2.56  0.  0.
   258  2.57  0.  0.
   259  2.58  0.  0.
   260  2.59  0.  0.
   261  2.60  0.  0.
   262  2.61  0.  0.
   263  2.62  0.  0.
   264  2.63  0.  0.
   265  2.64  0.  0.
   266  2.65  0.  0.
   267  2.66  0.  0.
   268  2.67  0.  0.
   269  2.68  0.  0.
   270  2.69  0.  0.
   271  2.70  0.  0.
   272  2.71  0.  0.
   273  2.72  0.  0.
   274  2.73  0.  0.
   275  2.74  0.  0.
   276  2.75  0.  0.
   277  2.76  0.  0.
   278  2.77  0.  0.
   279  2.78  0.  0.
   280  2.79  0.  0.
   281  2.80  0.  0.
   282  2.81  0.  0.
   283  2.82  0.  0.
   284  2.83  0.  0.
   285  2.84  0.  0.
   286  2.85  0.  0.
   287  2.86  0.  0.
   288  2.87  0.  0.
   289  2.88  0.  0.
   290  2.89  0.  0.
   291  2.90  0.  0.
   292  2.91  0.  0.
   293  2.92  0.  0.
   294  2.93  0.  0.
   295  2.94  0.  0.
   296  2.95  0.  0.
   297  2.96  0.  0.
   298  2.97  0.  0.
   299  2.98  0.  0.
   300  2.99  0.  0.
   301  3.00  0.  0.
   302  3.01  0.  0.
   303  3.02  0.  0.
   304  3.03  0.  0.
   305  3.04  0.  0.
   306  3.05  0.  0.
   307  3.06  0.  0.
   308  3.07  0.  0.
   309  3.08  0.  0.
   310  3.09  0.  0.
   311  3.10  0.  0.
   312  3.11  0.  0.
   313  3.12  0.  0.
   314  3.13  0.  0.
   315  3.14  0.  0.
   316  3.15  0.  0.
   317  3.16  0.  0.
   318  3.17  0.  0.
   319  3.18  0.  0.
   320  3.19  0.  0.
   321  3.20  0.  0.
   322  3.21  0.  0.
   323  3.22  0.  0.
   324  3.23  0.  0.
   325  3.24  0.  0.
   326  3.25  0.  0.
   327  3.26  0.  0.
   328  3.27  0.  0.
   329  3.28  0.  0.
   330  3.29  0.  0.
   331  3.30  0.  0.
   332  3.31  0.  0.
   333  3.32  0.  0.
   334  3.33  0.  0.
   335  3.34  0.  0.
   336  3.35  0.  0.
   337  3.36  0.  0.
   338  3.37  0.  0.
   339  3.38  0.  0.
   340  3.39  0.  0.
   341  3.40  0.  0.
   342  3.41  0.  0.
   343  3.42  0.  0.
   344  3.43  0.  0.
   345  3.44  0.  0.
   346  3.45  0.  0.
   347  3.46  0.  0.
   348  3.47  0.  0.
   349  3.48  0.  0.
   350  3.49  0.  0.
   351  3.50  0.  0.
   352  3.51  0.  0.
   353  3.52  0.  0.
   354  3.53  0.  0.
   355  3.54  0.  0.
   356  3.55  0.  0.
   357  3.56  0.  0.
   358  3.57  0.  0.
   359  3.58  0.  0.
   360  3.59  0.  0.
   361  3.60  0.  0.
   362  3.61  0.  0.
   363  3.62  0.  0.
   364  3.63  0.  0.
   365  3.64  0.  0.
   366  3.65  0.  0.
   367  3.66  0.  0.
   368  3.67  0.  0.
   369  3.68  0.  0.
   370  3.69  0.  0.
   371  3.70  0.  0.
   372  3.71  0.  0.
   373  3.72  0.  0.
   374  3.73  0.  0.
   375  3.74  0.  0.
   376  3.75  0.  0.
   377  3.76  0.  0.
   378  3.77  0.  0.
   379  3.78  0.  0.
   380  3.79  0.  0.
   381  3.80  0.  0.
   382  3.81  0.  0.
   383  3.82  0.  0.
   384  3.83  0.  0.
   385  3.84  0.  0.
   386  3.85  0.  0.
   387  3.86  0.  0.
   388  3.87  0.  0.
   389  3.88  0.  0.
   390  3.89  0.  0.
   391  3.90  0.  0.
   392  3.91  0.  0.
   393  3.92  0.  0.
   394  3.93  0.  0.
   395  3.94  0.  0.
   396  3.95  0.  0.
   397  3.96  0.  0.
   398  3.97  0.  0.
   399  3.98  0.  0.
   400  3.99  0.  0.
   401  4.00  0.  0.
   402  4.01  0.  0.
   403  4.02  0.  0.
   404  4.03  0.  0.
   405  4.04  0.  0.
   406  4.05  0.  0.
   407  4.06  0.  0.
   408  4.07  0.  0.
   409  4.08  0.  0.
   410  4.09  0.  0.
   411  4.10  0.  0.
   412  4.11  0.  0.
   413  4.12  0.  0.
   414  4.13  0.  0.
   415  4.14  0.  0.
   416  4.15  0.  0.
   417  4.16  0.  0.
   418  4.17  0.  0.
   419  4.18  0.  0.
   420  4.19  0.  0.
   421  4.20  0.  0.
   422  4.21  0.  0.
   423  4.22  0.  0.
   424  4.23  0.  0.
   425  4.24  0.  0.
   426  4.25  0.  0.
   427  4.26  0.  0.
   428  4.27  0.  0.
   429  4.28  0.  0.
   430  4.29  0.  0.
   431  4.30  0.  0.
   432  4.31  0.  0.
   433  4.32  0.  0.
   434  4.33  0.  0.
   435  4.34  0.  0.
   436  4.35  0.  0.
   437  4.36  0.  0.
   438  4.37  0.  0.
   439  4.38  0.  0.
   440  4.39  0.  0.
   441  4.40  0.  0.
   442  4.41  0.  0.
   443  4.42  0.  0.
   444  4.43  0.  0.
   445  4.44  0.  0.
   446  4.45  0.  0.
   447  4.46  0.  0.
   448  4.47  0.  0.
   449  4.48  0.  0.
   450  4.49  0.  0.
   451  4.50  0.  0.
   452  4.51  0.  0.
   453  4.52  0.  0.
   454  4.53  0.  0.
   455  4.54  0.  0.
   456  4.55  0.  0.
   457  4.56  0.  0.
   458  4.57  0.  0.
   459  4.58  0.  0.
   460  4.59  0.  0.
   461  4.60  0.  0.
   462  4.61  0.  0.
   463  4.62  0.  0.
   464  4.63  0.  0.
   465  4.64  0.  0.
   466  4.65  0.  0.
   467  4.66  0.  0.
   468  4.67  0.  0.
   469  4.68  0.  0.
   470  4.69  0.  0.
   471  4.70  0.  0.
   472  4.71  0.  0.
   473  4.72  0.  0.
   474  4.73  0.  0.
   475  4.74  0.  0.
   476  4.75  0.  0.
   477  4.76  0.  0.
   478  4.77  0.  0.
   479  4.78  0.  0.
   480  4.79  0.  0.
   481  4.80  0.  0.
   482  4.81  0.  0.
   483  4.82  0.  0.
   484  4.83  0.  0.
   485  4.84  0.  0.
   486  4.85  0.  0.
   487  4.86  0.  0.
   488  4.87  0.  0.
   489  4.88  0.  0.
   490  4.89  0.  0.
   491  4.90  0.  0.
   492  4.91  0.  0.
   493  4.92  0.  0.
   494  4.93  0.  0.
   495  4.94  0.  0.
   496  4.95  0.  0.
   497  4.96  0.  0.
   498  4.97  0.  0.
   499  4.98  0.  0.
   500  4.99  0.  0.
   501  5.00  0.  0.
   502  5.01  0.  0.
   503  5.02  0.  0.
   504  5.03  0.  0.
   505  5.04  0.  0.
   506  5.05  0.  0.
   507  5.06  0.  0.
   508  5.07  0.  0.
   509  5.08  0.  0.
   510  5.09  0.  0.
   511  5.10  0.  0.
   512  5.11  0.  0.
   513  5.12  0.  0.
   514  5.13  0.  0.
   515  5.14  0.  0.
   516  5.15  0.  0.
   517  5.16  0.  0.
   518  5.17  0.  0.
   519  5.18  0.  0.
   520  5.19  0.  0.
   521  5.20  0.  0.
   522  5.21  0.  0.
   523  5.22  0.  0.
   524  5.23  0.  0.
   525  5.24  0.  0.
   526  5.25  0.  0.
   527  5.26  0.  0.
   528  5.27  0.  0.
   529  5.28  0.  0.
   530  5.29  0.  0.
   531  5.30  0.  0.
   532  5.31  0.  0.
   533  5.32  0.  0.
   534  5.33  0.  0.
   535  5.34  0.  0.
   536  5.35  0.  0.
   537  5.36  0.  0.
   538  5.37  0.  0.
   539  5.38  0.  0.
   540  5.39  0.  0.
   541  5.40  0.  0.
   542  5.41  0.  0.
   543  5.42  0.  0.
   544  5.43  0.  0.
   545  5.44  0.  0.
   546  5.45  0.  0.
   547  5.46  0.  0.
   548  5.47  0.  0.
   549  5.48  0.  0.
   550  5.49  0.  0.
   551  5.50  0.  0.
   552  5.51  0.  0.
   553  5.52  0.  0.
   554  5.53  0.  0.
   555  5.54  0.  0.
   556  5.55  0.  0.
   557  5.56  0.  0.
   558  5.57  0.  0.
   559  5.58  0.  0.
   560  5.59  0.  0.
   561  5.60  0.  0.
   562  5.61  0.  0.
   563  5.62  0.  0.
   564  5.63  0.  0.
   565  5.64  0.  0.
   566  5.65  0.  0.
   567  5.66  0.  0.
   568  5.67  0.  0.
   569  5.68  0.  0.
   570  5.69  0.  0.
   571  5.70  0.  0.
   572  5.71  0.  0.
   573  5.72  0.  0.
   574  5.73  0.  0.
   575  5.74  0.  0.
   576  5.75  0.  0.
   577  5.76  0.  0.
   578  5.77  0.  0.
   579  5.78  0.  0.
   580  5.79  0.  0.
   581  5.80  0.  0.
   582  5.81  0.  0.
   583  5.82  0.  0.
   584  5.83  0.  0.
   585  5.84  0.  0.
   586  5.85  0.  0.
   587  5.86  0.  0.
   588  5.87  0.  0.
   589  5.88  0.  0.
   590  5.89  0.  0.
   591  5.90  0.  0.
   592  5.91  0.  0.
   593  5.92  0.  0.
   594  5.93  0.  0.
   595  5.94  0.  0.
   596  5.95  0.  0.
   597  5.96  0.  0.
   598  5.97  0.  0.
   599  5.98  0.  0.
   600  5.99  0.  0.
   1                         3.7961517377396E+00  6.5354832493075E-01
     1  0.0000000000000E+00  2.0978732639954E-11 -2.0158071175821E-11
     2  1.0000000000000E-02  2.8220857211838E-04 -2.3092915644918E-05
     3  2.0000000000000E-02  1.1282367332990E-03 -9.2298267837734E-05
     4  3.0000000000000E-02  2.5362942170300E-03 -2.0739712329828E-04
     5  4.0000000000000E-02  4.5034052316556E-03 -3.6802875248804E-04
     6  5.0000000000000E-02  7.0254204012417E-03 -5.7369683159783E-04
     7  6.0000000000000E-02  1.0097033407102E-02 -8.2377805174103E-04
     8  7.0000000000000E-02  1.3711802254694E-02 -1.1175330623340E-03
     9  8.0000000000000E-02  1.7862175069607E-02 -1.4541196554867E-03
    10  9.0000000000000E-02  2.2539520305835E-02 -1.8326080787122E-03
    11  1.0000000000000E-01  2.7734161229460E-02 -2.2519983444163E-03
    12  1.1000000000000E-01  3.3435414521404E-02 -2.7112393865471E-03
    13  1.2000000000000E-01  3.9631632824092E-02 -3.2092498976770E-03
    14  1.3000000000000E-01  4.6310251038832E-02 -3.7449406636331E-03
    15  1.4000000000000E-01  5.3457836163487E-02 -4.3172381978600E-03
    16  1.5000000000000E-01  6.1060140443662E-02 -4.9251094638687E-03
    17  1.6000000000000E-01  6.9102157595353E-02 -5.5675874617420E-03
    18  1.7000000000000E-01  7.7568181842600E-02 -6.2437974435535E-03
    19  1.8000000000000E-01  8.6441869500609E-02 -6.9529835130368E-03
    20  1.9000000000000E-01  9.5706302822678E-02 -7.6945353567873E-03
    21  2.0000000000000E-01  1.0534405581853E-01 -8.4680148478592E-03
    22  2.1000000000000E-01  1.1533726174212E-01 -9.2731822579087E-03
    23  2.2000000000000E-01  1.2566768193873E-01 -1.0110021810916E-02
    24  2.3000000000000E-01  1.3631677573448E-01 -1.0978766310311E-02
    25  2.4000000000000E-01  1.4726577104561E-01 -1.1879920571718E-02
    26  2.5000000000000E-01  1.5849573538140E-01 -1.2814283395853E-02
    27  2.6000000000000E-01  1.6998764691147E-01 -1.3782967820141E-02
    28  2.7000000000000E-01  1.8172246526750E-01 -1.4787419393488E-02
    29  2.8000000000000E-01  1.9368120174968E-01 -1.5829432226271E-02
    30  2.9000000000000E-01  2.0584498861002E-01 -1.6911162577048E-02
    31  3.0000000000000E-01  2.1819514708811E-01 -1.8035139748595E-02
    32  3.1000000000000E-01  2.3071325387985E-01 -1.9204274078708E-02
    33  3.2000000000000E-01  2.4338120572566E-01 -2.0421861825728E-02
    34  3.3000000000000E-01  2.5618128181295E-01 -2.1691586764750E-02
    35  3.4000000000000E-01  2.6909620369639E-01 -2.3017518328065E-02
    36  3.5000000000000E-01  2.8210919245046E-01 -2.4404106142388E-02
    37  3.6000000000000E-01  2.9520402278035E-01 -2.5856170835781E-02
    38  3.7000000000000E-01  3.0836507383110E-01 -2.7378891008749E-02
    39  3.8000000000000E-01  3.2157737644867E-01 -2.8977786286757E-02
    40  3.9000000000000E-01  3.3482665666317E-01 -3.0658696395206E-02
    41  4.0000000000000E-01  3.4809937518071E-01 -3.2427756222530E-02
    42  4.1000000000000E-01  3.6138276268873E-01 -3.4291366862655E-02
    43  4.2000000000000E-01  3.7466485079845E-01 -3.6256162654126E-02
    44  4.3000000000000E-01  3.8793449846806E-01 -3.8328974259880E-02
    45  4.4000000000000E-01  4.0118141377107E-01 -4.0516787858695E-02
    46  4.5000000000000E-01  4.1439617089561E-01 -4.2826700546578E-02
    47  4.6000000000000E-01  4.2757022228301E-01 -4.5265872073711E-02
    48  4.7000000000000E-01  4.4069590583624E-01 -4.7841473069807E-02
    49  4.8000000000000E-01  4.5376644715270E-01 -5.0560629937785E-02
    50  4.9000000000000E-01  4.6677595675878E-01 -5.3430366622264E-02
    51  5.0000000000000E-01  4.7971942234823E-01 -5.6457543485516E-02
    52  5.1000000000000E-01  4.9259269604986E-01 -5.9648793548829E-02
    53  5.2000000000000E-01  5.0539247677454E-01 -6.3010456381784E-02
    54  5.3000000000000E-01  5.1811628771561E-01 -6.6548509945427E-02
    55  5.4000000000000E-01  5.3076244910039E-01 -7.0268500717638E-02
    56  5.5000000000000E-01  5.4333004631463E-01 -7.4175472449970E-02
    57  5.6000000000000E-01  5.5581889354448E-01 -7.8273893924784E-02
    58  5.7000000000000E-01  5.6822949310380E-01 -8.2567586099427E-02
    59  5.8000000000000E-01  5.8056299063653E-01 -8.7059649040330E-02
    60  5.9000000000000E-01  5.9282112640531E-01 -9.1752389064304E-02
    61  6.0000000000000E-01  6.0500618289832E-01 -9.6647246516516E-02
    62  6.1000000000000E-01  6.1712092900601E-01 -1.0174472462501E-01
    63  6.2000000000000E-01  6.2916856103784E-01 -1.0704431987946E-01
    64  6.3000000000000E-01  6.4115264086722E-01 -1.1254445438791E-01
    65  6.4000000000000E-01  6.5307703150865E-01 -1.1824241066813E-01
    66  6.5000000000000E-01  6.6494583044664E-01 -1.2413426933171E-01
    67  6.6000000000000E-01  6.7676330104927E-01 -1.3021485011706E-01
    68  6.7000000000000E-01  6.8853380241182E-01 -1.3647765672344E-01
    69  6.8000000000000E-01  7.0026171798637E-01 -1.4291482589153E-01
    70  6.9000000000000E-01  7.1195138336249E-01 -1.4951708116684E-01
    71  7.0000000000000E-01  7.2360701357158E-01 -1.5627369177006E-01
    72  7.1000000000000E-01  7.3523263029306E-01 -1.6317243698423E-01
    73  7.2000000000000E-01  7.4683198934489E-01 -1.7019957645159E-01
    74  7.3000000000000E-01  7.5840850884266E-01 -1.7733982675305E-01
    75  7.4000000000000E-01  7.6996519841244E-01 -1.8457634462142E-01
    76  7.5000000000000E-01  7.8150458984060E-01 -1.9189071711499E-01
    77  7.6000000000000E-01  7.9302866954096E-01 -1.9926295905096E-01
    78  7.7000000000000E-01  8.0453881321424E-01 -2.0667151796939E-01
    79  7.8000000000000E-01  8.1603572306791E-01 -2.1409328686693E-01
    80  7.9000000000000E-01  8.2751936795582E-01 -2.2150362490619E-01
    81  8.0000000000000E-01  8.3898892678616E-01 -2.2887638627172E-01
    82  8.1000000000000E-01  8.5044273553423E-01 -2.3618395730636E-01
    83  8.2000000000000E-01  8.6187823818221E-01 -2.4339730202323E-01
    84  8.3000000000000E-01  8.7329194189235E-01 -2.5048601604890E-01
    85  8.4000000000000E-01  8.8467937670280E-01 -2.5741838901172E-01
    86  8.5000000000000E-01  8.9603506001606E-01 -2.6416147534750E-01
    87  8.6000000000000E-01  9.0735246612998E-01 -2.7068117345117E-01
    88  8.7000000000000E-01  9.1862400103906E-01 -2.7694231305973E-01
    89  8.8000000000000E-01  9.2984098271103E-01 -2.8290875070733E-01
    90  8.9000000000000E-01  9.4099362701916E-01 -2.8854347304921E-01
    91  9.0000000000000E-01  9.5207103948550E-01 -2.9380870780659E-01
    92  9.1000000000000E-01  9.6306121296375E-01 -2.9866604204098E-01