Tl    ONCVPSP-4.0.1  r_core=   2.10952   2.60084   2.01094
     81.0000     13.0000      250925    zatom,zion,pspd
     8   -1012   2     4   600     0    pspcod,pspxc,lmax,lloc,mmax,r2well
  5.99000000  7.00000000  0.00000000    rchrg fchrg qchrg
     2     3     2     0    nproj
     3     1           extension_switch
     4     3     0    nprojso
   0                         6.0850990390236E+00  8.6242522243412E-01
     1  0.0000000000000E+00  9.4946134288065E-12 -4.2133324607008E-11
     2  1.0000000000000E-02  1.4518335393763E-02  8.8604974296071E-03
     3  2.0000000000000E-02  2.9040585260572E-02  1.7650155949148E-02
     4  3.0000000000000E-02  4.3570630081310E-02  2.6298504325415E-02
     5  4.0000000000000E-02  5.8112282624962E-02  3.4735804764886E-02
     6  5.0000000000000E-02  7.2669254771312E-02  4.2893414859206E-02
     7  6.0000000000000E-02  8.7245125141251E-02  5.0704143831277E-02
     8  7.0000000000000E-02  1.0184330779271E-01  5.8102601231772E-02
     9  8.0000000000000E-02  1.1646702223066E-01  6.5025536278023E-02
    10  9.0000000000000E-02  1.3111926496808E-01  7.1412166079422E-02
    11  1.0000000000000E-01  1.4580278286059E-01  7.7204491055474E-02
    12  1.1000000000000E-01  1.6052004842208E-01  8.2347595924050E-02
    13  1.2000000000000E-01  1.7527323731026E-01  8.6789934717782E-02
    14  1.3000000000000E-01  1.9006420815210E-01  9.0483598375408E-02
    15  1.4000000000000E-01  2.0489448485758E-01  9.3384563551946E-02
    16  1.5000000000000E-01  2.1976524154787E-01  9.5452921395805E-02
    17  1.6000000000000E-01  2.3467729020005E-01  9.6653085152360E-02
    18  1.7000000000000E-01  2.4963107108591E-01  9.6953975570749E-02
    19  1.8000000000000E-01  2.6462664605632E-01  9.6329183213853E-02
    20  1.9000000000000E-01  2.7966369469681E-01  9.4757106898926E-02
    21  2.0000000000000E-01  2.9474151335270E-01  9.2221067628429E-02
    22  2.1000000000000E-01  3.0985901699578E-01  8.8709397505484E-02
    23  2.2000000000000E-01  3.2501474387730E-01  8.4215503266223E-02
    24  2.3000000000000E-01  3.4020686288540E-01  7.8737904200498E-02
    25  2.4000000000000E-01  3.5543318349939E-01  7.2280244372748E-02
    26  2.5000000000000E-01  3.7069116820728E-01  6.4851279195175E-02
    27  2.6000000000000E-01  3.8597794722905E-01  5.6464836544885E-02
    28  2.7000000000000E-01  4.0129033536464E-01  4.7139752754817E-02
    29  2.8000000000000E-01  4.1662485076358E-01  3.6899783944076E-02
    30  2.9000000000000E-01  4.3197773539307E-01  2.5773493285720E-02
    31  3.0000000000000E-01  4.4734497696263E-01  1.3794114938957E-02
    32  3.1000000000000E-01  4.6272233204665E-01  9.9939549670513E-04
    33  3.2000000000000E-01  4.7810535013192E-01 -1.2568586081850E-02
    34  3.3000000000000E-01  4.9348939830464E-01 -2.6863618971216E-02
    35  3.4000000000000E-01  5.0886968628184E-01 -4.1835580223864E-02
    36  3.5000000000000E-01  5.2424129148422E-01 -5.7430672471430E-02
    37  3.6000000000000E-01  5.3959918384360E-01 -7.3591678205384E-02
    38  3.7000000000000E-01  5.5493825003492E-01 -9.0258229176328E-02
    39  3.8000000000000E-01  5.7025331682460E-01 -1.0736708937830E-01
    40  3.9000000000000E-01  5.8553917322958E-01 -1.2485245001959E-01
    41  4.0000000000000E-01  6.0079059118851E-01 -1.4264623482718E-01
    42  4.1000000000000E-01  6.1600234445493E-01 -1.6067841398672E-01
    43  4.2000000000000E-01  6.3116922543497E-01 -1.7887732498600E-01
    44  4.3000000000000E-01  6.4628605970599E-01 -1.9716999860462E-01
    45  4.4000000000000E-01  6.6134771797065E-01 -2.1548248827969E-01
    46  4.5000000000000E-01  6.7634912522035E-01 -2.3374020107335E-01
    47  4.6000000000000E-01  6.9128526690459E-01 -2.5186822847532E-01
    48  4.7000000000000E-01  7.0615119192752E-01 -2.6979167529123E-01
    49  4.8000000000000E-01  7.2094201231992E-01 -2.8743598489528E-01
    50  4.9000000000000E-01  7.3565289946379E-01 -3.0472725916377E-01
    51  5.0000000000000E-01  7.5027907677750E-01 -3.2159257145339E-01
    52  5.1000000000000E-01  7.6481580880189E-01 -3.3796027104587E-01
    53  5.2000000000000E-01  7.7925838666153E-01 -3.5376027754643E-01
    54  5.3000000000000E-01  7.9360210991015E-01 -3.6892436379837E-01
    55  5.4000000000000E-01  8.0784226480533E-01 -3.8338642595951E-01
    56  5.5000000000000E-01  8.2197409909378E-01 -3.9708273947645E-01
    57  5.6000000000000E-01  8.3599279342553E-01 -4.0995219979060E-01
    58  5.7000000000000E-01  8.4989342955216E-01 -4.2193654671363E-01
    59  5.8000000000000E-01  8.6367095550098E-01 -4.3298057152010E-01
    60  5.9000000000000E-01  8.7732014795306E-01 -4.4303230591928E-01
    61  6.0000000000000E-01  8.9083557208867E-01 -4.5204319218740E-01
    62  6.1000000000000E-01  9.0421153919767E-01 -4.5996823386409E-01
    63  6.2000000000000E-01  9.1744206238538E-01 -4.6676612654121E-01
    64  6.3000000000000E-01  9.3052081073563E-01 -4.7239936839991E-01
    65  6.4000000000000E-01  9.4344106232198E-01 -4.7683435027943E-01
    66  6.5000000000000E-01  9.5619565648478E-01 -4.8004142518896E-01
    67  6.6000000000000E-01  9.6877694581659E-01 -4.8199495730224E-01
    68  6.7000000000000E-01  9.8117674831966E-01 -4.8267335059965E-01
    69  6.8000000000000E-01  9.9338630021849E-01 -4.8205905744750E-01
    70  6.9000000000000E-01  1.0053962099252E+00 -4.8013856752400E-01
    71  7.0000000000000E-01  1.0171964136683E+00 -4.7690237761914E-01
    72  7.1000000000000E-01  1.0287761333029E+00 -4.7234494294735E-01
    73  7.2000000000000E-01  1.0401238368261E+00 -4.6646461071971E-01
    74  7.3000000000000E-01  1.0512272021218E+00 -4.5926353682259E-01
    75  7.4000000000000E-01  1.0620730844544E+00 -4.5074758654457E-01
    76  7.5000000000000E-01  1.0726474882274E+00 -4.4092622038074E-01
    77  7.6000000000000E-01  1.0829355435060E+00 -4.2981236602219E-01
    78  7.7000000000000E-01  1.0929214877925E+00 -4.1742227770989E-01
    79  7.8000000000000E-01  1.1025886535200E+00 -4.0377538419467E-01
    80  7.9000000000000E-01  1.1119194617074E+00 -3.8889412659732E-01
    81  8.0000000000000E-01  1.1208954221904E+00 -3.7280378750739E-01
    82  8.1000000000000E-01  1.1294971408110E+00 -3.5553231269214E-01
    83  8.2000000000000E-01  1.1377043339134E+00 -3.3711012681185E-01
    84  8.3000000000000E-01  1.1454958504518E+00 -3.1756994455114E-01
    85  8.4000000000000E-01  1.1528497019771E+00 -2.9694657857968E-01
    86  8.5000000000000E-01  1.1597431007177E+00 -2.7527674574938E-01
    87  8.6000000000000E-01  1.1661525059252E+00 -2.5259887291872E-01
    88  8.7000000000000E-01  1.1720536786003E+00 -2.2895290376846E-01
    89  8.8000000000000E-01  1.1774217446605E+00 -2.0438010793735E-01
    90  8.9000000000000E-01  1.1822312665554E+00 -1.7892289375997E-01
    91  9.0000000000000E-01  1.1864563232744E+00 -1.5262462583645E-01
    92  9.1000000000000E-01  1.1900705986331E+00 -1.2552944859832E-01
    93  9.2000000000000E-01  1.1930474776634E+00 -9.7682116965507E-02
    94  9.3000000000000E-01  1.1953601508692E+00 -6.9127835109817E-02
    95  9.4000000000000E-01  1.1969817260474E+00 -3.9912104254289E-02
    96  9.5000000000000E-01  1.1978853473131E+00 -1.0080580346122E-02
    97  9.6000000000000E-01  1.1980443209045E+00  2.0321057657606E-02
    98  9.7000000000000E-01  1.1974322472830E+00  5.1247228254601E-02
    99  9.8000000000000E-01  1.1960231589849E+00  8.2652556083141E-02
   100  9.9000000000000E-01  1.1937916636233E+00  1.1449196841004E-01
   101  1.0000000000000E+00  1.1907130913836E+00  1.4672077911512E-01
   102  1.0100000000000E+00  1.1867636463049E+00  1.7929475998101E-01
   103  1.0200000000000E+00  1.1819205605871E+00  2.1217019921354E-01
   104  1.0300000000000E+00  1.1761622511224E+00  2.4530394723330E-01
   105  1.0400000000000E+00  1.1694684774032E+00  2.7865344989400E-01
   106  1.0500000000000E+00  1.1618204999249E+00  3.1217676939679E-01
   107  1.0600000000000E+00  1.1532012381671E+00  3.4583259327985E-01
   108  1.0700000000000E+00  1.1435954272087E+00  3.7958023197073E-01
   109  1.0800000000000E+00  1.1329897720120E+00  4.1337960549083E-01
   110  1.0900000000000E+00  1.1213730983911E+00  4.4719122000062E-01
   111  1.1000000000000E+00  1.1087364996711E+00  4.8097613496558E-01
   112  1.1100000000000E+00  1.0950734780378E+00  5.1469592180912E-01
   113  1.1200000000000E+00  1.0803800795800E+00  5.4831261499687E-01
   114  1.1300000000000E+00  1.0646550220332E+00  5.8178865656837E-01
   115  1.1400000000000E+00  1.0478998142465E+00  6.1508683519307E-01
   116  1.1500000000000E+00  1.0301188664181E+00  6.4817022088308E-01
   117  1.1600000000000E+00  1.0113195901664E+00  6.8100209653729E-01
   118  1.1700000000000E+00  9.9151248754266E-01  7.1354588752743E-01
   119  1.1800000000000E+00  9.7071122812610E-01  7.4576509056015E-01
   120  1.1900000000000E+00  9.4893271339248E-01  7.7762320306368E-01
   121  1.2000000000000E+00  9.2619712759584E-01  8.0908365435130E-01
   122  1.2100000000000E+00  9.0252797446368E-01  8.4010973980689E-01
   123  1.2200000000000E+00  8.7795209906864E-01  8.7066455932014E-01
   124  1.2300000000000E+00  8.5249969430913E-01  9.0071096117179E-01
   125  1.2400000000000E+00  8.2620429150592E-01  9.3021149252976E-01
   126  1.2500000000000E+00  7.9910273470061E-01  9.5912835766995E-01
   127  1.2600000000000E+00  7.7123513832541E-01  9.8742338497599E-01
   128  1.2700000000000E+00  7.4264482800107E-01  1.0150580037051E+00
   129  1.2800000000000E+00  7.1337826431043E-01  1.0419932314304E+00
   130  1.2900000000000E+00  6.8348494948909E-01  1.0681896729839E+00
   131  1.3000000000000E+00  6.5301731707019E-01  1.0936075316325E+00
   132  1.3100000000000E+00  6.2203060461926E-01  1.1182066331168E+00
   133  1.3200000000000E+00  5.9058270979346E-01  1.1419464630771E+00
   134  1.3300000000000E+00  5.5873403006002E-01  1.1647862182771E+00
   135  1.3400000000000E+00  5.2654728650868E-01  1.1866848719170E+00
   136  1.3500000000000E+00  4.9408733229253E-01  1.2076012532068E+00
   137  1.3600000000000E+00  4.6142094633014E-01  1.2274941412432E+00
   138  1.3700000000000E+00  4.2861661299814E-01  1.2463223731074E+00
   139  1.3800000000000E+00  3.9574428863835E-01  1.2640449659703E+00
   140  1.3900000000000E+00  3.6287515579450E-01  1.2806212528603E+00
   141  1.4000000000000E+00  3.3008136618114E-01  1.2960110316233E+00
   142  1.4100000000000E+00  2.9743577347094E-01  1.3101747264715E+00
   143  1.4200000000000E+00  2.6501165706539E-01  1.3230735613955E+00
   144  1.4300000000000E+00  2.3288243808703E-01  1.3346697445909E+00
   145  1.4400000000000E+00  2.0112138889889E-01  1.3449266629306E+00
   146  1.4500000000000E+00  1.6980133751800E-01  1.3538090854052E+00
   147  1.4600000000000E+00  1.3899436834365E-01  1.3612833743432E+00
   148  1.4700000000000E+00  1.0877152066864E-01  1.3673177031270E+00
   149  1.4800000000000E+00  7.9202486480647E-02  1.3718822790246E+00
   150  1.4900000000000E+00  5.0355309091934E-02  1.3749495696787E+00
   151  1.5000000000000E+00  2.2296084158941E-02  1.3764945317176E+00
   152  1.5100000000000E+00 -4.9113353326646E-03  1.3764948398885E+00
   153  1.5200000000000E+00 -3.1205628536394E-02  1.3749311150637E+00
   154  1.5300000000000E+00 -5.6528289089092E-02  1.3717871494237E+00
   155  1.5400000000000E+00 -8.0823898765771E-02  1.3670501270937E+00
   156  1.5500000000000E+00 -1.0404039090147E-01  1.3607108384902E+00
   157  1.5600000000000E+00 -1.2612930206755E-01  1.3527638866258E+00
   158  1.5700000000000E+00 -1.4704601052938E-01  1.3432078836300E+00
   159  1.5800000000000E+00 -1.6674996006115E-01  1.3320456357564E+00
   160  1.5900000000000E+00 -1.8520486775104E-01  1.3192843151833E+00
   161  1.6000000000000E+00 -2.0237891449581E-01  1.3049356169516E+00
   162  1.6100000000000E+00 -2.1824491695826E-01  1.2890158994435E+00
   163  1.6200000000000E+00 -2.3278047984287E-01  1.2715463068704E+00
   164  1.6300000000000E+00 -2.4596812743452E-01  1.2525528723174E+00
   165  1.6400000000000E+00 -2.5779541344184E-01  1.2320665999824E+00
   166  1.6500000000000E+00 -2.6825500828983E-01  1.2101235253479E+00
   167  1.6600000000000E+00 -2.7734476311548E-01  1.1867647521348E+00
   168  1.6700000000000E+00 -2.8506774983464E-01  1.1620364650077E+00
   169  1.6800000000000E+00 -2.9143227676807E-01  1.1359899171305E+00
   170  1.6900000000000E+00 -2.9645187943740E-01  1.1086813918080E+00
   171  1.7000000000000E+00 -3.0014528626970E-01  1.0801721375940E+00
   172  1.7100000000000E+00 -3.0253635907831E-01  1.0505282763955E+00
   173  1.7200000000000E+00 -3.0365400831951E-01  1.0198206842610E+00
   174  1.7300000000000E+00 -3.0353208325803E-01  9.8812484469715E-01
   175  1.7400000000000E+00 -3.0220923730731E-01  9.5552067452470E-01
   176  1.7500000000000E+00 -2.9972876894419E-01  9.2209232244751E-01
   177  1.7600000000000E+00 -2.9613843872945E-01  8.8792794067613E-01
   178  1.7700000000000E+00 -2.9149026309630E-01  8.5311943011321E-01
   179  1.7800000000000E+00 -2.8584028569635E-01  8.1776215977290E-01
   180  1.7900000000000E+00 -2.7924832721701E-01  7.8195466126956E-01
   181  1.8000000000000E+00 -2.7177771470464E-01  7.4579829937066E-01
   182  1.8100000000000E+00 -2.6349499154258E-01  7.0939691976278E-01
   183  1.8200000000000E+00 -2.5446960934361E-01  6.7285647533016E-01
   184  1.8300000000000E+00 -2.4477360311945E-01  6.3628463238747E-01
   185  1.8400000000000E+00 -2.3448125118669E-01  5.9979035844354E-01
   186  1.8500000000000E+00 -2.2366872135763E-01  5.6348349320004E-01
   187  1.8600000000000E+00 -2.1241370504601E-01  5.2747430460648E-01
   188  1.8700000000000E+00 -2.0079504098961E-01  4.9187303189954E-01
   189  1.8800000000000E+00 -1.8889233035595E-01  4.5678941765198E-01
   190  1.8900000000000E+00 -1.7678554505060E-01  4.2233223093931E-01
   191  1.9000000000000E+00 -1.6455463109336E-01  3.8860878380713E-01
   192  1.9100000000000E+00 -1.5227910896051E-01  3.5572444327920E-01
   193  1.9200000000000E+00 -1.4003767281650E-01  3.2378214119419E-01
   194  1.9300000000000E+00 -1.2790779057126E-01  2.9288188419108E-01
   195  1.9400000000000E+00 -1.1596530670298E-01  2.6312026618224E-01
   196  1.9500000000000E+00 -1.0428404977843E-01  2.3458998565856E-01
   197  1.9600000000000E+00 -9.2935446583833E-02  2.0737937016001E-01
   198  1.9700000000000E+00 -8.1988143674347E-02  1.8157190757383E-01
   199  1.9800000000000E+00 -7.1507648169176E-02  1.5724581128786E-01
   200  1.9900000000000E+00 -6.1555954182322E-02  1.3447353087494E-01
   201  2.0000000000000E+00 -5.2191209610948E-02  1.1332136140690E-01
   202  2.0100000000000E+00 -4.3467801470587E-02  9.3850018061630E-02
   203  2.0200000000000E+00 -3.5436626622831E-02  7.6115618928960E-02
   204  2.0300000000000E+00 -2.8142670263220E-02  6.0164435851610E-02
   205  2.0400000000000E+00 -2.1625686909122E-02  4.6035375823786E-02
   206  2.0500000000000E+00 -1.5920411451462E-02  3.3760900418688E-02
   207  2.0600000000000E+00 -1.1056310059028E-02  2.3366611522498E-02
   208  2.0700000000000E+00 -7.0574527131851E-03  1.4871161030492E-02
   209  2.0800000000000E+00 -3.9439421557495E-03  8.2893744819086E-03
   210  2.0900000000000E+00 -1.7146756563053E-03  3.5963504330745E-03
   211  2.1000000000000E+00 -4.2780165175333E-04  8.9568593911169E-04
   212  2.1100000000000E+00  7.2106607986941E-06 -1.5054077317507E-05
   213  2.1200000000000E+00  1.2898134055395E-05 -2.6939398947555E-05
   214  2.13  0.  0.
   215  2.14  0.  0.
   216  2.15  0.  0.
   217  2.16  0.  0.
   218  2.17  0.  0.
   219  2.18  0.  0.
   220  2.19  0.  0.
   221  2.20  0.  0.
   222  2.21  0.  0.
   223  2.22  0.  0.
   224  2.23  0.  0.
   225  2.24  0.  0.
   226  2.25  0.  0.
   227  2.26  0.  0.
   228  2.27  0.  0.
   229  2.28  0.  0.
   230  2.29  0.  0.
   231  2.30  0.  0.
   232  2.31  0.  0.
   233  2.32  0.  0.
   234  2.33  0.  0.
   235  2.34  0.  0.
   236  2.35  0.  0.
   237  2.36  0.  0.
   238  2.37  0.  0.
   239  2.38  0.  0.
   240  2.39  0.  0.
   241  2.40  0.  0.
   242  2.41  0.  0.
   243  2.42  0.  0.
   244  2.43  0.  0.
   245  2.44  0.  0.
   246  2.45  0.  0.
   247  2.46  0.  0.
   248  2.47  0.  0.
   249  2.48  0.  0.
   250  2.49  0.  0.
   251  2.50  0.  0.
   252  2.51  0.  0.
   253  2.52  0.  0.
   254  2.53  0.  0.
   255  2.54  0.  0.
   256  2.55  0.  0.
   257  2.56  0.  0.
   258  2.57  0.  0.
   259  2.58  0.  0.
   260  2.59  0.  0.
   261  2.60  0.  0.
   262  2.61  0.  0.
   263  2.62  0.  0.
   264  2.63  0.  0.
   265  2.64  0.  0.
   266  2.65  0.  0.
   267  2.66  0.  0.
   268  2.67  0.  0.
   269  2.68  0.  0.
   270  2.69  0.  0.
   271  2.70  0.  0.
   272  2.71  0.  0.
   273  2.72  0.  0.
   274  2.73  0.  0.
   275  2.74  0.  0.
   276  2.75  0.  0.
   277  2.76  0.  0.
   278  2.77  0.  0.
   279  2.78  0.  0.
   280  2.79  0.  0.
   281  2.80  0.  0.
   282  2.81  0.  0.
   283  2.82  0.  0.
   284  2.83  0.  0.
   285  2.84  0.  0.
   286  2.85  0.  0.
   287  2.86  0.  0.
   288  2.87  0.  0.
   289  2.88  0.  0.
   290  2.89  0.  0.
   291  2.90  0.  0.
   292  2.91  0.  0.
   293  2.92  0.  0.
   294  2.93  0.  0.
   295  2.94  0.  0.
   296  2.95  0.  0.
   297  2.96  0.  0.
   298  2.97  0.  0.
   299  2.98  0.  0.
   300  2.99  0.  0.
   301  3.00  0.  0.
   302  3.01  0.  0.
   303  3.02  0.  0.
   304  3.03  0.  0.
   305  3.04  0.  0.
   306  3.05  0.  0.
   307  3.06  0.  0.
   308  3.07  0.  0.
   309  3.08  0.  0.
   310  3.09  0.  0.
   311  3.10  0.  0.
   312  3.11  0.  0.
   313  3.12  0.  0.
   314  3.13  0.  0.
   315  3.14  0.  0.
   316  3.15  0.  0.
   317  3.16  0.  0.
   318  3.17  0.  0.
   319  3.18  0.  0.
   320  3.19  0.  0.
   321  3.20  0.  0.
   322  3.21  0.  0.
   323  3.22  0.  0.
   324  3.23  0.  0.
   325  3.24  0.  0.
   326  3.25  0.  0.
   327  3.26  0.  0.
   328  3.27  0.  0.
   329  3.28  0.  0.
   330  3.29  0.  0.
   331  3.30  0.  0.
   332  3.31  0.  0.
   333  3.32  0.  0.
   334  3.33  0.  0.
   335  3.34  0.  0.
   336  3.35  0.  0.
   337  3.36  0.  0.
   338  3.37  0.  0.
   339  3.38  0.  0.
   340  3.39  0.  0.
   341  3.40  0.  0.
   342  3.41  0.  0.
   343  3.42  0.  0.
   344  3.43  0.  0.
   345  3.44  0.  0.
   346  3.45  0.  0.
   347  3.46  0.  0.
   348  3.47  0.  0.
   349  3.48  0.  0.
   350  3.49  0.  0.
   351  3.50  0.  0.
   352  3.51  0.  0.
   353  3.52  0.  0.
   354  3.53  0.  0.
   355  3.54  0.  0.
   356  3.55  0.  0.
   357  3.56  0.  0.
   358  3.57  0.  0.
   359  3.58  0.  0.
   360  3.59  0.  0.
   361  3.60  0.  0.
   362  3.61  0.  0.
   363  3.62  0.  0.
   364  3.63  0.  0.
   365  3.64  0.  0.
   366  3.65  0.  0.
   367  3.66  0.  0.
   368  3.67  0.  0.
   369  3.68  0.  0.
   370  3.69  0.  0.
   371  3.70  0.  0.
   372  3.71  0.  0.
   373  3.72  0.  0.
   374  3.73  0.  0.
   375  3.74  0.  0.
   376  3.75  0.  0.
   377  3.76  0.  0.
   378  3.77  0.  0.
   379  3.78  0.  0.
   380  3.79  0.  0.
   381  3.80  0.  0.
   382  3.81  0.  0.
   383  3.82  0.  0.
   384  3.83  0.  0.
   385  3.84  0.  0.
   386  3.85  0.  0.
   387  3.86  0.  0.
   388  3.87  0.  0.
   389  3.88  0.  0.
   390  3.89  0.  0.
   391  3.90  0.  0.
   392  3.91  0.  0.
   393  3.92  0.  0.
   394  3.93  0.  0.
   395  3.94  0.  0.
   396  3.95  0.  0.
   397  3.96  0.  0.
   398  3.97  0.  0.
   399  3.98  0.  0.
   400  3.99  0.  0.
   401  4.00  0.  0.
   402  4.01  0.  0.
   403  4.02  0.  0.
   404  4.03  0.  0.
   405  4.04  0.  0.
   406  4.05  0.  0.
   407  4.06  0.  0.
   408  4.07  0.  0.
   409  4.08  0.  0.
   410  4.09  0.  0.
   411  4.10  0.  0.
   412  4.11  0.  0.
   413  4.12  0.  0.
   414  4.13  0.  0.
   415  4.14  0.  0.
   416  4.15  0.  0.
   417  4.16  0.  0.
   418  4.17  0.  0.
   419  4.18  0.  0.
   420  4.19  0.  0.
   421  4.20  0.  0.
   422  4.21  0.  0.
   423  4.22  0.  0.
   424  4.23  0.  0.
   425  4.24  0.  0.
   426  4.25  0.  0.
   427  4.26  0.  0.
   428  4.27  0.  0.
   429  4.28  0.  0.
   430  4.29  0.  0.
   431  4.30  0.  0.
   432  4.31  0.  0.
   433  4.32  0.  0.
   434  4.33  0.  0.
   435  4.34  0.  0.
   436  4.35  0.  0.
   437  4.36  0.  0.
   438  4.37  0.  0.
   439  4.38  0.  0.
   440  4.39  0.  0.
   441  4.40  0.  0.
   442  4.41  0.  0.
   443  4.42  0.  0.
   444  4.43  0.  0.
   445  4.44  0.  0.
   446  4.45  0.  0.
   447  4.46  0.  0.
   448  4.47  0.  0.
   449  4.48  0.  0.
   450  4.49  0.  0.
   451  4.50  0.  0.
   452  4.51  0.  0.
   453  4.52  0.  0.
   454  4.53  0.  0.
   455  4.54  0.  0.
   456  4.55  0.  0.
   457  4.56  0.  0.
   458  4.57  0.  0.
   459  4.58  0.  0.
   460  4.59  0.  0.
   461  4.60  0.  0.
   462  4.61  0.  0.
   463  4.62  0.  0.
   464  4.63  0.  0.
   465  4.64  0.  0.
   466  4.65  0.  0.
   467  4.66  0.  0.
   468  4.67  0.  0.
   469  4.68  0.  0.
   470  4.69  0.  0.
   471  4.70  0.  0.
   472  4.71  0.  0.
   473  4.72  0.  0.
   474  4.73  0.  0.
   475  4.74  0.  0.
   476  4.75  0.  0.
   477  4.76  0.  0.
   478  4.77  0.  0.
   479  4.78  0.  0.
   480  4.79  0.  0.
   481  4.80  0.  0.
   482  4.81  0.  0.
   483  4.82  0.  0.
   484  4.83  0.  0.
   485  4.84  0.  0.
   486  4.85  0.  0.
   487  4.86  0.  0.
   488  4.87  0.  0.
   489  4.88  0.  0.
   490  4.89  0.  0.
   491  4.90  0.  0.
   492  4.91  0.  0.
   493  4.92  0.  0.
   494  4.93  0.  0.
   495  4.94  0.  0.
   496  4.95  0.  0.
   497  4.96  0.  0.
   498  4.97  0.  0.
   499  4.98  0.  0.
   500  4.99  0.  0.
   501  5.00  0.  0.
   502  5.01  0.  0.
   503  5.02  0.  0.
   504  5.03  0.  0.
   505  5.04  0.  0.
   506  5.05  0.  0.
   507  5.06  0.  0.
   508  5.07  0.  0.
   509  5.08  0.  0.
   510  5.09  0.  0.
   511  5.10  0.  0.
   512  5.11  0.  0.
   513  5.12  0.  0.
   514  5.13  0.  0.
   515  5.14  0.  0.
   516  5.15  0.  0.
   517  5.16  0.  0.
   518  5.17  0.  0.
   519  5.18  0.  0.
   520  5.19  0.  0.
   521  5.20  0.  0.
   522  5.21  0.  0.
   523  5.22  0.  0.
   524  5.23  0.  0.
   525  5.24  0.  0.
   526  5.25  0.  0.
   527  5.26  0.  0.
   528  5.27  0.  0.
   529  5.28  0.  0.
   530  5.29  0.  0.
   531  5.30  0.  0.
   532  5.31  0.  0.
   533  5.32  0.  0.
   534  5.33  0.  0.
   535  5.34  0.  0.
   536  5.35  0.  0.
   537  5.36  0.  0.
   538  5.37  0.  0.
   539  5.38  0.  0.
   540  5.39  0.  0.
   541  5.40  0.  0.
   542  5.41  0.  0.
   543  5.42  0.  0.
   544  5.43  0.  0.
   545  5.44  0.  0.
   546  5.45  0.  0.
   547  5.46  0.  0.
   548  5.47  0.  0.
   549  5.48  0.  0.
   550  5.49  0.  0.
   551  5.50  0.  0.
   552  5.51  0.  0.
   553  5.52  0.  0.
   554  5.53  0.  0.
   555  5.54  0.  0.
   556  5.55  0.  0.
   557  5.56  0.  0.
   558  5.57  0.  0.
   559  5.58  0.  0.
   560  5.59  0.  0.
   561  5.60  0.  0.
   562  5.61  0.  0.
   563  5.62  0.  0.
   564  5.63  0.  0.
   565  5.64  0.  0.
   566  5.65  0.  0.
   567  5.66  0.  0.
   568  5.67  0.  0.
   569  5.68  0.  0.
   570  5.69  0.  0.
   571  5.70  0.  0.
   572  5.71  0.  0.
   573  5.72  0.  0.
   574  5.73  0.  0.
   575  5.74  0.  0.
   576  5.75  0.  0.
   577  5.76  0.  0.
   578  5.77  0.  0.
   579  5.78  0.  0.
   580  5.79  0.  0.
   581  5.80  0.  0.
   582  5.81  0.  0.
   583  5.82  0.  0.
   584  5.83  0.  0.
   585  5.84  0.  0.
   586  5.85  0.  0.
   587  5.86  0.  0.
   588  5.87  0.  0.
   589  5.88  0.  0.
   590  5.89  0.  0.
   591  5.90  0.  0.
   592  5.91  0.  0.
   593  5.92  0.  0.
   594  5.93  0.  0.
   595  5.94  0.  0.
   596  5.95  0.  0.
   597  5.96  0.  0.
   598  5.97  0.  0.
   599  5.98  0.  0.
   600  5.99  0.  0.
   1                         3.7321277378257E+00  6.7219217626366E-01  4.2755139807276E-02
     1  0.0000000000000E+00  1.6630499061199E-11 -3.1360641514211E-11  2.6605775915733E-10
     2  1.0000000000000E-02  2.7380427452484E-04 -6.5923741509123E-05  7.3183777902725E-04
     3  2.0000000000000E-02  1.0946947496024E-03 -2.6339984718593E-04  2.9226947970278E-03
     4  3.0000000000000E-02  2.4611063362787E-03 -5.9154536210623E-04  6.5586284658570E-03
     5  4.0000000000000E-02  4.3704370661464E-03 -1.0488966837270E-03  1.1616488897181E-02
     6  5.0000000000000E-02  6.8190578311087E-03 -1.6334214880936E-03  1.8064050056356E-02
     7  6.0000000000000E-02  9.8023259591223E-03 -2.3425353122331E-03  2.5860192412422E-02
     8  7.0000000000000E-02  1.3314602566319E-02 -3.1731226792442E-03  3.4955136124313E-02
     9  8.0000000000000E-02  1.7349273609273E-02 -4.1215626212371E-03  4.5290723537316E-02
    10  9.0000000000000E-02  2.1898774544905E-02 -5.1837584247473E-03  5.6800749503278E-02
    11  1.0000000000000E-01  2.6954618489586E-02 -6.3551713937233E-03  6.9411337785476E-02
    12  1.1000000000000E-01  3.2507427753595E-02 -7.6308583968303E-03  8.3041361564026E-02
    13  1.2000000000000E-01  3.8546968612073E-02 -9.0055129386996E-03  9.7602905823256E-02
    14  1.3000000000000E-01  4.5062189159341E-02 -1.0473509469238E-02  1.1300176917822E-01
    15  1.4000000000000E-01  5.2041260079661E-02 -1.2028950621090E-02  1.2913800248558E-01
    16  1.5000000000000E-01  5.9471618154544E-02 -1.3665717043199E-02  1.4590648138498E-01
    17  1.6000000000000E-01  6.7340012314429E-02 -1.5377519478096E-02  1.6319750973213E-01
    18  1.7000000000000E-01  7.5632552031120E-02 -1.7157952712282E-02  1.8089745071465E-01
    19  1.8000000000000E-01  8.4334757836737E-02 -1.9000551012937E-02  1.9888938228756E-01
    20  1.9000000000000E-01  9.3431613745311E-02 -2.0898844650309E-02  2.1705377342786E-01
    21  2.0000000000000E-01  1.0290762134435E-01 -2.2846417093548E-02  2.3526917758724E-01
    22  2.1000000000000E-01  1.1274685531603E-01 -2.4836962458655E-02  2.5341293962009E-01
    23  2.2000000000000E-01  1.2293302014086E-01 -2.6864342780500E-02  2.7136191238002E-01
    24  2.3000000000000E-01  1.3344950773113E-01 -2.8922644676801E-02  2.8899317911422E-01
    25  2.4000000000000E-01  1.4427945573675E-01 -3.1006234970375E-02  3.0618477773932E-01
    26  2.5000000000000E-01  1.5540580626276E-01 -3.3109814837067E-02  3.2281642305775E-01
    27  2.6000000000000E-01  1.6681136473538E-01 -3.5228472050500E-02  3.3877022296817E-01
    28  2.7000000000000E-01  1.7847885865231E-01 -3.7357730901079E-02  3.5393138473847E-01
    29  2.8000000000000E-01  1.9039099595309E-01 -3.9493599375713E-02  3.6818890744504E-01
    30  2.9000000000000E-01  2.0253052274623E-01 -4.1632613196251E-02  3.8143625673706E-01
    31  3.0000000000000E-01  2.1488028013249E-01 -4.3771876328794E-02  3.9357201815991E-01
    32  3.1000000000000E-01  2.2742325986683E-01 -4.5909097592662E-02  4.0450052536632E-01
    33  3.2000000000000E-01  2.4014265860647E-01 -4.8042623016940E-02  4.1413245965813E-01
    34  3.3000000000000E-01  2.5302193049805E-01 -5.0171463613934E-02  4.2238541743457E-01
    35  3.4000000000000E-01  2.6604483786405E-01 -5.2295318262673E-02  4.2918444227414E-01
    36  3.5000000000000E-01  2.7919549975639E-01 -5.4414591421452E-02  4.3446251854616E-01
    37  3.6000000000000E-01  2.9245843815447E-01 -5.6530405416419E-02  4.3816102363412E-01
    38  3.7000000000000E-01  3.0581862159472E-01 -5.8644607083086E-02  4.4023013605493E-01
    39  3.8000000000000E-01  3.1926150603034E-01 -6.0759768569309E-02  4.4062919697557E-01
    40  3.9000000000000E-01  3.3277307273159E-01 -6.2879182141637E-02  4.3932702286027E-01
    41  4.0000000000000E-01  3.4633986305020E-01 -6.5006848871628E-02  4.3630216722610E-01
    42  4.1000000000000E-01  3.5994900988548E-01 -6.7147461114877E-02  4.3154312974178E-01
    43  4.2000000000000E-01  3.7358826570426E-01 -6.9306378732642E-02  4.2504851117237E-01
    44  4.3000000000000E-01  3.8724602698232E-01 -7.1489599044059E-02  4.1682711294983E-01
    45  4.4000000000000E-01  4.0091135495123E-01 -7.3703720535786E-02  4.0689798043501E-01
    46  4.5000000000000E-01  4.1457399255122E-01 -7.5955900395265E-02  3.9529038922961E-01
    47  4.6000000000000E-01  4.2822437750817E-01 -7.8253805973431E-02  3.8204377419418E-01
    48  4.7000000000000E-01  4.4185365147058E-01 -8.0605560322474E-02  3.6720760113096E-01
    49  4.8000000000000E-01  4.5545366516067E-01 -8.3019681993917E-02  3.5084118139449E-01
    50  4.9000000000000E-01  4.6901697951252E-01 -8.5505019321502E-02  3.3301342999893E-01
    51  5.0000000000000E-01  4.8253686278879E-01 -8.8070679452191E-02  3.1380256809590E-01
    52  5.1000000000000E-01  4.9600728368678E-01 -9.0725952426449E-02  2.9329577099988E-01
    53  5.2000000000000E-01  5.0942290046365E-01 -9.3480230645972E-02  2.7158876323725E-01
    54  5.3000000000000E-01  5.2277904612980E-01 -9.6342924102683E-02  2.4878536238941E-01
    55  5.4000000000000E-01  5.3607170977852E-01 -9.9323371777116E-02  2.2499697378764E-01
    56  5.5000000000000E-01  5.4929751413868E-01 -1.0243074964686E-01  2.0034203839623E-01
    57  5.6000000000000E-01  5.6245368945627E-01 -1.0567397577654E-01  1.7494543648975E-01
    58  5.7000000000000E-01  5.7553804382851E-01 -1.0906161298936E-01  1.4893784998809E-01
    59  5.8000000000000E-01  5.8854893013237E-01 -1.1260176964686E-01  1.2245508655779E-01
    60  5.9000000000000E-01  6.0148520970674E-01 -1.1630199908724E-01  9.5637368819609E-02
    61  6.0000000000000E-01  6.1434621296392E-01 -1.2016919829415E-01  6.8628592217335E-02
    62  6.1000000000000E-01  6.2713169712272E-01 -1.2420950638640E-01  4.1575555301616E-02
    63  6.2000000000000E-01  6.3984180127034E-01 -1.2842820353463E-01  1.4627166363814E-02
    64  6.3000000000000E-01  6.5247699897503E-01 -1.3282961092358E-01 -1.2066369483772E-02
    65  6.4000000000000E-01  6.6503804868480E-01 -1.3741699238801E-01 -3.8354378543146E-02
    66  6.5000000000000E-01  6.7752594216055E-01 -1.4219245835648E-01 -6.4086557722221E-02
    67  6.6000000000000E-01  6.8994185120300E-01 -1.4715687273978E-01 -8.9113820225301E-02
    68  6.7000000000000E-01  7.0228707294367E-01 -1.5230976340008E-01 -1.1328914320834E-01
    69  6.8000000000000E-01  7.1456297397940E-01 -1.5764923683266E-01 -1.3646841281219E-01
    70  6.9000000000000E-01  7.2677093363768E-01 -1.6317189768421E-01 -1.5851126195759E-01