O     ONCVPSP-4.0.1  r_core=   1.35491   1.45575   1.25353
      8.0000      6.0000      250217    zatom,zion,pspd
     8       2   2     4   600     0    pspcod,pspxc,lmax,lloc,mmax,r2well
  5.99000000  4.00000000  0.00000000    rchrg fchrg qchrg
     2     2     1     0    nproj
     3     1           extension_switch
     3     2     0    nprojso
   0                         5.8774160933394E+00  7.7428202641638E-01
     1  0.0000000000000E+00  2.5513090529117E-09 -5.7164352140759E-09
     2  1.0000000000000E-02  9.0534098769182E-02 -2.6348431609386E-02
     3  2.0000000000000E-02  1.8082215136509E-01 -5.2502125442181E-02
     4  3.0000000000000E-02  2.7061829195136E-01 -7.8266031582516E-02
     5  4.0000000000000E-02  3.5967703623858E-01 -1.0344452217545E-01
     6  5.0000000000000E-02  4.4775352375805E-01 -1.2784121677305E-01
     7  6.0000000000000E-02  5.3460382004192E-01 -1.5125894060898E-01
     8  7.0000000000000E-02  6.1998529557692E-01 -1.7349985315276E-01
     9  8.0000000000000E-02  7.0365709584735E-01 -1.9436577857859E-01
    10  9.0000000000000E-02  7.8538071372498E-01 -2.1365876294033E-01
    11  1.0000000000000E-01  8.6492067198114E-01 -2.3118187506417E-01
    12  1.1000000000000E-01  9.4204531988392E-01 -2.4674025967108E-01
    13  1.2000000000000E-01  1.0165277438050E+00 -2.6014244226014E-01
    14  1.3000000000000E-01  1.0881467876061E+00 -2.7120187607584E-01
    15  1.4000000000000E-01  1.1566881744202E+00 -2.7973871230864E-01
    16  1.5000000000000E-01  1.2219457174012E+00 -2.8558176580469E-01
    17  1.6000000000000E-01  1.2837226032035E+00 -2.8857064024408E-01
    18  1.7000000000000E-01  1.3418327284782E+00 -2.8855796923789E-01
    19  1.8000000000000E-01  1.3961020666351E+00 -2.8541172331872E-01
    20  1.9000000000000E-01  1.4463700396132E+00 -2.7901752756341E-01
    21  2.0000000000000E-01  1.4924908675058E+00 -2.6928093076416E-01
    22  2.1000000000000E-01  1.5343348676566E+00 -2.5612956479303E-01
    23  2.2000000000000E-01  1.5717896743394E+00 -2.3951513218754E-01
    24  2.3000000000000E-01  1.6047613503716E+00 -2.1941516107604E-01
    25  2.4000000000000E-01  1.6331753630153E+00 -1.9583446937818E-01
    26  2.5000000000000E-01  1.6569773982642E+00 -1.6880628472303E-01
    27  2.6000000000000E-01  1.6761339900893E+00 -1.3839297265104E-01
    28  2.7000000000000E-01  1.6906329443583E+00 -1.0468633328473E-01
    29  2.8000000000000E-01  1.7004835408957E+00 -6.7807435604801E-02
    30  2.9000000000000E-01  1.7057165014350E+00 -2.7905968554162E-02
    31  3.0000000000000E-01  1.7063837159184E+00  1.4840900821179E-02
    32  3.1000000000000E-01  1.7025577246379E+00  6.0230160359679E-02
    33  3.2000000000000E-01  1.6943309589413E+00  1.0803506308316E-01
    34  3.3000000000000E-01  1.6818147485401E+00  1.5800768895028E-01
    35  3.4000000000000E-01  1.6651381087111E+00  2.0988192041604E-01
    36  3.5000000000000E-01  1.6444463257565E+00  2.6337678291352E-01
    37  3.6000000000000E-01  1.6198993638404E+00  3.1820009099331E-01
    38  3.7000000000000E-01  1.5916701206403E+00  3.7405233161706E-01
    39  3.8000000000000E-01  1.5599425630136E+00  4.3063070826472E-01
    40  3.9000000000000E-01  1.5249097769858E+00  4.8763326331767E-01
    41  4.0000000000000E-01  1.4867719687250E+00  5.4476299181709E-01
    42  4.1000000000000E-01  1.4457344547052E+00  6.0173185732943E-01
    43  4.2000000000000E-01  1.4020056799253E+00  6.5826462038932E-01
    44  4.3000000000000E-01  1.3557953028036E+00  7.1410239189767E-01
    45  4.4000000000000E-01  1.3073123842013E+00  7.6900582794085E-01
    46  4.5000000000000E-01  1.2567637159503E+00  8.2275788872386E-01
    47  4.6000000000000E-01  1.2043523213008E+00  8.7516609258082E-01
    48  4.7000000000000E-01  1.1502761559186E+00  9.2606420619246E-01
    49  4.8000000000000E-01  1.0947270335276E+00  9.7531332400974E-01
    50  4.9000000000000E-01  1.0378897950932E+00  1.0228023032073E+00
    51  5.0000000000000E-01  9.7994173470807E-01  1.0684475349938E+00
    52  5.1000000000000E-01  9.2105228917635E-01  1.1121920484672E+00
    53  5.2000000000000E-01  8.6138299185892E-01  1.1540039590732E+00
    54  5.3000000000000E-01  8.0108768476961E-01  1.1938742897502E+00
    55  5.4000000000000E-01  7.4031297637108E-01  1.2318142086240E+00
    56  5.5000000000000E-01  6.7919892615498E-01  1.2678517423010E+00
    57  5.6000000000000E-01  6.1787993106900E-01  1.3020280379824E+00
    58  5.7000000000000E-01  5.5648578331806E-01  1.3343932604708E+00
    59  5.8000000000000E-01  4.9514286416600E-01  1.3650022212763E+00
    60  5.9000000000000E-01  4.3397543422446E-01  1.3939098461916E+00
    61  6.0000000000000E-01  3.7310697745477E-01  1.4211665945935E+00
    62  6.1000000000000E-01  3.1266155382170E-01  1.4468139481410E+00
    63  6.2000000000000E-01  2.5276511430231E-01  1.4708800883047E+00
    64  6.3000000000000E-01  1.9354673181919E-01  1.4933758811701E+00
    65  6.4000000000000E-01  1.3513970266518E-01  1.5142912841569E+00
    66  6.5000000000000E-01  7.7682475117083E-02  1.5335922827137E+00
    67  6.6000000000000E-01  2.1319365173833E-02  1.5512184557465E+00
    68  6.7000000000000E-01 -3.3798976349668E-02  1.5670812566891E+00
    69  6.8000000000000E-01 -8.7515375864754E-02  1.5810630828998E+00
    70  6.9000000000000E-01 -1.3966625252302E-01  1.5930171897724E+00
    71  7.0000000000000E-01 -1.9008205462377E-01  1.6027684878685E+00
    72  7.1000000000000E-01 -2.3858802680972E-01  1.6101152419020E+00
    73  7.2000000000000E-01 -2.8500530996585E-01  1.6148316699329E+00
    74  7.3000000000000E-01 -3.2915236747597E-01  1.6166714200925E+00
    75  7.4000000000000E-01 -3.7084672313847E-01  1.6153718810385E+00
    76  7.5000000000000E-01 -4.0990698778250E-01  1.6106592615875E+00
    77  7.6000000000000E-01 -4.4615514365361E-01  1.6022543550766E+00
    78  7.7000000000000E-01 -4.7941904814139E-01  1.5898788854301E+00
    79  7.8000000000000E-01 -5.0953511158352E-01  1.5732623150989E+00
    80  7.9000000000000E-01 -5.3635109787106E-01  1.5521489804152E+00
    81  8.0000000000000E-01 -5.5972899155640E-01  1.5263054078416E+00
    82  8.1000000000000E-01 -5.7954787126232E-01  1.4955276554203E+00
    83  8.2000000000000E-01 -5.9570672652411E-01  1.4596485177120E+00
    84  8.3000000000000E-01 -6.0812715385504E-01  1.4185444298711E+00
    85  8.4000000000000E-01 -6.1675586786879E-01  1.3721419073527E+00
    86  8.5000000000000E-01 -6.2156696475223E-01  1.3204233621732E+00
    87  8.6000000000000E-01 -6.2256387826005E-01  1.2634321446081E+00
    88  8.7000000000000E-01 -6.1978097266439E-01  1.2012766706407E+00
    89  8.8000000000000E-01 -6.1328472267980E-01  1.1341335101792E+00
    90  8.9000000000000E-01 -6.0317443719943E-01  1.0622493288074E+00
    91  9.0000000000000E-01 -5.8958249160428E-01  9.8594159630301E-01
    92  9.1000000000000E-01 -5.7267404229216E-01  9.0559799796254E-01
    93  9.2000000000000E-01 -5.5264620674745E-01  8.2167450947928E-01
    94  9.3000000000000E-01 -5.2972670274174E-01  7.3469212223648E-01
    95  9.4000000000000E-01 -5.0417195091266E-01  6.4523223287661E-01
    96  9.5000000000000E-01 -4.7626465579095E-01  5.5393073833215E-01
    97  9.6000000000000E-01 -4.4631089110581E-01  4.6147090457730E-01
    98  9.7000000000000E-01 -4.1463672566644E-01  3.6857510361138E-01
    99  9.8000000000000E-01 -3.8158443606438E-01  2.7599553804074E-01
   100  9.9000000000000E-01 -3.4750836164439E-01  1.8450409553455E-01
   101  1.0000000000000E+00 -3.1277046544410E-01  9.4881495876757E-02
   102  1.0100000000000E+00 -2.7773567191423E-01  7.9059108520045E-03
   103  1.0200000000000E+00 -2.4276705803039E-01 -7.5658748633055E-02
   104  1.0300000000000E+00 -2.0822097874813E-01 -1.5507467333966E-01
   105  1.0400000000000E+00 -1.7444221052478E-01 -2.2964191306774E-01
   106  1.0500000000000E+00 -1.4175919774546E-01 -2.9870983699239E-01
   107  1.0600000000000E+00 -1.1047948629923E-01 -3.6168808536241E-01
   108  1.0700000000000E+00 -8.0885426243121E-02 -4.1805680728777E-01
   109  1.0800000000000E+00 -5.3230221475723E-02 -4.6737598995588E-01
   110  1.0900000000000E+00 -2.7734398706074E-02 -5.0929369928368E-01
   111  1.1000000000000E+00 -4.5827607880761E-03 -5.4355307062491E-01
   112  1.1100000000000E+00  1.6078119102819E-02 -5.6999791019141E-01
   113  1.1200000000000E+00  3.4141815876737E-02 -5.8857679313938E-01
   114  1.1300000000000E+00  4.9543347877139E-02 -5.9934557209971E-01
   115  1.1400000000000E+00  6.2259825368648E-02 -6.0246824000193E-01
   116  1.1500000000000E+00  7.2310440793622E-02 -5.9821612253246E-01
   117  1.1600000000000E+00  7.9755802294024E-02 -5.8696540810654E-01
   118  1.1700000000000E+00  8.4696624930960E-02 -5.6919305588575E-01
   119  1.1800000000000E+00  8.7271806917449E-02 -5.4547115483850E-01
   120  1.1900000000000E+00  8.7655931454026E-02 -5.1645984083807E-01
   121  1.2000000000000E+00  8.6056235480398E-02 -4.8289887281902E-01
   122  1.2100000000000E+00  8.2709047505238E-02 -4.4559783344257E-01
   123  1.2200000000000E+00  7.7873495968005E-02 -4.0541785964039E-01
   124  1.2300000000000E+00  7.1823237134603E-02 -3.6324759897901E-01
   125  1.2400000000000E+00  6.4840641047979E-02 -3.1998762052374E-01
   126  1.2500000000000E+00  5.7211421418560E-02 -2.7653642862333E-01
   127  1.2600000000000E+00  4.9219208805789E-02 -2.3377636433901E-01
   128  1.2700000000000E+00  4.1140169029250E-02 -1.9255966103173E-01
   129  1.2800000000000E+00  3.3237771337032E-02 -1.5369488530736E-01
   130  1.2900000000000E+00  2.5757547802944E-02 -1.1793411151553E-01
   131  1.3000000000000E+00  1.8919711586278E-02 -8.5959938153509E-02
   132  1.3100000000000E+00  1.2920851209212E-02 -5.8374096587699E-02
   133  1.3200000000000E+00  7.9290528089344E-03 -3.5690674888445E-02
   134  1.3300000000000E+00  4.0789311136241E-03 -1.8327914840686E-02
   135  1.3400000000000E+00  1.4665626913461E-03 -6.5904060315881E-03
   136  1.3500000000000E+00  1.7605983536171E-04 -7.9275539422237E-04
   137  1.3600000000000E+00 -1.6398598131849E-05  7.3942577226317E-05
   138  1.3700000000000E+00  2.5434769392974E-06 -1.1454133628943E-05
   139  1.38  0.  0.
   140  1.39  0.  0.
   141  1.40  0.  0.
   142  1.41  0.  0.
   143  1.42  0.  0.
   144  1.43  0.  0.
   145  1.44  0.  0.
   146  1.45  0.  0.
   147  1.46  0.  0.
   148  1.47  0.  0.
   149  1.48  0.  0.
   150  1.49  0.  0.
   151  1.50  0.  0.
   152  1.51  0.  0.
   153  1.52  0.  0.
   154  1.53  0.  0.
   155  1.54  0.  0.
   156  1.55  0.  0.
   157  1.56  0.  0.
   158  1.57  0.  0.
   159  1.58  0.  0.
   160  1.59  0.  0.
   161  1.60  0.  0.
   162  1.61  0.  0.
   163  1.62  0.  0.
   164  1.63  0.  0.
   165  1.64  0.  0.
   166  1.65  0.  0.
   167  1.66  0.  0.
   168  1.67  0.  0.
   169  1.68  0.  0.
   170  1.69  0.  0.
   171  1.70  0.  0.
   172  1.71  0.  0.
   173  1.72  0.  0.
   174  1.73  0.  0.
   175  1.74  0.  0.
   176  1.75  0.  0.
   177  1.76  0.  0.
   178  1.77  0.  0.
   179  1.78  0.  0.
   180  1.79  0.  0.
   181  1.80  0.  0.
   182  1.81  0.  0.
   183  1.82  0.  0.
   184  1.83  0.  0.
   185  1.84  0.  0.
   186  1.85  0.  0.
   187  1.86  0.  0.
   188  1.87  0.  0.
   189  1.88  0.  0.
   190  1.89  0.  0.
   191  1.90  0.  0.
   192  1.91  0.  0.
   193  1.92  0.  0.
   194  1.93  0.  0.
   195  1.94  0.  0.
   196  1.95  0.  0.
   197  1.96  0.  0.
   198  1.97  0.  0.
   199  1.98  0.  0.
   200  1.99  0.  0.
   201  2.00  0.  0.
   202  2.01  0.  0.
   203  2.02  0.  0.
   204  2.03  0.  0.
   205  2.04  0.  0.
   206  2.05  0.  0.
   207  2.06  0.  0.
   208  2.07  0.  0.
   209  2.08  0.  0.
   210  2.09  0.  0.
   211  2.10  0.  0.
   212  2.11  0.  0.
   213  2.12  0.  0.
   214  2.13  0.  0.
   215  2.14  0.  0.
   216  2.15  0.  0.
   217  2.16  0.  0.
   218  2.17  0.  0.
   219  2.18  0.  0.
   220  2.19  0.  0.
   221  2.20  0.  0.
   222  2.21  0.  0.
   223  2.22  0.  0.
   224  2.23  0.  0.
   225  2.24  0.  0.
   226  2.25  0.  0.
   227  2.26  0.  0.
   228  2.27  0.  0.
   229  2.28  0.  0.
   230  2.29  0.  0.
   231  2.30  0.  0.
   232  2.31  0.  0.
   233  2.32  0.  0.
   234  2.33  0.  0.
   235  2.34  0.  0.
   236  2.35  0.  0.
   237  2.36  0.  0.
   238  2.37  0.  0.
   239  2.38  0.  0.
   240  2.39  0.  0.
   241  2.40  0.  0.
   242  2.41  0.  0.
   243  2.42  0.  0.
   244  2.43  0.  0.
   245  2.44  0.  0.
   246  2.45  0.  0.
   247  2.46  0.  0.
   248  2.47  0.  0.
   249  2.48  0.  0.
   250  2.49  0.  0.
   251  2.50  0.  0.
   252  2.51  0.  0.
   253  2.52  0.  0.
   254  2.53  0.  0.
   255  2.54  0.  0.
   256  2.55  0.  0.
   257  2.56  0.  0.
   258  2.57  0.  0.
   259  2.58  0.  0.
   260  2.59  0.  0.
   261  2.60  0.  0.
   262  2.61  0.  0.
   263  2.62  0.  0.
   264  2.63  0.  0.
   265  2.64  0.  0.
   266  2.65  0.  0.
   267  2.66  0.  0.
   268  2.67  0.  0.
   269  2.68  0.  0.
   270  2.69  0.  0.
   271  2.70  0.  0.
   272  2.71  0.  0.
   273  2.72  0.  0.
   274  2.73  0.  0.
   275  2.74  0.  0.
   276  2.75  0.  0.
   277  2.76  0.  0.
   278  2.77  0.  0.
   279  2.78  0.  0.
   280  2.79  0.  0.
   281  2.80  0.  0.
   282  2.81  0.  0.
   283  2.82  0.  0.
   284  2.83  0.  0.
   285  2.84  0.  0.
   286  2.85  0.  0.
   287  2.86  0.  0.
   288  2.87  0.  0.
   289  2.88  0.  0.
   290  2.89  0.  0.
   291  2.90  0.  0.
   292  2.91  0.  0.
   293  2.92  0.  0.
   294  2.93  0.  0.
   295  2.94  0.  0.
   296  2.95  0.  0.
   297  2.96  0.  0.
   298  2.97  0.  0.
   299  2.98  0.  0.
   300  2.99  0.  0.
   301  3.00  0.  0.
   302  3.01  0.  0.
   303  3.02  0.  0.
   304  3.03  0.  0.
   305  3.04  0.  0.
   306  3.05  0.  0.
   307  3.06  0.  0.
   308  3.07  0.  0.
   309  3.08  0.  0.
   310  3.09  0.  0.
   311  3.10  0.  0.
   312  3.11  0.  0.
   313  3.12  0.  0.
   314  3.13  0.  0.
   315  3.14  0.  0.
   316  3.15  0.  0.
   317  3.16  0.  0.
   318  3.17  0.  0.
   319  3.18  0.  0.
   320  3.19  0.  0.
   321  3.20  0.  0.
   322  3.21  0.  0.
   323  3.22  0.  0.
   324  3.23  0.  0.
   325  3.24  0.  0.
   326  3.25  0.  0.
   327  3.26  0.  0.
   328  3.27  0.  0.
   329  3.28  0.  0.
   330  3.29  0.  0.
   331  3.30  0.  0.
   332  3.31  0.  0.
   333  3.32  0.  0.
   334  3.33  0.  0.
   335  3.34  0.  0.
   336  3.35  0.  0.
   337  3.36  0.  0.
   338  3.37  0.  0.
   339  3.38  0.  0.
   340  3.39  0.  0.
   341  3.40  0.  0.
   342  3.41  0.  0.
   343  3.42  0.  0.
   344  3.43  0.  0.
   345  3.44  0.  0.
   346  3.45  0.  0.
   347  3.46  0.  0.
   348  3.47  0.  0.
   349  3.48  0.  0.
   350  3.49  0.  0.
   351  3.50  0.  0.
   352  3.51  0.  0.
   353  3.52  0.  0.
   354  3.53  0.  0.
   355  3.54  0.  0.
   356  3.55  0.  0.
   357  3.56  0.  0.
   358  3.57  0.  0.
   359  3.58  0.  0.
   360  3.59  0.  0.
   361  3.60  0.  0.
   362  3.61  0.  0.
   363  3.62  0.  0.
   364  3.63  0.  0.
   365  3.64  0.  0.
   366  3.65  0.  0.
   367  3.66  0.  0.
   368  3.67  0.  0.
   369  3.68  0.  0.
   370  3.69  0.  0.
   371  3.70  0.  0.
   372  3.71  0.  0.
   373  3.72  0.  0.
   374  3.73  0.  0.
   375  3.74  0.  0.
   376  3.75  0.  0.
   377  3.76  0.  0.
   378  3.77  0.  0.
   379  3.78  0.  0.
   380  3.79  0.  0.
   381  3.80  0.  0.
   382  3.81  0.  0.
   383  3.82  0.  0.
   384  3.83  0.  0.
   385  3.84  0.  0.
   386  3.85  0.  0.
   387  3.86  0.  0.
   388  3.87  0.  0.
   389  3.88  0.  0.
   390  3.89  0.  0.
   391  3.90  0.  0.
   392  3.91  0.  0.
   393  3.92  0.  0.
   394  3.93  0.  0.
   395  3.94  0.  0.
   396  3.95  0.  0.
   397  3.96  0.  0.
   398  3.97  0.  0.
   399  3.98  0.  0.
   400  3.99  0.  0.
   401  4.00  0.  0.
   402  4.01  0.  0.
   403  4.02  0.  0.
   404  4.03  0.  0.
   405  4.04  0.  0.
   406  4.05  0.  0.
   407  4.06  0.  0.
   408  4.07  0.  0.
   409  4.08  0.  0.
   410  4.09  0.  0.
   411  4.10  0.  0.
   412  4.11  0.  0.
   413  4.12  0.  0.
   414  4.13  0.  0.
   415  4.14  0.  0.
   416  4.15  0.  0.
   417  4.16  0.  0.
   418  4.17  0.  0.
   419  4.18  0.  0.
   420  4.19  0.  0.
   421  4.20  0.  0.
   422  4.21  0.  0.
   423  4.22  0.  0.
   424  4.23  0.  0.
   425  4.24  0.  0.
   426  4.25  0.  0.
   427  4.26  0.  0.
   428  4.27  0.  0.
   429  4.28  0.  0.
   430  4.29  0.  0.
   431  4.30  0.  0.
   432  4.31  0.  0.
   433  4.32  0.  0.
   434  4.33  0.  0.
   435  4.34  0.  0.
   436  4.35  0.  0.
   437  4.36  0.  0.
   438  4.37  0.  0.
   439  4.38  0.  0.
   440  4.39  0.  0.
   441  4.40  0.  0.
   442  4.41  0.  0.
   443  4.42  0.  0.
   444  4.43  0.  0.
   445  4.44  0.  0.
   446  4.45  0.  0.
   447  4.46  0.  0.
   448  4.47  0.  0.
   449  4.48  0.  0.
   450  4.49  0.  0.
   451  4.50  0.  0.
   452  4.51  0.  0.
   453  4.52  0.  0.
   454  4.53  0.  0.
   455  4.54  0.  0.
   456  4.55  0.  0.
   457  4.56  0.  0.
   458  4.57  0.  0.
   459  4.58  0.  0.
   460  4.59  0.  0.
   461  4.60  0.  0.
   462  4.61  0.  0.
   463  4.62  0.  0.
   464  4.63  0.  0.
   465  4.64  0.  0.
   466  4.65  0.  0.
   467  4.66  0.  0.
   468  4.67  0.  0.
   469  4.68  0.  0.
   470  4.69  0.  0.
   471  4.70  0.  0.
   472  4.71  0.  0.
   473  4.72  0.  0.
   474  4.73  0.  0.
   475  4.74  0.  0.
   476  4.75  0.  0.
   477  4.76  0.  0.
   478  4.77  0.  0.
   479  4.78  0.  0.
   480  4.79  0.  0.
   481  4.80  0.  0.
   482  4.81  0.  0.
   483  4.82  0.  0.
   484  4.83  0.  0.
   485  4.84  0.  0.
   486  4.85  0.  0.
   487  4.86  0.  0.
   488  4.87  0.  0.
   489  4.88  0.  0.
   490  4.89  0.  0.
   491  4.90  0.  0.
   492  4.91  0.  0.
   493  4.92  0.  0.
   494  4.93  0.  0.
   495  4.94  0.  0.
   496  4.95  0.  0.
   497  4.96  0.  0.
   498  4.97  0.  0.
   499  4.98  0.  0.
   500  4.99  0.  0.
   501  5.00  0.  0.
   502  5.01  0.  0.
   503  5.02  0.  0.
   504  5.03  0.  0.
   505  5.04  0.  0.
   506  5.05  0.  0.
   507  5.06  0.  0.
   508  5.07  0.  0.
   509  5.08  0.  0.
   510  5.09  0.  0.
   511  5.10  0.  0.
   512  5.11  0.  0.
   513  5.12  0.  0.
   514  5.13  0.  0.
   515  5.14  0.  0.
   516  5.15  0.  0.
   517  5.16  0.  0.
   518  5.17  0.  0.
   519  5.18  0.  0.
   520  5.19  0.  0.
   521  5.20  0.  0.
   522  5.21  0.  0.
   523  5.22  0.  0.
   524  5.23  0.  0.
   525  5.24  0.  0.
   526  5.25  0.  0.
   527  5.26  0.  0.
   528  5.27  0.  0.
   529  5.28  0.  0.
   530  5.29  0.  0.
   531  5.30  0.  0.
   532  5.31  0.  0.
   533  5.32  0.  0.
   534  5.33  0.  0.
   535  5.34  0.  0.
   536  5.35  0.  0.
   537  5.36  0.  0.
   538  5.37  0.  0.
   539  5.38  0.  0.
   540  5.39  0.  0.
   541  5.40  0.  0.
   542  5.41  0.  0.
   543  5.42  0.  0.
   544  5.43  0.  0.
   545  5.44  0.  0.
   546  5.45  0.  0.
   547  5.46  0.  0.
   548  5.47  0.  0.
   549  5.48  0.  0.
   550  5.49  0.  0.
   551  5.50  0.  0.
   552  5.51  0.  0.
   553  5.52  0.  0.
   554  5.53  0.  0.
   555  5.54  0.  0.
   556  5.55  0.  0.
   557  5.56  0.  0.
   558  5.57  0.  0.
   559  5.58  0.  0.
   560  5.59  0.  0.
   561  5.60  0.  0.
   562  5.61  0.  0.
   563  5.62  0.  0.
   564  5.63  0.  0.
   565  5.64  0.  0.
   566  5.65  0.  0.
   567  5.66  0.  0.
   568  5.67  0.  0.
   569  5.68  0.  0.
   570  5.69  0.  0.
   571  5.70  0.  0.
   572  5.71  0.  0.
   573  5.72  0.  0.
   574  5.73  0.  0.
   575  5.74  0.  0.
   576  5.75  0.  0.
   577  5.76  0.  0.
   578  5.77  0.  0.
   579  5.78  0.  0.
   580  5.79  0.  0.
   581  5.80  0.  0.
   582  5.81  0.  0.
   583  5.82  0.  0.
   584  5.83  0.  0.
   585  5.84  0.  0.
   586  5.85  0.  0.
   587  5.86  0.  0.
   588  5.87  0.  0.
   589  5.88  0.  0.
   590  5.89  0.  0.
   591  5.90  0.  0.
   592  5.91  0.  0.
   593  5.92  0.  0.
   594  5.93  0.  0.
   595  5.94  0.  0.
   596  5.95  0.  0.
   597  5.96  0.  0.
   598  5.97  0.  0.
   599  5.98  0.  0.
   600  5.99  0.  0.
   1                        -4.7302542844568E+00 -1.1183819704225E+00
     1  0.0000000000000E+00 -2.9092670217334E-09  7.0434615570547E-09
     2  1.0000000000000E-02  2.0615620304450E-03 -8.5669180050231E-04
     3  2.0000000000000E-02  8.2382871722950E-03 -3.4233432230375E-03
     4  3.0000000000000E-02  1.8506266140331E-02 -7.6895665910385E-03
     5  4.0000000000000E-02  3.2825563867746E-02 -1.3637667788109E-02
     6  5.0000000000000E-02  5.1140096591870E-02 -2.1242089820579E-02
     7  6.0000000000000E-02  7.3377472530929E-02 -3.0468664455919E-02
     8  7.0000000000000E-02  9.9448808472422E-02 -4.1273701571761E-02
     9  8.0000000000000E-02  1.2924853750305E-01 -5.3602952893778E-02
    10  9.0000000000000E-02  1.6265422558245E-01 -6.7390492827120E-02
    11  1.0000000000000E-01  1.9952641662424E-01 -8.2557563921279E-02
    12  1.1000000000000E-01  2.3970852713640E-01 -9.9011438011846E-02
    13  1.2000000000000E-01  2.8302681224202E-01 -1.1664434614267E-01
    14  1.3000000000000E-01  3.2929042501979E-01 -1.3533253092066E-01
    15  1.4000000000000E-01  3.7829159055651E-01 -1.5493547395567E-01
    16  1.5000000000000E-01  4.2980591489283E-01 -1.7529534849773E-01
    17  1.6000000000000E-01  4.8359284718973E-01 -1.9623674334990E-01
    18  1.7000000000000E-01  5.3939631097969E-01 -2.1756669868969E-01
    19  1.8000000000000E-01  5.9694551734857E-01 -2.3907508770094E-01
    20  1.9000000000000E-01  6.5595596938482E-01 -2.6053537005231E-01
    21  2.0000000000000E-01  7.1613066331486E-01 -2.8170573445027E-01
    22  2.1000000000000E-01  7.7716148750546E-01 -3.0233063795128E-01
    23  2.2000000000000E-01  8.3873081605822E-01 -3.2214273967710E-01
    24  2.3000000000000E-01  9.0051328915384E-01 -3.4086521628655E-01
    25  2.4000000000000E-01  9.6217776773579E-01 -3.5821443627530E-01
    26  2.5000000000000E-01  1.0233894456685E+00 -3.7390296016481E-01
    27  2.6000000000000E-01  1.0838120982748E+00 -3.8764282416062E-01
    28  2.7000000000000E-01  1.1431104422595E+00 -3.9914905615741E-01
    29  2.8000000000000E-01  1.2009525785625E+00 -4.0814336527718E-01
    30  2.9000000000000E-01  1.2570124867469E+00 -4.1435793965777E-01
    31  3.0000000000000E-01  1.3109725371979E+00 -4.1753928214681E-01
    32  3.1000000000000E-01  1.3625259857526E+00 -4.1745201005204E-01
    33  3.2000000000000E-01  1.4113794144520E+00 -4.1388254326867E-01
    34  3.3000000000000E-01  1.4572550819422E+00 -4.0664260502576E-01
    35  3.4000000000000E-01  1.4998931476660E+00 -3.9557246119959E-01
    36  3.5000000000000E-01  1.5390537353824E+00 -3.8054382762616E-01
    37  3.6000000000000E-01  1.5745188037114E+00 -3.6146238005550E-01
    38  3.7000000000000E-01  1.6060937942801E+00 -3.3826980823290E-01
    39  3.8000000000000E-01  1.6336090316052E+00 -3.1094536393287E-01
    40  3.9000000000000E-01  1.6569208529960E+00 -2.7950686243722E-01
    41  4.0000000000000E-01  1.6759124514313E+00 -2.4401110773196E-01
    42  4.1000000000000E-01  1.6904944194442E+00 -2.0455372336215E-01
    43  4.2000000000000E-01  1.7006049874389E+00 -1.6126838316777E-01
    44  4.3000000000000E-01  1.7062099554338E+00 -1.1432544874737E-01
    45  4.4000000000000E-01  1.7073023228670E+00 -6.3930033166935E-02
    46  4.5000000000000E-01  1.7039016266728E+00 -1.0319522852987E-02
    47  4.6000000000000E-01  1.6960530032228E+00  4.6239398515347E-02
    48  4.7000000000000E-01  1.6838259947973E+00  1.0545416925659E-01
    49  4.8000000000000E-01  1.6673131258930E+00  1.6701014727944E-01
    50  4.9000000000000E-01  1.6466282787781E+00  2.3057471262794E-01
    51  5.0000000000000E-01  1.6219049011697E+00  2.9580159457009E-01
    52  5.1000000000000E-01  1.5932940816580E+00  3.6233533755876E-01
    53  5.2000000000000E-01  1.5609625304657E+00  4.2981581703331E-01
    54  5.3000000000000E-01  1.5250905042581E+00  4.9788271467728E-01
    55  5.4000000000000E-01  1.4858697139808E+00  5.6617986345699E-01
    56  5.5000000000000E-01  1.4435012540942E+00  6.3435937554825E-01
    57  5.6000000000000E-01  1.3981935900942E+00  7.0208547107368E-01
    58  5.7000000000000E-01  1.3501606389002E+00  7.6903793233297E-01
    59  5.8000000000000E-01  1.2996199735979E+00  8.3491511677738E-01
    60  5.9000000000000E-01  1.2467911802165E+00  8.9943647217797E-01
    61  6.0000000000000E-01  1.1918943897881E+00  9.6234450904350E-01
    62  6.1000000000000E-01  1.1351490039765E+00  1.0234061981011E+00
    63  6.2000000000000E-01  1.0767726272008E+00  1.0824137742741E+00
    64  6.3000000000000E-01  1.0169802125248E+00  1.1391849427631E+00
    65  6.4000000000000E-01  9.5598342279570E-01  1.1935624972292E+00
    66  6.5000000000000E-01  8.9399020270678E-01  1.2454133743568E+00
    67  6.6000000000000E-01  8.3120455179182E-01  1.2946271828890E+00
    68  6.7000000000000E-01  7.6782648295905E-01  1.3411142582555E+00
    69  6.8000000000000E-01  7.0405214618067E-01  1.3848033058231E+00
    70  6.9000000000000E-01  6.4007409249187E-01  1.4256387062975E+00
    71  7.0000000000000E-01  5.7608164963738E-01  1.4635775656202E+00
    72  7.1000000000000E-01  5.1226137763297E-01  1.4985865986033E+00
    73  7.2000000000000E-01  4.4879757026681E-01  1.5306389403352E+00
    74  7.3000000000000E-01  3.8587276721707E-01  1.5597109819261E+00
    75  7.4000000000000E-01  3.2366824104845E-01  1.5857793273516E+00
    76  7.5000000000000E-01  2.6236442389648E-01  1.6088179659527E+00
    77  7.6000000000000E-01  2.0214124015031E-01  1.6287957505780E+00
    78  7.7000000000000E-01  1.4317831388007E-01  1.6456742644859E+00
    79  7.8000000000000E-01  8.5655023075780E-02  1.6594061510754E+00
    80  7.9000000000000E-01  2.9750376902813E-02  1.6699339694802E+00
    81  8.0000000000000E-01 -2.4357302955499E-02  1.6771896262592E+00
    82  8.1000000000000E-01 -7.6490910313327E-02  1.6810944191300E+00
    83  8.2000000000000E-01 -1.2647529932217E-01  1.6815597132318E+00
    84  8.3000000000000E-01 -1.7413824726747E-01  1.6784882541183E+00
    85  8.4000000000000E-01 -2.1931162991426E-01  1.6717761049450E+00
    86  8.5000000000000E-01 -2.6183279740515E-01  1.6613151785120E+00
    87  8.6000000000000E-01 -3.0154613223662E-01  1.6469963183569E+00
    88  8.7000000000000E-01 -3.3830476463508E-01  1.6287128673561E+00
    89  8.8000000000000E-01 -3.7197241487937E-01  1.6063646476737E+00
    90  8.9000000000000E-01 -4.0242532692214E-01  1.5798622627616E+00
    91  9.0000000000000E-01 -4.2955425318684E-01  1.5491316208063E+00
    92  9.1000000000000E-01 -4.5326644678559E-01  1.5141185698312E+00
    93  9.2000000000000E-01 -4.7348761472285E-01  1.4747935278721E+00
    94  9.3000000000000E-01 -4.9016378400758E-01  1.4311559874416E+00
    95  9.4000000000000E-01 -5.0326303205783E-01  1.3832387720488E+00
    96  9.5000000000000E-01 -5.1277703338549E-01  1.3311119239397E+00
    97  9.6000000000000E-01 -5.1872237631119E-01  1.2748861064876E+00
    98  9.7000000000000E-01 -5.2114160636706E-01  1.2147154117754E+00
    99  9.8000000000000E-01 -5.2010395706101E-01  1.1507994737554E+00
   100  9.9000000000000E-01 -5.1570573373594E-01  1.0833847998015E+00
   101  1.0000000000000E+00 -5.0807032226915E-01  1.0127652482367E+00
   102  1.0100000000000E+00 -4.9734780121173E-01  9.3928159626489E-01
   103  1.0200000000000E+00 -4.8371414353080E-01  8.6332016132089E-01
   104  1.0300000000000E+00 -4.6737000223228E-01  7.8531045878523E-01
   105  1.0400000000000E+00 -4.4853908264325E-01  7.0572189988873E-01
   106  1.0500000000000E+00 -4.2746611285052E-01  6.2505955502834E-01
   107  1.0600000000000E+00 -4.0441443251523E-01  5.4385902911733E-01
   108  1.0700000000000E+00 -3.7966322884807E-01  4.6268051659114E-01
   109  1.0800000000000E+00 -3.5350445673091E-01  3.8210212378434E-01
   110  1.0900000000000E+00 -3.2623948761008E-01  3.0271256509681E-01
   111  1.1000000000000E+00 -2.9817553872736E-01  2.2510335634164E-01
   112  1.1100000000000E+00 -2.6962194027287E-01  1.4986064336831E-01
   113  1.1200000000000E+00 -2.4088630305543E-01  7.7556816274228E-02
   114  1.1300000000000E+00 -2.1227065310734E-01  8.7420688104153E-03
   115  1.1400000000000E+00 -1.8406760220956E-01 -5.6063931198095E-02
   116  1.1500000000000E+00 -1.5655662453386E-01 -1.1638009171762E-01
   117  1.1600000000000E+00 -1.3000050941373E-01 -1.7177149850149E-01
   118  1.1700000000000E+00 -1.0464205865631E-01 -2.2185640507248E-01
   119  1.1800000000000E+00 -8.0701093779377E-02 -2.6631245405956E-01
   120  1.1900000000000E+00 -5.8371834522937E-02 -3.0488198285409E-01
   121  1.2000000000000E+00 -3.7820700110598E-02 -3.3737629561764E-01
   122  1.2100000000000E+00 -1.9184559319574E-02 -3.6367886876057E-01
   123  1.2200000000000E+00 -2.5686220966155E-03 -3.8375044299371E-01
   124  1.2300000000000E+00  1.1955761118633E-02 -3.9763487791513E-01
   125  1.2400000000000E+00  2.4351747761602E-02 -4.0545985430228E-01
   126  1.2500000000000E+00  3.4616859183612E-02 -4.0743537553814E-01
   127  1.2600000000000E+00  4.2782264199949E-02 -4.0385089110065E-01
   128  1.2700000000000E+00  4.8911497854115E-02 -3.9507106234514E-01
   129  1.2800000000000E+00  5.3098636024141E-02 -3.8153022505066E-01
   130  1.2900000000000E+00  5.5465956410541E-02 -3.6372562687876E-01
   131  1.3000000000000E+00  5.6161126429974E-02 -3.4220954234922E-01
   132  1.3100000000000E+00  5.5353967747921E-02 -3.1758039039481E-01
   133  1.3200000000000E+00  5.3232855500563E-02 -2.9047299981798E-01
   134  1.3300000000000E+00  5.0000817533478E-02 -2.6154818567432E-01
   135  1.3400000000000E+00  4.5871405071541E-02 -2.3148181438149E-01
   136  1.3500000000000E+00  4.1064410949402E-02 -2.0095354675490E-01
   137  1.3600000000000E+00  3.5801513368152E-02 -1.7063545323884E-01
   138  1.3700000000000E+00  3.0301939477861E-02 -1.4118072812455E-01
   139  1.3800000000000E+00  2.4778174270560E-02 -1.1321259547655E-01
   140  1.3900000000000E+00  1.9433332308436E-02 -8.7316609996473E-02
   141  1.4000000000000E+00  1.4457559146415E-02 -6.4031349694204E-02
   142  1.4100000000000E+00  1.0017881498571E-02 -4.3826327693297E-02
   143  1.4200000000000E+00  6.2601491029316E-03 -2.7103794360165E-02
   144  1.4300000000000E+00  3.3064747703542E-03 -1.4192211281975E-02