O     ONCVPSP-4.0.1  r_core=   1.35246   1.45312   1.25127
      8.0000      6.0000      231019    zatom,zion,pspd
     8       2   2     4   600     0    pspcod,pspxc,lmax,lloc,mmax,r2well
  5.99000000  4.00000000  0.00000000    rchrg fchrg qchrg
     2     2     1     0     0    nproj
     1     1           extension_switch
   0                         5.9120824648755E+00  7.7971245426408E-01
     1  0.0000000000000E+00  2.6251830709256E-09 -5.7979174516998E-09
     2  1.0000000000000E-02  9.0839786761114E-02 -2.6168352957162E-02
     3  2.0000000000000E-02  1.8143003007816E-01 -5.2136712495504E-02
     4  3.0000000000000E-02  2.7152139108242E-01 -7.7704856259995E-02
     5  4.0000000000000E-02  3.6086496117823E-01 -1.0267214994344E-01
     6  5.0000000000000E-02  4.4921252928219E-01 -1.2683745455474E-01
     7  6.0000000000000E-02  5.3631690963583E-01 -1.4999916526594E-01
     8  7.0000000000000E-02  6.2193234718989E-01 -1.7195541863647E-01
     9  8.0000000000000E-02  7.0581501493317E-01 -1.9250449921479E-01
    10  9.0000000000000E-02  7.8772361439389E-01 -2.1144546958152E-01
    11  1.0000000000000E-01  8.6742008696231E-01 -2.2857904001788E-01
    12  1.1000000000000E-01  9.4467043976775E-01 -2.4370868538319E-01
    13  1.2000000000000E-01  1.0192456857000E+00 -2.5664200770896E-01
    14  1.3000000000000E-01  1.0909228929068E+00 -2.6719233372557E-01
    15  1.4000000000000E-01  1.1594863348489E+00 -2.7518052729935E-01
    16  1.5000000000000E-01  1.2247287278644E+00 -2.8043698784369E-01
    17  1.6000000000000E-01  1.2864525393133E+00 -2.8280379744167E-01
    18  1.7000000000000E-01  1.3444713458424E+00 -2.8213697193395E-01
    19  1.8000000000000E-01  1.3986112182429E+00 -2.7830876481428E-01
    20  1.9000000000000E-01  1.4487121068592E+00 -2.7120996764663E-01
    21  2.0000000000000E-01  1.4946291996263E+00 -2.6075214704493E-01
    22  2.1000000000000E-01  1.5362342236331E+00 -2.4686975618133E-01
    23  2.2000000000000E-01  1.5734166606735E+00 -2.2952205840775E-01
    24  2.3000000000000E-01  1.6060848475891E+00 -2.0869480194555E-01
    25  2.4000000000000E-01  1.6341669333315E+00 -1.8440158772698E-01
    26  2.5000000000000E-01  1.6576116665731E+00 -1.5668487732403E-01
    27  2.6000000000000E-01  1.6763889903311E+00 -1.2561659439018E-01
    28  2.7000000000000E-01  1.6904904234064E+00 -9.1298281041120E-02
    29  2.8000000000000E-01  1.6999292123858E+00 -5.3860779939135E-02
    30  2.9000000000000E-01  1.7047402424458E+00 -1.3463423314723E-02
    31  3.0000000000000E-01  1.7049797001151E+00  2.9707278487290E-02
    32  3.1000000000000E-01  1.7007244863890E+00  7.5439444382946E-02
    33  3.2000000000000E-01  1.6920713840184E+00  1.2349810900460E-01
    34  3.3000000000000E-01  1.6791359882898E+00  1.7362795909920E-01
    35  3.4000000000000E-01  1.6620514160231E+00  2.2555647874136E-01
    36  3.5000000000000E-01  1.6409668127213E+00  2.7899745086447E-01
    37  3.6000000000000E-01  1.6160456826606E+00  3.3365475217538E-01
    38  3.7000000000000E-01  1.5874640710917E+00  3.8922636929991E-01
    39  3.8000000000000E-01  1.5554086315134E+00  4.4540855627809E-01
    40  3.9000000000000E-01  1.5200746140660E+00  5.0190004752458E-01
    41  4.0000000000000E-01  1.4816638133925E+00  5.5840623629069E-01
    42  4.1000000000000E-01  1.4403825157474E+00  6.1464322666568E-01
    43  4.2000000000000E-01  1.3964394856476E+00  6.7034166734555E-01
    44  4.3000000000000E-01  1.3500440319254E+00  7.2525027783276E-01
    45  4.4000000000000E-01  1.3014041916436E+00  7.7913898241380E-01
    46  4.5000000000000E-01  1.2507250679934E+00  8.3180157414128E-01
    47  4.6000000000000E-01  1.1982073550377E+00  8.8305784001460E-01
    48  4.7000000000000E-01  1.1440460780580E+00  9.3275508944832E-01
    49  4.8000000000000E-01  1.0884295733911E+00  9.8076904072838E-01
    50  4.9000000000000E-01  1.0315387260959E+00  1.0270040342240E+00
    51  5.0000000000000E-01  9.7354647770174E-01  1.0713925563487E+00
    52  5.1000000000000E-01  9.1461760978815E-01  1.1138940743106E+00
    53  5.2000000000000E-01  8.5490880237463E-01  1.1544931981992E+00
    54  5.3000000000000E-01  7.9456895922749E-01  1.1931972035379E+00
    55  5.4000000000000E-01  7.3373978536965E-01  1.2300329636965E+00
    56  5.5000000000000E-01  6.7255659548166E-01  1.2650433571084E+00
    57  5.6000000000000E-01  6.1114932566837E-01  1.2982832286875E+00
    58  5.7000000000000E-01  5.4964371539324E-01  1.3298149978129E+00
    59  5.8000000000000E-01  4.8816262139907E-01  1.3597040164048E+00
    60  5.9000000000000E-01  4.2682742127501E-01  1.3880137896383E+00
    61  6.0000000000000E-01  3.6575946111209E-01  1.4148011784653E+00
    62  6.1000000000000E-01  3.0508149951093E-01  1.4401117071161E+00
    63  6.2000000000000E-01  2.4491909914279E-01  1.4639750999769E+00
    64  6.3000000000000E-01  1.8540191716697E-01  1.4864011705730E+00
    65  6.4000000000000E-01  1.2666484710002E-01  1.5073761808052E+00
    66  6.5000000000000E-01  6.8848967213040E-02  1.5268597811076E+00
    67  6.6000000000000E-01  1.2102254167982E-02  1.5447826319233E+00
    68  6.7000000000000E-01 -4.3419974660256E-02  1.5610447939883E+00
    69  6.8000000000000E-01 -9.7554920983072E-02  1.5755149596082E+00
    70  6.9000000000000E-01 -1.5013249167601E-01  1.5880305796842E+00
    71  7.0000000000000E-01 -2.0097582787397E-01  1.5983989220531E+00
    72  7.1000000000000E-01 -2.4990218579066E-01  1.6063990761280E+00
    73  7.2000000000000E-01 -2.9672416949353E-01  1.6117848973023E+00
    74  7.3000000000000E-01 -3.4125130713404E-01  1.6142888625731E+00
    75  7.4000000000000E-01 -3.8329195333847E-01  1.6136267868315E+00
    76  7.5000000000000E-01 -4.2265549181060E-01  1.6095033277531E+00
    77  7.6000000000000E-01 -4.5915480388338E-01  1.6016181867062E+00
    78  7.7000000000000E-01 -4.9260896098228E-01  1.5896728940462E+00
    79  7.8000000000000E-01 -5.2284609191765E-01  1.5733780500590E+00
    80  7.9000000000000E-01 -5.4970636978492E-01  1.5524608780739E+00
    81  8.0000000000000E-01 -5.7304505818043E-01  1.5266729342728E+00
    82  8.1000000000000E-01 -5.9273555257654E-01  1.4957978098130E+00
    83  8.2000000000000E-01 -6.0867235015880E-01  1.4596586553197E+00
    84  8.3000000000000E-01 -6.2077388029717E-01  1.4181253558005E+00
    85  8.4000000000000E-01 -6.2898512816282E-01  1.3711211857037E+00
    86  8.5000000000000E-01 -6.3327998583617E-01  1.3186287792497E+00
    87  8.6000000000000E-01 -6.3366326857687E-01  1.2606952602583E+00
    88  8.7000000000000E-01 -6.3017233870155E-01  1.1974363883778E+00
    89  8.8000000000000E-01 -6.2287828566854E-01  1.1290395946881E+00
    90  8.9000000000000E-01 -6.1188661839708E-01  1.0557657988310E+00
    91  9.0000000000000E-01 -5.9733743441628E-01  9.7794992176941E-01
    92  9.1000000000000E-01 -5.7940503998703E-01  8.9600003258324E-01
    93  9.2000000000000E-01 -5.5829700567899E-01  8.1039509389883E-01
    94  9.3000000000000E-01 -5.3425265281120E-01  7.2168129809898E-01
    95  9.4000000000000E-01 -5.0754097745369E-01  6.3046701481966E-01
    96  9.5000000000000E-01 -4.7845803010351E-01  5.3741639880941E-01
    97  9.6000000000000E-01 -4.4732378045174E-01  4.4324173541619E-01
    98  9.7000000000000E-01 -4.1447850760298E-01  3.4869462816444E-01
    99  9.8000000000000E-01 -3.8027876645516E-01  2.5455615849667E-01
   100  9.9000000000000E-01 -3.4509299046928E-01  1.6162617122462E-01
   101  1.0000000000000E+00 -3.0929679953180E-01  7.0711860011301E-02
   102  1.0100000000000E+00 -2.7326808884353E-01 -1.7384155182162E-02
   103  1.0200000000000E+00 -2.3738198058442E-01 -1.0187605272708E-01
   104  1.0300000000000E+00 -2.0200572435570E-01 -1.8200711999913E-01
   105  1.0400000000000E+00 -1.6749363497072E-01 -2.5706192820564E-01
   106  1.0500000000000E+00 -1.3418215698150E-01 -3.2637814803113E-01
   107  1.0600000000000E+00 -1.0238514433117E-01 -3.8935778584360E-01
   108  1.0700000000000E+00 -7.2389440722111E-02 -4.4547762777965E-01
   109  1.0800000000000E+00 -4.4450841698101E-02 -4.9429869105888E-01
   110  1.0900000000000E+00 -1.8790513140036E-02 -5.3547449814522E-01
   111  1.1000000000000E+00  4.4080670251664E-03 -5.6875800960192E-01
   112  1.1100000000000E+00  2.5001586491964E-02 -5.9400707539171E-01
   113  1.1200000000000E+00  4.2888748846162E-02 -6.1118829134149E-01
   114  1.1300000000000E+00  5.8011461458360E-02 -6.2037917729669E-01
   115  1.1400000000000E+00  7.0355338588907E-02 -6.2176862516323E-01
   116  1.1500000000000E+00  7.9949510583419E-02 -6.1565559845635E-01
   117  1.1600000000000E+00  8.6865743557449E-02 -6.0244609890233E-01
   118  1.1700000000000E+00  9.1216887694989E-02 -5.8264845002114E-01
   119  1.1800000000000E+00  9.3154685689681E-02 -5.5686698113401E-01
   120  1.1900000000000E+00  9.2866986065658E-02 -5.2579422832667E-01
   121  1.2000000000000E+00  9.0574416863186E-02 -4.9020179466361E-01
   122  1.2100000000000E+00  8.6526594928331E-02 -4.5093006711007E-01
   123  1.2200000000000E+00  8.0997138701803E-02 -4.0887442061047E-01
   124  1.2300000000000E+00  7.4275116923864E-02 -3.6496052815176E-01
   125  1.2400000000000E+00  6.6657518090001E-02 -3.2012351223974E-01
   126  1.2500000000000E+00  5.8443556234959E-02 -2.7529318587605E-01
   127  1.2600000000000E+00  4.9928976354147E-02 -2.3137934966228E-01
   128  1.2700000000000E+00  4.1400434303822E-02 -1.8925733792865E-01
   129  1.2800000000000E+00  3.3130077845341E-02 -1.4975401810675E-01
   130  1.2900000000000E+00  2.5369679830654E-02 -1.1363464478726E-01
   131  1.3000000000000E+00  1.8343867691005E-02 -8.1589328157018E-02
   132  1.3100000000000E+00  1.2252493453917E-02 -5.4221942157745E-02
   133  1.3200000000000E+00  7.2636716012086E-03 -3.2043395560352E-02
   134  1.3300000000000E+00  3.5103672623717E-03 -1.5465598453511E-02
   135  1.3400000000000E+00  1.0787987490012E-03 -4.7551606179159E-03
   136  1.3500000000000E+00  6.3681313876292E-05 -2.8136293764336E-04
   137  1.3600000000000E+00 -3.3119366137393E-06  1.4646668959218E-05
   138  1.3700000000000E+00 -6.2957427683043E-07  2.7774314547069E-06
   139  1.38 -0.  0.
   140  1.39  0.  0.
   141  1.40  0.  0.
   142  1.41  0.  0.
   143  1.42  0.  0.
   144  1.43  0.  0.
   145  1.44  0.  0.
   146  1.45  0.  0.
   147  1.46  0.  0.
   148  1.47  0.  0.
   149  1.48  0.  0.
   150  1.49  0.  0.
   151  1.50  0.  0.
   152  1.51  0.  0.
   153  1.52  0.  0.
   154  1.53  0.  0.
   155  1.54  0.  0.
   156  1.55  0.  0.
   157  1.56  0.  0.
   158  1.57  0.  0.
   159  1.58  0.  0.
   160  1.59  0.  0.
   161  1.60  0.  0.
   162  1.61  0.  0.
   163  1.62  0.  0.
   164  1.63  0.  0.
   165  1.64  0.  0.
   166  1.65  0.  0.
   167  1.66  0.  0.
   168  1.67  0.  0.
   169  1.68  0.  0.
   170  1.69  0.  0.
   171  1.70  0.  0.
   172  1.71  0.  0.
   173  1.72  0.  0.
   174  1.73  0.  0.
   175  1.74  0.  0.
   176  1.75  0.  0.
   177  1.76  0.  0.
   178  1.77  0.  0.
   179  1.78  0.  0.
   180  1.79  0.  0.
   181  1.80  0.  0.
   182  1.81  0.  0.
   183  1.82  0.  0.
   184  1.83  0.  0.
   185  1.84  0.  0.
   186  1.85  0.  0.
   187  1.86  0.  0.
   188  1.87  0.  0.
   189  1.88  0.  0.
   190  1.89  0.  0.
   191  1.90  0.  0.
   192  1.91  0.  0.
   193  1.92  0.  0.
   194  1.93  0.  0.
   195  1.94  0.  0.
   196  1.95  0.  0.
   197  1.96  0.  0.
   198  1.97  0.  0.
   199  1.98  0.  0.
   200  1.99  0.  0.
   201  2.00  0.  0.
   202  2.01  0.  0.
   203  2.02  0.  0.
   204  2.03  0.  0.
   205  2.04  0.  0.
   206  2.05  0.  0.
   207  2.06  0.  0.
   208  2.07  0.  0.
   209  2.08  0.  0.
   210  2.09  0.  0.
   211  2.10  0.  0.
   212  2.11  0.  0.
   213  2.12  0.  0.
   214  2.13  0.  0.
   215  2.14  0.  0.
   216  2.15  0.  0.
   217  2.16  0.  0.
   218  2.17  0.  0.
   219  2.18  0.  0.
   220  2.19  0.  0.
   221  2.20  0.  0.
   222  2.21  0.  0.
   223  2.22  0.  0.
   224  2.23  0.  0.
   225  2.24  0.  0.
   226  2.25  0.  0.
   227  2.26  0.  0.
   228  2.27  0.  0.
   229  2.28  0.  0.
   230  2.29  0.  0.
   231  2.30  0.  0.
   232  2.31  0.  0.
   233  2.32  0.  0.
   234  2.33  0.  0.
   235  2.34  0.  0.
   236  2.35  0.  0.
   237  2.36  0.  0.
   238  2.37  0.  0.
   239  2.38  0.  0.
   240  2.39  0.  0.
   241  2.40  0.  0.
   242  2.41  0.  0.
   243  2.42  0.  0.
   244  2.43  0.  0.
   245  2.44  0.  0.
   246  2.45  0.  0.
   247  2.46  0.  0.
   248  2.47  0.  0.
   249  2.48  0.  0.
   250  2.49  0.  0.
   251  2.50  0.  0.
   252  2.51  0.  0.
   253  2.52  0.  0.
   254  2.53  0.  0.
   255  2.54  0.  0.
   256  2.55  0.  0.
   257  2.56  0.  0.
   258  2.57  0.  0.
   259  2.58  0.  0.
   260  2.59  0.  0.
   261  2.60  0.  0.
   262  2.61  0.  0.
   263  2.62  0.  0.
   264  2.63  0.  0.
   265  2.64  0.  0.
   266  2.65  0.  0.
   267  2.66  0.  0.
   268  2.67  0.  0.
   269  2.68  0.  0.
   270  2.69  0.  0.
   271  2.70  0.  0.
   272  2.71  0.  0.
   273  2.72  0.  0.
   274  2.73  0.  0.
   275  2.74  0.  0.
   276  2.75  0.  0.
   277  2.76  0.  0.
   278  2.77  0.  0.
   279  2.78  0.  0.
   280  2.79  0.  0.
   281  2.80  0.  0.
   282  2.81  0.  0.
   283  2.82  0.  0.
   284  2.83  0.  0.
   285  2.84  0.  0.
   286  2.85  0.  0.
   287  2.86  0.  0.
   288  2.87  0.  0.
   289  2.88  0.  0.
   290  2.89  0.  0.
   291  2.90  0.  0.
   292  2.91  0.  0.
   293  2.92  0.  0.
   294  2.93  0.  0.
   295  2.94  0.  0.
   296  2.95  0.  0.
   297  2.96  0.  0.
   298  2.97  0.  0.
   299  2.98  0.  0.
   300  2.99  0.  0.
   301  3.00  0.  0.
   302  3.01  0.  0.
   303  3.02  0.  0.
   304  3.03  0.  0.
   305  3.04  0.  0.
   306  3.05  0.  0.
   307  3.06  0.  0.
   308  3.07  0.  0.
   309  3.08  0.  0.
   310  3.09  0.  0.
   311  3.10  0.  0.
   312  3.11  0.  0.
   313  3.12  0.  0.
   314  3.13  0.  0.
   315  3.14  0.  0.
   316  3.15  0.  0.
   317  3.16  0.  0.
   318  3.17  0.  0.
   319  3.18  0.  0.
   320  3.19  0.  0.
   321  3.20  0.  0.
   322  3.21  0.  0.
   323  3.22  0.  0.
   324  3.23  0.  0.
   325  3.24  0.  0.
   326  3.25  0.  0.
   327  3.26  0.  0.
   328  3.27  0.  0.
   329  3.28  0.  0.
   330  3.29  0.  0.
   331  3.30  0.  0.
   332  3.31  0.  0.
   333  3.32  0.  0.
   334  3.33  0.  0.
   335  3.34  0.  0.
   336  3.35  0.  0.
   337  3.36  0.  0.
   338  3.37  0.  0.
   339  3.38  0.  0.
   340  3.39  0.  0.
   341  3.40  0.  0.
   342  3.41  0.  0.
   343  3.42  0.  0.
   344  3.43  0.  0.
   345  3.44  0.  0.
   346  3.45  0.  0.
   347  3.46  0.  0.
   348  3.47  0.  0.
   349  3.48  0.  0.
   350  3.49  0.  0.
   351  3.50  0.  0.
   352  3.51  0.  0.
   353  3.52  0.  0.
   354  3.53  0.  0.
   355  3.54  0.  0.
   356  3.55  0.  0.
   357  3.56  0.  0.
   358  3.57  0.  0.
   359  3.58  0.  0.
   360  3.59  0.  0.
   361  3.60  0.  0.
   362  3.61  0.  0.
   363  3.62  0.  0.
   364  3.63  0.  0.
   365  3.64  0.  0.
   366  3.65  0.  0.
   367  3.66  0.  0.
   368  3.67  0.  0.
   369  3.68  0.  0.
   370  3.69  0.  0.
   371  3.70  0.  0.
   372  3.71  0.  0.
   373  3.72  0.  0.
   374  3.73  0.  0.
   375  3.74  0.  0.
   376  3.75  0.  0.
   377  3.76  0.  0.
   378  3.77  0.  0.
   379  3.78  0.  0.
   380  3.79  0.  0.
   381  3.80  0.  0.
   382  3.81  0.  0.
   383  3.82  0.  0.
   384  3.83  0.  0.
   385  3.84  0.  0.
   386  3.85  0.  0.
   387  3.86  0.  0.
   388  3.87  0.  0.
   389  3.88  0.  0.
   390  3.89  0.  0.
   391  3.90  0.  0.
   392  3.91  0.  0.
   393  3.92  0.  0.
   394  3.93  0.  0.
   395  3.94  0.  0.
   396  3.95  0.  0.
   397  3.96  0.  0.
   398  3.97  0.  0.
   399  3.98  0.  0.
   400  3.99  0.  0.
   401  4.00  0.  0.
   402  4.01  0.  0.
   403  4.02  0.  0.
   404  4.03  0.  0.
   405  4.04  0.  0.
   406  4.05  0.  0.
   407  4.06  0.  0.
   408  4.07  0.  0.
   409  4.08  0.  0.
   410  4.09  0.  0.
   411  4.10  0.  0.
   412  4.11  0.  0.
   413  4.12  0.  0.
   414  4.13  0.  0.
   415  4.14  0.  0.
   416  4.15  0.  0.
   417  4.16  0.  0.
   418  4.17  0.  0.
   419  4.18  0.  0.
   420  4.19  0.  0.
   421  4.20  0.  0.
   422  4.21  0.  0.
   423  4.22  0.  0.
   424  4.23  0.  0.
   425  4.24  0.  0.
   426  4.25  0.  0.
   427  4.26  0.  0.
   428  4.27  0.  0.
   429  4.28  0.  0.
   430  4.29  0.  0.
   431  4.30  0.  0.
   432  4.31  0.  0.
   433  4.32  0.  0.
   434  4.33  0.  0.
   435  4.34  0.  0.
   436  4.35  0.  0.
   437  4.36  0.  0.
   438  4.37  0.  0.
   439  4.38  0.  0.
   440  4.39  0.  0.
   441  4.40  0.  0.
   442  4.41  0.  0.
   443  4.42  0.  0.
   444  4.43  0.  0.
   445  4.44  0.  0.
   446  4.45  0.  0.
   447  4.46  0.  0.
   448  4.47  0.  0.
   449  4.48  0.  0.
   450  4.49  0.  0.
   451  4.50  0.  0.
   452  4.51  0.  0.
   453  4.52  0.  0.
   454  4.53  0.  0.
   455  4.54  0.  0.
   456  4.55  0.  0.
   457  4.56  0.  0.
   458  4.57  0.  0.
   459  4.58  0.  0.
   460  4.59  0.  0.
   461  4.60  0.  0.
   462  4.61  0.  0.
   463  4.62  0.  0.
   464  4.63  0.  0.
   465  4.64  0.  0.
   466  4.65  0.  0.
   467  4.66  0.  0.
   468  4.67  0.  0.
   469  4.68  0.  0.
   470  4.69  0.  0.
   471  4.70  0.  0.
   472  4.71  0.  0.
   473  4.72  0.  0.
   474  4.73  0.  0.
   475  4.74  0.  0.
   476  4.75  0.  0.
   477  4.76  0.  0.
   478  4.77  0.  0.
   479  4.78  0.  0.
   480  4.79  0.  0.
   481  4.80  0.  0.
   482  4.81  0.  0.
   483  4.82  0.  0.
   484  4.83  0.  0.
   485  4.84  0.  0.
   486  4.85  0.  0.
   487  4.86  0.  0.
   488  4.87  0.  0.
   489  4.88  0.  0.
   490  4.89  0.  0.
   491  4.90  0.  0.
   492  4.91  0.  0.
   493  4.92  0.  0.
   494  4.93  0.  0.
   495  4.94  0.  0.
   496  4.95  0.  0.
   497  4.96  0.  0.
   498  4.97  0.  0.
   499  4.98  0.  0.
   500  4.99  0.  0.
   501  5.00  0.  0.
   502  5.01  0.  0.
   503  5.02  0.  0.
   504  5.03  0.  0.
   505  5.04  0.  0.
   506  5.05  0.  0.
   507  5.06  0.  0.
   508  5.07  0.  0.
   509  5.08  0.  0.
   510  5.09  0.  0.
   511  5.10  0.  0.
   512  5.11  0.  0.
   513  5.12  0.  0.
   514  5.13  0.  0.
   515  5.14  0.  0.
   516  5.15  0.  0.
   517  5.16  0.  0.
   518  5.17  0.  0.
   519  5.18  0.  0.
   520  5.19  0.  0.
   521  5.20  0.  0.
   522  5.21  0.  0.
   523  5.22  0.  0.
   524  5.23  0.  0.
   525  5.24  0.  0.
   526  5.25  0.  0.
   527  5.26  0.  0.
   528  5.27  0.  0.
   529  5.28  0.  0.
   530  5.29  0.  0.
   531  5.30  0.  0.
   532  5.31  0.  0.
   533  5.32  0.  0.
   534  5.33  0.  0.
   535  5.34  0.  0.
   536  5.35  0.  0.
   537  5.36  0.  0.
   538  5.37  0.  0.
   539  5.38  0.  0.
   540  5.39  0.  0.
   541  5.40  0.  0.
   542  5.41  0.  0.
   543  5.42  0.  0.
   544  5.43  0.  0.
   545  5.44  0.  0.
   546  5.45  0.  0.
   547  5.46  0.  0.
   548  5.47  0.  0.
   549  5.48  0.  0.
   550  5.49  0.  0.
   551  5.50  0.  0.
   552  5.51  0.  0.
   553  5.52  0.  0.
   554  5.53  0.  0.
   555  5.54  0.  0.
   556  5.55  0.  0.
   557  5.56  0.  0.
   558  5.57  0.  0.
   559  5.58  0.  0.
   560  5.59  0.  0.
   561  5.60  0.  0.
   562  5.61  0.  0.
   563  5.62  0.  0.
   564  5.63  0.  0.
   565  5.64  0.  0.
   566  5.65  0.  0.
   567  5.66  0.  0.
   568  5.67  0.  0.
   569  5.68  0.  0.
   570  5.69  0.  0.
   571  5.70  0.  0.
   572  5.71  0.  0.
   573  5.72  0.  0.
   574  5.73  0.  0.
   575  5.74  0.  0.
   576  5.75  0.  0.
   577  5.76  0.  0.
   578  5.77  0.  0.
   579  5.78  0.  0.
   580  5.79  0.  0.
   581  5.80  0.  0.
   582  5.81  0.  0.
   583  5.82  0.  0.
   584  5.83  0.  0.
   585  5.84  0.  0.
   586  5.85  0.  0.
   587  5.86  0.  0.
   588  5.87  0.  0.
   589  5.88  0.  0.
   590  5.89  0.  0.
   591  5.90  0.  0.
   592  5.91  0.  0.
   593  5.92  0.  0.
   594  5.93  0.  0.
   595  5.94  0.  0.
   596  5.95  0.  0.
   597  5.96  0.  0.
   598  5.97  0.  0.
   599  5.98  0.  0.
   600  5.99  0.  0.
   1                        -4.7730847061014E+00 -1.1270054734076E+00
     1  0.0000000000000E+00 -2.9007071744580E-09  7.0623327186325E-09
     2  1.0000000000000E-02  2.0756260227740E-03 -8.6914269466326E-04
     3  2.0000000000000E-02  8.2944000428964E-03 -3.4729952258759E-03
     4  3.0000000000000E-02  1.8631984629309E-02 -7.8007161561258E-03
     5  4.0000000000000E-02  3.3047734971405E-02 -1.3833858320702E-02
     6  5.0000000000000E-02  5.1484581707135E-02 -2.1545817283270E-02
     7  6.0000000000000E-02  7.3868879624806E-02 -3.0901089946588E-02
     8  7.0000000000000E-02  1.0011023454224E-01 -4.1854373065191E-02
     9  8.0000000000000E-02  1.3010132356772E-01 -5.4349538469232E-02
    10  9.0000000000000E-02  1.6371772640829E-01 -6.8318527843688E-02
    11  1.0000000000000E-01  2.0081778733834E-01 -8.3680214740867E-02
    12  1.1000000000000E-01  2.4124252881288E-01 -1.0033928499387E-01
    13  1.2000000000000E-01  2.8481563845873E-01 -1.1818518873308E-01
    14  1.3000000000000E-01  3.3134355127232E-01 -1.3709121771839E-01
    15  1.4000000000000E-01  3.8061564827964E-01 -1.5691376064987E-01
    16  1.5000000000000E-01  4.3240459167558E-01 -1.7749178651970E-01
    17  1.6000000000000E-01  4.8646681457569E-01 -1.9864660196275E-01
    18  1.7000000000000E-01  5.4254318102057E-01 -2.2018192304308E-01
    19  1.8000000000000E-01  6.0035982882371E-01 -2.4188429509701E-01
    20  1.9000000000000E-01  6.5962920431565E-01 -2.6352388630609E-01
    21  2.0000000000000E-01  7.2005129409093E-01 -2.8485567177774E-01
    22  2.1000000000000E-01  7.8131505460273E-01 -3.0562101528865E-01
    23  2.2000000000000E-01  8.4310003597281E-01 -3.2554964572979E-01
    24  2.3000000000000E-01  9.0507819180161E-01 -3.4436201493554E-01
    25  2.4000000000000E-01  9.6691586218540E-01 -3.6177201324513E-01
    26  2.5000000000000E-01  1.0282759126897E+00 -3.7749000909537E-01
    27  2.6000000000000E-01  1.0888200078020E+00 -3.9122616944164E-01
    28  2.7000000000000E-01  1.1482109935004E+00 -4.0269400909946E-01
    29  2.8000000000000E-01  1.2061153601329E+00 -4.1161410942648E-01
    30  2.9000000000000E-01  1.2622057538914E+00 -4.1771794033489E-01
    31  3.0000000000000E-01  1.3161635028709E+00 -4.2075171462407E-01
    32  3.1000000000000E-01  1.3676811220948E+00 -4.2048020020099E-01
    33  3.2000000000000E-01  1.4164647610084E+00 -4.1669041402874E-01
    34  3.3000000000000E-01  1.4622365568365E+00 -4.0919512168511E-01
    35  3.4000000000000E-01  1.5047368578788E+00 -3.9783606825652E-01
    36  3.5000000000000E-01  1.5437262822793E+00 -3.8248686992673E-01
    37  3.6000000000000E-01  1.5789875800353E+00 -3.6305550098952E-01
    38  3.7000000000000E-01  1.6103272689633E+00 -3.3948631802307E-01
    39  3.8000000000000E-01  1.6375770189634E+00 -3.1176157147130E-01
    40  3.9000000000000E-01  1.6605947631455E+00 -2.7990236470721E-01
    41  4.0000000000000E-01  1.6792655191102E+00 -2.4396903159367E-01
    42  4.1000000000000E-01  1.6935019088163E+00 -2.0406091536623E-01
    43  4.2000000000000E-01  1.7032443709066E+00 -1.6031554407555E-01
    44  4.3000000000000E-01  1.7084610649778E+00 -1.1290721055804E-01
    45  4.4000000000000E-01  1.7091474729479E+00 -6.2044977658559E-02
    46  4.5000000000000E-01  1.7053257082718E+00 -7.9701419066046E-03
    47  4.6000000000000E-01  1.6970435491438E+00  4.9046799250740E-02
    48  4.7000000000000E-01  1.6843732168957E+00  1.0870962051739E-01
    49  4.8000000000000E-01  1.6674099254185E+00  1.7070021607446E-01
    50  4.9000000000000E-01  1.6462702315090E+00  2.3468274660282E-01
    51  5.0000000000000E-01  1.6210902194636E+00  3.0030800452619E-01
    52  5.1000000000000E-01  1.5920235559360E+00  3.6721791087323E-01
    53  5.2000000000000E-01  1.5592394529681E+00  4.3505005396175E-01
    54  5.3000000000000E-01  1.5229205781597E+00  5.0344217894537E-01
    55  5.4000000000000E-01  1.4832609511189E+00  5.7203653818408E-01
    56  5.5000000000000E-01  1.4404638646350E+00  6.4048401541094E-01
    57  5.6000000000000E-01  1.3947398674484E+00  7.0844794172160E-01
    58  5.7000000000000E-01  1.3463048430868E+00  7.7560752841733E-01
    59  5.8000000000000E-01  1.2953782160508E+00  8.4166085054439E-01
    60  5.9000000000000E-01  1.2421813127389E+00  9.0632732540619E-01
    61  6.0000000000000E-01  1.1869358999841E+00  9.6934964215212E-01
    62  6.1000000000000E-01  1.1298629190437E+00  1.0304951115048E+00
    63  6.2000000000000E-01  1.0711814274558E+00  1.0895564184825E+00
    64  6.3000000000000E-01  1.0111077554784E+00  1.1463517752860E+00
    65  6.4000000000000E-01  9.4985487799765E-01  1.2007244860183E+00
    66  6.5000000000000E-01  8.8763199697011E-01  1.2525419492442E+00
    67  6.6000000000000E-01  8.2464432379252E-01  1.3016941382337E+00
    68  6.7000000000000E-01  7.6109304561097E-01  1.3480916117289E+00
    69  6.8000000000000E-01  6.9717545462290E-01  1.3916631199108E+00
    70  6.9000000000000E-01  6.3308521501604E-01  1.4323528806156E+00
    71  7.0000000000000E-01  5.6901273844190E-01  1.4701176094966E+00
    72  7.1000000000000E-01  5.0514563593489E-01  1.5049233945129E+00
    73  7.2000000000000E-01  4.4166921204563E-01  1.5367425096642E+00
    74  7.3000000000000E-01  3.7876696571790E-01  1.5655502651403E+00
    75  7.4000000000000E-01  3.1662106214633E-01  1.5913219909260E+00
    76  7.5000000000000E-01  2.5541274052403E-01  1.6140302483666E+00
    77  7.6000000000000E-01  1.9532262422148E-01  1.6336423592782E+00
    78  7.7000000000000E-01  1.3653090250359E-01  1.6501183349596E+00
    79  7.8000000000000E-01  7.9217356339905E-02  1.6634092780658E+00
    80  7.9000000000000E-01  2.3561205120444E-02  1.6734563189302E+00
    81  8.0000000000000E-01 -3.0259243934258E-02  1.6801901348030E+00
    82  8.1000000000000E-01 -8.2067156300354E-02  1.6835310859059E+00
    83  8.2000000000000E-01 -1.3168794718752E-01  1.6833899864938E+00
    84  8.3000000000000E-01 -1.7895027526382E-01  1.6796695126325E+00
    85  8.4000000000000E-01 -2.2368724666821E-01  1.6722662315208E+00
    86  8.5000000000000E-01 -2.6573781630651E-01  1.6610732202975E+00
    87  8.6000000000000E-01 -3.0494836695923E-01  1.6459832257874E+00
    88  8.7000000000000E-01 -3.4117444056171E-01  1.6268923009534E+00
    89  8.8000000000000E-01 -3.7428259030407E-01  1.6037038393142E+00
    90  8.9000000000000E-01 -4.0415231709236E-01  1.5763329156420E+00
    91  9.0000000000000E-01 -4.3067804954914E-01  1.5447108301932E+00
    92  9.1000000000000E-01 -4.5377112323563E-01  1.5087897448550E+00
    93  9.2000000000000E-01 -4.7336171225361E-01  1.4685472931731E+00
    94  9.3000000000000E-01 -4.8940066491624E-01  1.4239910424441E+00
    95  9.4000000000000E-01 -5.0186119482652E-01  1.3751626850790E+00
    96  9.5000000000000E-01 -5.1074037950377E-01  1.3221418383369E+00
    97  9.6000000000000E-01 -5.1606042066505E-01  1.2650493363216E+00
    98  9.7000000000000E-01 -5.1786962338201E-01  1.2040499057755E+00
    99  9.8000000000000E-01 -5.1624305555042E-01  1.1393541275856E+00
   100  9.9000000000000E-01 -5.1128285436369E-01  1.0712195988613E+00
   101  1.0000000000000E+00 -5.0311815267513E-01  9.9995122571192E-01
   102  1.0100000000000E+00 -4.9190460514937E-01  9.2590059414944E-01
   103  1.0200000000000E+00 -4.7782350180516E-01  8.4946438552465E-01
   104  1.0300000000000E+00 -4.6108046478433E-01  7.7108182319444E-01
   105  1.0400000000000E+00 -4.4190373276534E-01  6.9123115826092E-01
   106  1.0500000000000E+00 -4.2054204620198E-01  6.1042522379684E-01
   107  1.0600000000000E+00 -3.9726215531982E-01  5.2920610850910E-01
   108  1.0700000000000E+00 -3.7234598133117E-01  4.4813902176553E-01
   109  1.0800000000000E+00 -3.4608746947919E-01  3.6780544193814E-01
   110  1.0900000000000E+00 -3.1878918006807E-01  2.8879565854610E-01
   111  1.1000000000000E+00 -2.9075867042727E-01  2.1170083534048E-01
   112  1.1100000000000E+00 -2.6230472662898E-01  1.3710473585510E-01
   113  1.1200000000000E+00 -2.3373350856458E-01  6.5575264653288E-02
   114  1.1300000000000E+00 -2.0534467559640E-01 -2.3440136978809E-03
   115  1.1400000000000E+00 -1.7742756230042E-01 -6.6142210322860E-02
   116  1.1500000000000E+00 -1.5025747475669E-01 -1.2534913257350E-01
   117  1.1600000000000E+00 -1.2409217737222E-01 -1.7954282082678E-01
   118  1.1700000000000E+00 -9.9168638308450E-02 -2.2835643775853E-01
   119  1.1800000000000E+00 -7.5700098281715E-02 -2.7148435451523E-01
   120  1.1900000000000E+00 -5.3873522867276E-02 -3.0868728961573E-01
   121  1.2000000000000E+00 -3.3847491942258E-02 -3.3979637307425E-01
   122  1.2100000000000E+00 -1.5750575788600E-02 -3.6471601475085E-01
   123  1.2200000000000E+00  3.2005508996181E-04 -3.8342653966761E-01
   124  1.2300000000000E+00  1.4300648584011E-02 -3.9598963681579E-01
   125  1.2400000000000E+00  2.6161892991526E-02 -4.0255062393295E-01
   126  1.2500000000000E+00  3.5908661470477E-02 -4.0333669450686E-01
   127  1.2600000000000E+00  4.3579171583167E-02 -3.9865373763977E-01
   128  1.2700000000000E+00  4.9243579919107E-02 -3.8888179283528E-01
   129  1.2800000000000E+00  5.3002038089312E-02 -3.7446921238411E-01
   130  1.2900000000000E+00  5.4982242856622E-02 -3.5592561492273E-01
   131  1.3000000000000E+00  5.5336523245117E-02 -3.3381373875744E-01
   132  1.3100000000000E+00  5.4238516515089E-02 -3.0874032565993E-01
   133  1.3200000000000E+00  5.1879493029655E-02 -2.8134618572128E-01
   134  1.3300000000000E+00  4.8464397095574E-02 -2.5229561105889E-01
   135  1.3400000000000E+00  4.4207676636550E-02 -2.2226532022073E-01
   136  1.3500000000000E+00  3.9328978974767E-02 -1.9193312583362E-01
   137  1.3600000000000E+00  3.4048792554855E-02 -1.6196652436580E-01
   138  1.3700000000000E+00  2.8584121408679E-02 -1.3301142128262E-01
   139  1.3800000000000E+00  2.3144270476586E-02 -1.0568118402238E-01
   140  1.3900000000000E+00  1.7929205136440E-02 -8.0550915431876E-02
   141  1.4000000000000E+00  1.3122792266582E-02 -5.8141975442135E-02
   142  1.4100000000000E+00  8.8860284808326E-03 -3.8906457714186E-02
   143  1.4200000000000E+00  5.3584283000939E-03 -2.3228036357047E-02
   144  1.4300000000000E+00  2.6558239667292E-03 -1.1417666199059E-02
   145  1.4400000000000E+00  8.5980473480872E-04 -3.6719428858257E-03