<UPF version="2.0.1">
  <PP_INFO>

 This pseudopotential file has been produced using the code
 ONCVPSP  (Optimized Norm-Conservinng Vanderbilt PSeudopotential)
 scalar-relativistic version 4.0.1 06/04/2019 by D. R. Hamann
 The code is available through a link at URL www.mat-simresearch.com.
 Documentation with the package provides a full discription of the
 input data below.


 While it is not required under the terms of the GNU GPL, it is
 suggested that you cite D. R. Hamann, Phys. Rev. B 88, 085117 (2013)
 in any publication using these pseudopotentials.

    <PP_INPUTFILE>
# ATOM AND REFERENCE CONFIGURATION
# atsym  z   nc   nv     iexc    psfile
  O  8.00    1    2       3      both
#
#   n    l    f        energy (Ha)
    1    0    2.00
    2    0    2.00
    2    1    4.00
#
# PSEUDOPOTENTIAL AND OPTIMIZATION
# lmax
    2
#
#   l,   rc,      ep,       ncon, nbas, qcut
    0   1.35000   0.00000    4    8   8.40000
    1   1.45000   0.00000    4    8   9.30000
    2   1.25000   0.10000    4    8   6.00000
#
# LOCAL POTENTIAL
# lloc, lpopt,  rc(5),   dvloc0
    4    5   1.20000      0.00000
#
# VANDERBILT-KLEINMAN-BYLANDER PROJECTORs
# l, nproj, debl
    0    2   1.00000
    1    2   1.00000
    2    1   1.00000
#
# MODEL CORE CHARGE
# icmod, fcfact, rcfact
    3   4.00000   1.50000
#
# LOG DERIVATIVE ANALYSIS
# epsh1, epsh2, depsh
  -12.00   12.00    0.02
#
# OUTPUT GRID
# rlmax, drl
    6.00    0.01
#
# TEST CONFIGURATIONS
# ncnf
    0
# nvcnf
#   n    l    f
    </PP_INPUTFILE>
  </PP_INFO>
  <!--                               -->
  <!-- END OF HUMAN READABLE SECTION -->
  <!--                               -->
    <PP_HEADER
       generated="Generated using ONCVPSP code by D. R. Hamann"
       author="anonymous"
       date="231019"
       comment=""
       element="O "
       pseudo_type="NC"
       relativistic="scalar"
       is_ultrasoft="F"
       is_paw="F"
       is_coulomb="F"
       has_so="F"
       has_wfc="F"
       has_gipaw="F"
       core_correction="T"
       functional="PZ"
       z_valence="    6.00"
       total_psenergy="  -3.14860193814E+01"
       rho_cutoff="   9.23000000000E+00"
       l_max="2"
       l_local="-1"
       mesh_size="   924"
       number_of_wfc="2"
       number_of_proj="5"/>
 <PP_MESH>
   <PP_R type="real"  size=" 924" columns="8">
    0.0000    0.0100    0.0200    0.0300    0.0400    0.0500    0.0600    0.0700
    0.0800    0.0900    0.1000    0.1100    0.1200    0.1300    0.1400    0.1500
    0.1600    0.1700    0.1800    0.1900    0.2000    0.2100    0.2200    0.2300
    0.2400    0.2500    0.2600    0.2700    0.2800    0.2900    0.3000    0.3100
    0.3200    0.3300    0.3400    0.3500    0.3600    0.3700    0.3800    0.3900
    0.4000    0.4100    0.4200    0.4300    0.4400    0.4500    0.4600    0.4700
    0.4800    0.4900    0.5000    0.5100    0.5200    0.5300    0.5400    0.5500
    0.5600    0.5700    0.5800    0.5900    0.6000    0.6100    0.6200    0.6300
    0.6400    0.6500    0.6600    0.6700    0.6800    0.6900    0.7000    0.7100
    0.7200    0.7300    0.7400    0.7500    0.7600    0.7700    0.7800    0.7900
    0.8000    0.8100    0.8200    0.8300    0.8400    0.8500    0.8600    0.8700
    0.8800    0.8900    0.9000    0.9100    0.9200    0.9300    0.9400    0.9500
    0.9600    0.9700    0.9800    0.9900    1.0000    1.0100    1.0200    1.0300
    1.0400    1.0500    1.0600    1.0700    1.0800    1.0900    1.1000    1.1100
    1.1200    1.1300    1.1400    1.1500    1.1600    1.1700    1.1800    1.1900
    1.2000    1.2100    1.2200    1.2300    1.2400    1.2500    1.2600    1.2700
    1.2800    1.2900    1.3000    1.3100    1.3200    1.3300    1.3400    1.3500
    1.3600    1.3700    1.3800    1.3900    1.4000    1.4100    1.4200    1.4300
    1.4400    1.4500    1.4600    1.4700    1.4800    1.4900    1.5000    1.5100
    1.5200    1.5300    1.5400    1.5500    1.5600    1.5700    1.5800    1.5900
    1.6000    1.6100    1.6200    1.6300    1.6400    1.6500    1.6600    1.6700
    1.6800    1.6900    1.7000    1.7100    1.7200    1.7300    1.7400    1.7500
    1.7600    1.7700    1.7800    1.7900    1.8000    1.8100    1.8200    1.8300
    1.8400    1.8500    1.8600    1.8700    1.8800    1.8900    1.9000    1.9100
    1.9200    1.9300    1.9400    1.9500    1.9600    1.9700    1.9800    1.9900
    2.0000    2.0100    2.0200    2.0300    2.0400    2.0500    2.0600    2.0700
    2.0800    2.0900    2.1000    2.1100    2.1200    2.1300    2.1400    2.1500
    2.1600    2.1700    2.1800    2.1900    2.2000    2.2100    2.2200    2.2300
    2.2400    2.2500    2.2600    2.2700    2.2800    2.2900    2.3000    2.3100
    2.3200    2.3300    2.3400    2.3500    2.3600    2.3700    2.3800    2.3900
    2.4000    2.4100    2.4200    2.4300    2.4400    2.4500    2.4600    2.4700
    2.4800    2.4900    2.5000    2.5100    2.5200    2.5300    2.5400    2.5500
    2.5600    2.5700    2.5800    2.5900    2.6000    2.6100    2.6200    2.6300
    2.6400    2.6500    2.6600    2.6700    2.6800    2.6900    2.7000    2.7100
    2.7200    2.7300    2.7400    2.7500    2.7600    2.7700    2.7800    2.7900
    2.8000    2.8100    2.8200    2.8300    2.8400    2.8500    2.8600    2.8700
    2.8800    2.8900    2.9000    2.9100    2.9200    2.9300    2.9400    2.9500
    2.9600    2.9700    2.9800    2.9900    3.0000    3.0100    3.0200    3.0300
    3.0400    3.0500    3.0600    3.0700    3.0800    3.0900    3.1000    3.1100
    3.1200    3.1300    3.1400    3.1500    3.1600    3.1700    3.1800    3.1900
    3.2000    3.2100    3.2200    3.2300    3.2400    3.2500    3.2600    3.2700
    3.2800    3.2900    3.3000    3.3100    3.3200    3.3300    3.3400    3.3500
    3.3600    3.3700    3.3800    3.3900    3.4000    3.4100    3.4200    3.4300
    3.4400    3.4500    3.4600    3.4700    3.4800    3.4900    3.5000    3.5100
    3.5200    3.5300    3.5400    3.5500    3.5600    3.5700    3.5800    3.5900
    3.6000    3.6100    3.6200    3.6300    3.6400    3.6500    3.6600    3.6700
    3.6800    3.6900    3.7000    3.7100    3.7200    3.7300    3.7400    3.7500
    3.7600    3.7700    3.7800    3.7900    3.8000    3.8100    3.8200    3.8300
    3.8400    3.8500    3.8600    3.8700    3.8800    3.8900    3.9000    3.9100
    3.9200    3.9300    3.9400    3.9500    3.9600    3.9700    3.9800    3.9900
    4.0000    4.0100    4.0200    4.0300    4.0400    4.0500    4.0600    4.0700
    4.0800    4.0900    4.1000    4.1100    4.1200    4.1300    4.1400    4.1500
    4.1600    4.1700    4.1800    4.1900    4.2000    4.2100    4.2200    4.2300
    4.2400    4.2500    4.2600    4.2700    4.2800    4.2900    4.3000    4.3100
    4.3200    4.3300    4.3400    4.3500    4.3600    4.3700    4.3800    4.3900
    4.4000    4.4100    4.4200    4.4300    4.4400    4.4500    4.4600    4.4700
    4.4800    4.4900    4.5000    4.5100    4.5200    4.5300    4.5400    4.5500
    4.5600    4.5700    4.5800    4.5900    4.6000    4.6100    4.6200    4.6300
    4.6400    4.6500    4.6600    4.6700    4.6800    4.6900    4.7000    4.7100
    4.7200    4.7300    4.7400    4.7500    4.7600    4.7700    4.7800    4.7900
    4.8000    4.8100    4.8200    4.8300    4.8400    4.8500    4.8600    4.8700
    4.8800    4.8900    4.9000    4.9100    4.9200    4.9300    4.9400    4.9500
    4.9600    4.9700    4.9800    4.9900    5.0000    5.0100    5.0200    5.0300
    5.0400    5.0500    5.0600    5.0700    5.0800    5.0900    5.1000    5.1100
    5.1200    5.1300    5.1400    5.1500    5.1600    5.1700    5.1800    5.1900
    5.2000    5.2100    5.2200    5.2300    5.2400    5.2500    5.2600    5.2700
    5.2800    5.2900    5.3000    5.3100    5.3200    5.3300    5.3400    5.3500
    5.3600    5.3700    5.3800    5.3900    5.4000    5.4100    5.4200    5.4300
    5.4400    5.4500    5.4600    5.4700    5.4800    5.4900    5.5000    5.5100
    5.5200    5.5300    5.5400    5.5500    5.5600    5.5700    5.5800    5.5900
    5.6000    5.6100    5.6200    5.6300    5.6400    5.6500    5.6600    5.6700
    5.6800    5.6900    5.7000    5.7100    5.7200    5.7300    5.7400    5.7500
    5.7600    5.7700    5.7800    5.7900    5.8000    5.8100    5.8200    5.8300
    5.8400    5.8500    5.8600    5.8700    5.8800    5.8900    5.9000    5.9100
    5.9200    5.9300    5.9400    5.9500    5.9600    5.9700    5.9800    5.9900
    6.0000    6.0100    6.0200    6.0300    6.0400    6.0500    6.0600    6.0700
    6.0800    6.0900    6.1000    6.1100    6.1200    6.1300    6.1400    6.1500
    6.1600    6.1700    6.1800    6.1900    6.2000    6.2100    6.2200    6.2300
    6.2400    6.2500    6.2600    6.2700    6.2800    6.2900    6.3000    6.3100
    6.3200    6.3300    6.3400    6.3500    6.3600    6.3700    6.3800    6.3900
    6.4000    6.4100    6.4200    6.4300    6.4400    6.4500    6.4600    6.4700
    6.4800    6.4900    6.5000    6.5100    6.5200    6.5300    6.5400    6.5500
    6.5600    6.5700    6.5800    6.5900    6.6000    6.6100    6.6200    6.6300
    6.6400    6.6500    6.6600    6.6700    6.6800    6.6900    6.7000    6.7100
    6.7200    6.7300    6.7400    6.7500    6.7600    6.7700    6.7800    6.7900
    6.8000    6.8100    6.8200    6.8300    6.8400    6.8500    6.8600    6.8700
    6.8800    6.8900    6.9000    6.9100    6.9200    6.9300    6.9400    6.9500
    6.9600    6.9700    6.9800    6.9900    7.0000    7.0100    7.0200    7.0300
    7.0400    7.0500    7.0600    7.0700    7.0800    7.0900    7.1000    7.1100
    7.1200    7.1300    7.1400    7.1500    7.1600    7.1700    7.1800    7.1900
    7.2000    7.2100    7.2200    7.2300    7.2400    7.2500    7.2600    7.2700
    7.2800    7.2900    7.3000    7.3100    7.3200    7.3300    7.3400    7.3500
    7.3600    7.3700    7.3800    7.3900    7.4000    7.4100    7.4200    7.4300
    7.4400    7.4500    7.4600    7.4700    7.4800    7.4900    7.5000    7.5100
    7.5200    7.5300    7.5400    7.5500    7.5600    7.5700    7.5800    7.5900
    7.6000    7.6100    7.6200    7.6300    7.6400    7.6500    7.6600    7.6700
    7.6800    7.6900    7.7000    7.7100    7.7200    7.7300    7.7400    7.7500
    7.7600    7.7700    7.7800    7.7900    7.8000    7.8100    7.8200    7.8300
    7.8400    7.8500    7.8600    7.8700    7.8800    7.8900    7.9000    7.9100
    7.9200    7.9300    7.9400    7.9500    7.9600    7.9700    7.9800    7.9900
    8.0000    8.0100    8.0200    8.0300    8.0400    8.0500    8.0600    8.0700
    8.0800    8.0900    8.1000    8.1100    8.1200    8.1300    8.1400    8.1500
    8.1600    8.1700    8.1800    8.1900    8.2000    8.2100    8.2200    8.2300
    8.2400    8.2500    8.2600    8.2700    8.2800    8.2900    8.3000    8.3100
    8.3200    8.3300    8.3400    8.3500    8.3600    8.3700    8.3800    8.3900
    8.4000    8.4100    8.4200    8.4300    8.4400    8.4500    8.4600    8.4700
    8.4800    8.4900    8.5000    8.5100    8.5200    8.5300    8.5400    8.5500
    8.5600    8.5700    8.5800    8.5900    8.6000    8.6100    8.6200    8.6300
    8.6400    8.6500    8.6600    8.6700    8.6800    8.6900    8.7000    8.7100
    8.7200    8.7300    8.7400    8.7500    8.7600    8.7700    8.7800    8.7900
    8.8000    8.8100    8.8200    8.8300    8.8400    8.8500    8.8600    8.8700
    8.8800    8.8900    8.9000    8.9100    8.9200    8.9300    8.9400    8.9500
    8.9600    8.9700    8.9800    8.9900    9.0000    9.0100    9.0200    9.0300
    9.0400    9.0500    9.0600    9.0700    9.0800    9.0900    9.1000    9.1100
    9.1200    9.1300    9.1400    9.1500    9.1600    9.1700    9.1800    9.1900
    9.2000    9.2100    9.2200    9.2300
   </PP_R>
   <PP_RAB type="real"  size=" 924" columns="8">
    0.0100    0.0100    0.0100    0.0100    0.0100    0.0100    0.0100    0.0100
    0.0100    0.0100    0.0100    0.0100    0.0100    0.0100    0.0100    0.0100
    0.0100    0.0100    0.0100    0.0100    0.0100    0.0100    0.0100    0.0100
    0.0100    0.0100    0.0100    0.0100    0.0100    0.0100    0.0100    0.0100
    0.0100    0.0100    0.0100    0.0100    0.0100    0.0100    0.0100    0.0100
    0.0100    0.0100    0.0100    0.0100    0.0100    0.0100    0.0100    0.0100
    0.0100    0.0100    0.0100    0.0100    0.0100    0.0100    0.0100    0.0100
    0.0100    0.0100    0.0100    0.0100    0.0100    0.0100    0.0100    0.0100
    0.0100    0.0100    0.0100    0.0100    0.0100    0.0100    0.0100    0.0100
    0.0100    0.0100    0.0100    0.0100    0.0100    0.0100    0.0100    0.0100
    0.0100    0.0100    0.0100    0.0100    0.0100    0.0100    0.0100    0.0100
    0.0100    0.0100    0.0100    0.0100    0.0100    0.0100    0.0100    0.0100
    0.0100    0.0100    0.0100    0.0100    0.0100    0.0100    0.0100    0.0100
    0.0100    0.0100    0.0100    0.0100    0.0100    0.0100    0.0100    0.0100
    0.0100    0.0100    0.0100    0.0100    0.0100    0.0100    0.0100    0.0100
    0.0100    0.0100    0.0100    0.0100    0.0100    0.0100    0.0100    0.0100
    0.0100    0.0100    0.0100    0.0100    0.0100    0.0100    0.0100    0.0100
    0.0100    0.0100    0.0100    0.0100    0.0100    0.0100    0.0100    0.0100
    0.0100    0.0100    0.0100    0.0100    0.0100    0.0100    0.0100    0.0100
    0.0100    0.0100    0.0100    0.0100    0.0100    0.0100    0.0100    0.0100
    0.0100    0.0100    0.0100    0.0100    0.0100    0.0100    0.0100    0.0100
    0.0100    0.0100    0.0100    0.0100    0.0100    0.0100    0.0100    0.0100
    0.0100    0.0100    0.0100    0.0100    0.0100    0.0100    0.0100    0.0100
    0.0100    0.0100    0.0100    0.0100    0.0100    0.0100    0.0100    0.0100
    0.0100    0.0100    0.0100    0.0100    0.0100    0.0100    0.0100    0.0100
    0.0100    0.0100    0.0100    0.0100    0.0100    0.0100    0.0100    0.0100
    0.0100    0.0100    0.0100    0.0100    0.0100    0.0100    0.0100    0.0100
    0.0100    0.0100    0.0100    0.0100    0.0100    0.0100    0.0100    0.0100
    0.0100    0.0100    0.0100    0.0100    0.0100    0.0100    0.0100    0.0100
    0.0100    0.0100    0.0100    0.0100    0.0100    0.0100    0.0100    0.0100
    0.0100    0.0100    0.0100    0.0100    0.0100    0.0100    0.0100    0.0100
    0.0100    0.0100    0.0100    0.0100    0.0100    0.0100    0.0100    0.0100
    0.0100    0.0100    0.0100    0.0100    0.0100    0.0100    0.0100    0.0100
    0.0100    0.0100    0.0100    0.0100    0.0100    0.0100    0.0100    0.0100
    0.0100    0.0100    0.0100    0.0100    0.0100    0.0100    0.0100    0.0100
    0.0100    0.0100    0.0100    0.0100    0.0100    0.0100    0.0100    0.0100
    0.0100    0.0100    0.0100    0.0100    0.0100    0.0100    0.0100    0.0100
    0.0100    0.0100    0.0100    0.0100    0.0100    0.0100    0.0100    0.0100
    0.0100    0.0100    0.0100    0.0100    0.0100    0.0100    0.0100    0.0100
    0.0100    0.0100    0.0100    0.0100    0.0100    0.0100    0.0100    0.0100
    0.0100    0.0100    0.0100    0.0100    0.0100    0.0100    0.0100    0.0100
    0.0100    0.0100    0.0100    0.0100    0.0100    0.0100    0.0100    0.0100
    0.0100    0.0100    0.0100    0.0100    0.0100    0.0100    0.0100    0.0100
    0.0100    0.0100    0.0100    0.0100    0.0100    0.0100    0.0100    0.0100
    0.0100    0.0100    0.0100    0.0100    0.0100    0.0100    0.0100    0.0100
    0.0100    0.0100    0.0100    0.0100    0.0100    0.0100    0.0100    0.0100
    0.0100    0.0100    0.0100    0.0100    0.0100    0.0100    0.0100    0.0100
    0.0100    0.0100    0.0100    0.0100    0.0100    0.0100    0.0100    0.0100
    0.0100    0.0100    0.0100    0.0100    0.0100    0.0100    0.0100    0.0100
    0.0100    0.0100    0.0100    0.0100    0.0100    0.0100    0.0100    0.0100
    0.0100    0.0100    0.0100    0.0100    0.0100    0.0100    0.0100    0.0100
    0.0100    0.0100    0.0100    0.0100    0.0100    0.0100    0.0100    0.0100
    0.0100    0.0100    0.0100    0.0100    0.0100    0.0100    0.0100    0.0100
    0.0100    0.0100    0.0100    0.0100    0.0100    0.0100    0.0100    0.0100
    0.0100    0.0100    0.0100    0.0100    0.0100    0.0100    0.0100    0.0100
    0.0100    0.0100    0.0100    0.0100    0.0100    0.0100    0.0100    0.0100
    0.0100    0.0100    0.0100    0.0100    0.0100    0.0100    0.0100    0.0100
    0.0100    0.0100    0.0100    0.0100    0.0100    0.0100    0.0100    0.0100
    0.0100    0.0100    0.0100    0.0100    0.0100    0.0100    0.0100    0.0100
    0.0100    0.0100    0.0100    0.0100    0.0100    0.0100    0.0100    0.0100
    0.0100    0.0100    0.0100    0.0100    0.0100    0.0100    0.0100    0.0100
    0.0100    0.0100    0.0100    0.0100    0.0100    0.0100    0.0100    0.0100
    0.0100    0.0100    0.0100    0.0100    0.0100    0.0100    0.0100    0.0100
    0.0100    0.0100    0.0100    0.0100    0.0100    0.0100    0.0100    0.0100
    0.0100    0.0100    0.0100    0.0100    0.0100    0.0100    0.0100    0.0100
    0.0100    0.0100    0.0100    0.0100    0.0100    0.0100    0.0100    0.0100
    0.0100    0.0100    0.0100    0.0100    0.0100    0.0100    0.0100    0.0100
    0.0100    0.0100    0.0100    0.0100    0.0100    0.0100    0.0100    0.0100
    0.0100    0.0100    0.0100    0.0100    0.0100    0.0100    0.0100    0.0100
    0.0100    0.0100    0.0100    0.0100    0.0100    0.0100    0.0100    0.0100
    0.0100    0.0100    0.0100    0.0100    0.0100    0.0100    0.0100    0.0100
    0.0100    0.0100    0.0100    0.0100    0.0100    0.0100    0.0100    0.0100
    0.0100    0.0100    0.0100    0.0100    0.0100    0.0100    0.0100    0.0100
    0.0100    0.0100    0.0100    0.0100    0.0100    0.0100    0.0100    0.0100
    0.0100    0.0100    0.0100    0.0100    0.0100    0.0100    0.0100    0.0100
    0.0100    0.0100    0.0100    0.0100    0.0100    0.0100    0.0100    0.0100
    0.0100    0.0100    0.0100    0.0100    0.0100    0.0100    0.0100    0.0100
    0.0100    0.0100    0.0100    0.0100    0.0100    0.0100    0.0100    0.0100
    0.0100    0.0100    0.0100    0.0100    0.0100    0.0100    0.0100    0.0100
    0.0100    0.0100    0.0100    0.0100    0.0100    0.0100    0.0100    0.0100
    0.0100    0.0100    0.0100    0.0100    0.0100    0.0100    0.0100    0.0100
    0.0100    0.0100    0.0100    0.0100    0.0100    0.0100    0.0100    0.0100
    0.0100    0.0100    0.0100    0.0100    0.0100    0.0100    0.0100    0.0100
    0.0100    0.0100    0.0100    0.0100    0.0100    0.0100    0.0100    0.0100
    0.0100    0.0100    0.0100    0.0100    0.0100    0.0100    0.0100    0.0100
    0.0100    0.0100    0.0100    0.0100    0.0100    0.0100    0.0100    0.0100
    0.0100    0.0100    0.0100    0.0100    0.0100    0.0100    0.0100    0.0100
    0.0100    0.0100    0.0100    0.0100    0.0100    0.0100    0.0100    0.0100
    0.0100    0.0100    0.0100    0.0100    0.0100    0.0100    0.0100    0.0100
    0.0100    0.0100    0.0100    0.0100    0.0100    0.0100    0.0100    0.0100
    0.0100    0.0100    0.0100    0.0100    0.0100    0.0100    0.0100    0.0100
    0.0100    0.0100    0.0100    0.0100    0.0100    0.0100    0.0100    0.0100
    0.0100    0.0100    0.0100    0.0100    0.0100    0.0100    0.0100    0.0100
    0.0100    0.0100    0.0100    0.0100    0.0100    0.0100    0.0100    0.0100
    0.0100    0.0100    0.0100    0.0100    0.0100    0.0100    0.0100    0.0100
    0.0100    0.0100    0.0100    0.0100    0.0100    0.0100    0.0100    0.0100
    0.0100    0.0100    0.0100    0.0100    0.0100    0.0100    0.0100    0.0100
    0.0100    0.0100    0.0100    0.0100    0.0100    0.0100    0.0100    0.0100
    0.0100    0.0100    0.0100    0.0100    0.0100    0.0100    0.0100    0.0100
    0.0100    0.0100    0.0100    0.0100    0.0100    0.0100    0.0100    0.0100
    0.0100    0.0100    0.0100    0.0100    0.0100    0.0100    0.0100    0.0100
    0.0100    0.0100    0.0100    0.0100    0.0100    0.0100    0.0100    0.0100
    0.0100    0.0100    0.0100    0.0100    0.0100    0.0100    0.0100    0.0100
    0.0100    0.0100    0.0100    0.0100    0.0100    0.0100    0.0100    0.0100
    0.0100    0.0100    0.0100    0.0100    0.0100    0.0100    0.0100    0.0100
    0.0100    0.0100    0.0100    0.0100    0.0100    0.0100    0.0100    0.0100
    0.0100    0.0100    0.0100    0.0100    0.0100    0.0100    0.0100    0.0100
    0.0100    0.0100    0.0100    0.0100    0.0100    0.0100    0.0100    0.0100
    0.0100    0.0100    0.0100    0.0100    0.0100    0.0100    0.0100    0.0100
    0.0100    0.0100    0.0100    0.0100    0.0100    0.0100    0.0100    0.0100
    0.0100    0.0100    0.0100    0.0100    0.0100    0.0100    0.0100    0.0100
    0.0100    0.0100    0.0100    0.0100    0.0100    0.0100    0.0100    0.0100
    0.0100    0.0100    0.0100    0.0100    0.0100    0.0100    0.0100    0.0100
    0.0100    0.0100    0.0100    0.0100    0.0100    0.0100    0.0100    0.0100
    0.0100    0.0100    0.0100    0.0100    0.0100    0.0100    0.0100    0.0100
    0.0100    0.0100    0.0100    0.0100
   </PP_RAB>
 </PP_MESH>
  <PP_LOCAL type="real"  size=" 924" columns="4">
   -2.0352824352E+01   -2.0352294971E+01   -2.0350699514E+01   -2.0348032600E+01
   -2.0344282543E+01   -2.0339433042E+01   -2.0333463251E+01   -2.0326347859E+01
   -2.0318057191E+01   -2.0308557324E+01   -2.0297810227E+01   -2.0285773911E+01
   -2.0272402604E+01   -2.0257646933E+01   -2.0241454138E+01   -2.0223768287E+01
   -2.0204530522E+01   -2.0183679317E+01   -2.0161150750E+01   -2.0136878800E+01
   -2.0110795659E+01   -2.0082832061E+01   -2.0052917636E+01   -2.0020981276E+01
   -1.9986951531E+01   -1.9950757013E+01   -1.9912326834E+01   -1.9871591055E+01
   -1.9828481158E+01   -1.9782930542E+01   -1.9734875030E+01   -1.9684253398E+01
   -1.9631007912E+01   -1.9575084879E+01   -1.9516435202E+01   -1.9455014931E+01
   -1.9390785808E+01   -1.9323715798E+01   -1.9253779590E+01   -1.9180959067E+01
   -1.9105243735E+01   -1.9026631089E+01   -1.8945126918E+01   -1.8860745538E+01
   -1.8773509940E+01   -1.8683451845E+01   -1.8590611671E+01   -1.8495038400E+01
   -1.8396789348E+01   -1.8295929843E+01   -1.8192532811E+01   -1.8086678287E+01
   -1.7978452855E+01   -1.7867949021E+01   -1.7755264557E+01   -1.7640501797E+01
   -1.7523766930E+01   -1.7405169279E+01   -1.7284820595E+01   -1.7162834373E+01
   -1.7039325194E+01   -1.6914408110E+01   -1.6788198071E+01   -1.6660809413E+01
   -1.6532355382E+01   -1.6402947728E+01   -1.6272696347E+01   -1.6141708976E+01
   -1.6010090943E+01   -1.5877944959E+01   -1.5745370965E+01   -1.5612466006E+01
   -1.5479324157E+01   -1.5346036466E+01   -1.5212690941E+01   -1.5079372550E+01
   -1.4946163245E+01   -1.4813142007E+01   -1.4680384899E+01   -1.4547965133E+01
   -1.4415953141E+01   -1.4284416660E+01   -1.4153420809E+01   -1.4023028174E+01
   -1.3893298889E+01   -1.3764290718E+01   -1.3636059130E+01   -1.3508657368E+01
   -1.3382136519E+01   -1.3256545568E+01   -1.3131931453E+01   -1.3008339103E+01
   -1.2885811481E+01   -1.2764389604E+01   -1.2644112565E+01   -1.2525017542E+01
   -1.2407139799E+01   -1.2290512681E+01   -1.2175167596E+01   -1.2061133997E+01
   -1.1948439348E+01   -1.1837109095E+01   -1.1727166617E+01   -1.1618633181E+01
   -1.1511527891E+01   -1.1405867630E+01   -1.1301666997E+01   -1.1198938244E+01
   -1.1097691211E+01   -1.0997933254E+01   -1.0899669172E+01   -1.0802901137E+01
   -1.0707628620E+01   -1.0613848333E+01   -1.0521558615E+01   -1.0430685943E+01
   -1.0341287449E+01   -1.0253341564E+01   -1.0166828914E+01   -1.0081727157E+01
   -9.9980114553E+00   -9.9156535328E+00   -9.8346221884E+00   -9.7548858588E+00
   -9.6764140398E+00   -9.5991772670E+00   -9.5231470762E+00   -9.4482959595E+00
   -9.3745973232E+00   -9.3020254479E+00   -9.2305554499E+00   -9.1601632436E+00
   -9.0908255059E+00   -9.0225196408E+00   -8.9552237458E+00   -8.8889165794E+00
   -8.8235775272E+00   -8.7591865507E+00   -8.6957241170E+00   -8.6331711615E+00
   -8.5715090664E+00   -8.5107196348E+00   -8.4507850691E+00   -8.3916879493E+00
   -8.3334112145E+00   -8.2759381451E+00   -8.2192523498E+00   -8.1633377880E+00
   -8.1081788336E+00   -8.0537602857E+00   -8.0000673457E+00   -7.9470856062E+00
   -7.8948010375E+00   -7.8431999751E+00   -7.7922691078E+00   -7.7419954661E+00
   -7.6923664114E+00   -7.6433696256E+00   -7.5949931008E+00   -7.5472251301E+00
   -7.5000542984E+00   -7.4534694734E+00   -7.4074597973E+00   -7.3620146787E+00
   -7.3171237845E+00   -7.2727770327E+00   -7.2289645846E+00   -7.1856768377E+00
   -7.1429044194E+00   -7.1006381792E+00   -7.0588691834E+00   -7.0175887076E+00
   -6.9767882314E+00   -6.9364594362E+00   -6.8965942006E+00   -6.8571845777E+00
   -6.8182228013E+00   -6.7797012806E+00   -6.7416125952E+00   -6.7039494907E+00
   -6.6667048739E+00   -6.6298718083E+00   -6.5934435099E+00   -6.5574133430E+00
   -6.5217748162E+00   -6.4865215783E+00   -6.4516474148E+00   -6.4171462442E+00
   -6.3830121142E+00   -6.3492391988E+00   -6.3158217943E+00   -6.2827543167E+00
   -6.2500312982E+00   -6.2176473844E+00   -6.1855973313E+00   -6.1538760025E+00
   -6.1224783663E+00   -6.0913994932E+00   -6.0606345535E+00   -6.0301788143E+00
   -6.0000276375E+00   -5.9701764773E+00   -5.9406208780E+00   -5.9113564714E+00
   -5.8823789754E+00   -5.8536841910E+00   -5.8252680011E+00   -5.7971263680E+00
   -5.7692553315E+00   -5.7416510075E+00   -5.7143095858E+00   -5.6872273282E+00
   -5.6604005673E+00   -5.6338257044E+00   -5.6074992083E+00   -5.5814176132E+00
   -5.5555775178E+00   -5.5299755831E+00   -5.5046085317E+00   -5.4794731460E+00
   -5.4545662669E+00   -5.4298847923E+00   -5.4054256761E+00   -5.3811859271E+00
   -5.3571626071E+00   -5.3333528304E+00   -5.3097537623E+00   -5.2863626181E+00
   -5.2631766618E+00   -5.2401932054E+00   -5.2174096074E+00   -5.1948232724E+00
   -5.1724316493E+00   -5.1502322313E+00   -5.1282225540E+00   -5.1064001952E+00
   -5.0847627737E+00   -5.0633079484E+00   -5.0420334178E+00   -5.0209369185E+00
   -5.0000162253E+00   -4.9792691497E+00   -4.9586935392E+00   -4.9382872771E+00
   -4.9180482810E+00   -4.8979745030E+00   -4.8780639279E+00   -4.8583145737E+00
   -4.8387244900E+00   -4.8192917579E+00   -4.8000144891E+00   -4.7808908255E+00
   -4.7619189384E+00   -4.7430970280E+00   -4.7244233230E+00   -4.7058960797E+00
   -4.6875135818E+00   -4.6692741397E+00   -4.6511760897E+00   -4.6332177942E+00
   -4.6153976407E+00   -4.5977140411E+00   -4.5801654320E+00   -4.5627502735E+00
   -4.5454670491E+00   -4.5283142651E+00   -4.5112904505E+00   -4.4943941560E+00
   -4.4776239543E+00   -4.4609784391E+00   -4.4444562249E+00   -4.4280559467E+00
   -4.4117762598E+00   -4.3956158388E+00   -4.3795733780E+00   -4.3636475904E+00
   -4.3478372079E+00   -4.3321409806E+00   -4.3165576766E+00   -4.3010860816E+00
   -4.2857249987E+00   -4.2704732482E+00   -4.2553296668E+00   -4.2402931079E+00
   -4.2253624409E+00   -4.2105365512E+00   -4.1958143397E+00   -4.1811947227E+00
   -4.1666766314E+00   -4.1522590120E+00   -4.1379408250E+00   -4.1237210454E+00
   -4.1095986621E+00   -4.0955726780E+00   -4.0816421092E+00   -4.0678059855E+00
   -4.0540633497E+00   -4.0404132574E+00   -4.0268547770E+00   -4.0133869892E+00
   -4.0000089872E+00   -3.9867198761E+00   -3.9735187727E+00   -3.9604048059E+00
   -3.9473771156E+00   -3.9344348532E+00   -3.9215771812E+00   -3.9088032730E+00
   -3.8961123126E+00   -3.8835034948E+00   -3.8709760246E+00   -3.8585291173E+00
   -3.8461619983E+00   -3.8338739028E+00   -3.8216640757E+00   -3.8095317718E+00
   -3.7974762549E+00   -3.7854967984E+00   -3.7735926848E+00   -3.7617632054E+00
   -3.7500076606E+00   -3.7383253595E+00   -3.7267156195E+00   -3.7151777667E+00
   -3.7037111356E+00   -3.6923150687E+00   -3.6809889165E+00   -3.6697320378E+00
   -3.6585437989E+00   -3.6474235738E+00   -3.6363707443E+00   -3.6253846996E+00
   -3.6144648361E+00   -3.6036105577E+00   -3.5928212751E+00   -3.5820964065E+00
   -3.5714353766E+00   -3.5608376171E+00   -3.5503025665E+00   -3.5398296699E+00
   -3.5294183787E+00   -3.5190681511E+00   -3.5087784513E+00   -3.4985487500E+00
   -3.4883785239E+00   -3.4782672559E+00   -3.4682144347E+00   -3.4582195550E+00
   -3.4482821174E+00   -3.4384016280E+00   -3.4285775987E+00   -3.4188095471E+00
   -3.4090969958E+00   -3.3994394734E+00   -3.3898365135E+00   -3.3802876549E+00
   -3.3707924417E+00   -3.3613504232E+00   -3.3519611536E+00   -3.3426241920E+00
   -3.3333391026E+00   -3.3241054543E+00   -3.3149228208E+00   -3.3057907804E+00
   -3.2967089163E+00   -3.2876768159E+00   -3.2786940715E+00   -3.2697602794E+00
   -3.2608750407E+00   -3.2520379607E+00   -3.2432486487E+00   -3.2345067187E+00
   -3.2258117883E+00   -3.2171634798E+00   -3.2085614190E+00   -3.2000052359E+00
   -3.1914945646E+00   -3.1830290429E+00   -3.1746083125E+00   -3.1662320187E+00
   -3.1578998108E+00   -3.1496113416E+00   -3.1413662676E+00   -3.1331642490E+00
   -3.1250049494E+00   -3.1168880358E+00   -3.1088131789E+00   -3.1007800526E+00
   -3.0927883343E+00   -3.0848377046E+00   -3.0769278474E+00   -3.0690584500E+00
   -3.0612292027E+00   -3.0534397990E+00   -3.0456899354E+00   -3.0379793118E+00
   -3.0303076309E+00   -3.0226745982E+00   -3.0150799226E+00   -3.0075233157E+00
   -3.0000044919E+00   -2.9925231685E+00   -2.9850790657E+00   -2.9776719064E+00
   -2.9703014164E+00   -2.9629673239E+00   -2.9556693600E+00   -2.9484072584E+00
   -2.9411807554E+00   -2.9339895899E+00   -2.9268335034E+00   -2.9197122397E+00
   -2.9126255453E+00   -2.9055731692E+00   -2.8985548625E+00   -2.8915703791E+00
   -2.8846194751E+00   -2.8777019087E+00   -2.8708174408E+00   -2.8639658344E+00
   -2.8571468548E+00   -2.8503602695E+00   -2.8436058481E+00   -2.8368833625E+00
   -2.8301925869E+00   -2.8235332974E+00   -2.8169052721E+00   -2.8103082916E+00
   -2.8037421381E+00   -2.7972065961E+00   -2.7907014520E+00   -2.7842264943E+00
   -2.7777815133E+00   -2.7713663013E+00   -2.7649806525E+00   -2.7586243631E+00