O     ONCVPSP-4.0.1  r_core=   1.35491   1.45575   1.25353
      8.0000      6.0000      250925    zatom,zion,pspd
     8   -1012   2     4   600     0    pspcod,pspxc,lmax,lloc,mmax,r2well
  5.99000000  4.00000000  0.00000000    rchrg fchrg qchrg
     2     2     1     0    nproj
     3     1           extension_switch
     3     2     0    nprojso
   0                         5.8723407359112E+00  7.7333399787192E-01
     1  0.0000000000000E+00  2.5474932163760E-09 -5.7143705323170E-09
     2  1.0000000000000E-02  9.0504837167040E-02 -2.6386377903355E-02
     3  2.0000000000000E-02  1.8076386847514E-01 -5.2578094588869E-02
     4  3.0000000000000E-02  2.7053146756421E-01 -7.8380174936225E-02
     5  4.0000000000000E-02  3.5956238792318E-01 -1.0359706236505E-01
     6  5.0000000000000E-02  4.4761200426101E-01 -1.2803244243469E-01
     7  6.0000000000000E-02  5.3443661372257E-01 -1.5148919939088E-01
     8  7.0000000000000E-02  6.1979381380051E-01 -1.7376954301935E-01
     9  8.0000000000000E-02  7.0344297124670E-01 -1.9467533745167E-01
    10  9.0000000000000E-02  7.8514579323324E-01 -2.1400865672787E-01
    11  1.0000000000000E-01  8.6466700853562E-01 -2.3157258414294E-01
    12  1.1000000000000E-01  9.4177516270406E-01 -2.4717226390715E-01
    13  1.2000000000000E-01  1.0162435271558E+00 -2.6061620467191E-01
    14  1.3000000000000E-01  1.0878511179732E+00 -2.7171782526724E-01
    15  1.4000000000000E-01  1.1563838160425E+00 -2.8029722382523E-01
    16  1.5000000000000E-01  1.2216355761319E+00 -2.8618314259169E-01
    17  1.6000000000000E-01  1.2834097087026E+00 -2.8921509241346E-01
    18  1.7000000000000E-01  1.3415202147705E+00 -2.8924559337928E-01
    19  1.8000000000000E-01  1.3957931511089E+00 -2.8614248161643E-01
    20  1.9000000000000E-01  1.4460680005728E+00 -2.7979122700815E-01
    21  2.0000000000000E-01  1.4921990204324E+00 -2.7009720277184E-01
    22  2.1000000000000E-01  1.5340565403746E+00 -2.5698784556370E-01
    23  2.2000000000000E-01  1.5715281813233E+00 -2.4041464415395E-01
    24  2.3000000000000E-01  1.6045199664696E+00 -2.2035489580295E-01
    25  2.4000000000000E-01  1.6329572968952E+00 -1.9681317227876E-01
    26  2.5000000000000E-01  1.6567857659217E+00 -1.6982244195737E-01
    27  2.6000000000000E-01  1.6759717887779E+00 -1.3944480056340E-01
    28  2.7000000000000E-01  1.6905030273184E+00 -1.0577177071954E-01
    29  2.8000000000000E-01  1.7003885932697E+00 -6.8924139416466E-02
    30  2.9000000000000E-01  1.7056590177528E+00 -2.9051312593032E-02
    31  3.0000000000000E-01  1.7063659795323E+00  1.3669823006198E-02
    32  3.1000000000000E-01  1.7025817894655E+00  5.9036528910080E-02
    33  3.2000000000000E-01  1.6943986338486E+00  1.0682232117705E-01
    34  3.3000000000000E-01  1.6819275846621E+00  1.5677952803518E-01
    35  3.4000000000000E-01  1.6652973899603E+00  2.0864226132651E-01
    36  3.5000000000000E-01  1.6446530627196E+00  2.6212975294695E-01
    37  3.6000000000000E-01  1.6201542912025E+00  3.1694999709396E-01
    38  3.7000000000000E-01  1.5919736982116E+00  3.7280362989852E-01
    39  3.8000000000000E-01  1.5602949803635E+00  4.2938797018019E-01
    40  3.9000000000000E-01  1.5253109616168E+00  4.8640113886612E-01
    41  4.0000000000000E-01  1.4872215976448E+00  5.4354617024790E-01
    42  4.1000000000000E-01  1.4462319691823E+00  6.0053502587816E-01
    43  4.2000000000000E-01  1.4025503031401E+00  6.5709242164027E-01
    44  4.3000000000000E-01  1.3563860600413E+00  7.1295938042292E-01
    45  4.4000000000000E-01  1.3079481251695E+00  7.6789642691019E-01
    46  4.5000000000000E-01  1.2574431387494E+00  8.2168634721127E-01
    47  4.6000000000000E-01  1.2050739975298E+00  8.7413644431360E-01
    48  4.7000000000000E-01  1.1510385563635E+00  9.2508023049361E-01
    49  4.8000000000000E-01  1.0955285538529E+00  9.7437850967453E-01
    50  4.9000000000000E-01  1.0387287809493E+00  1.0219198160302E+00
    51  5.0000000000000E-01  9.8081650566404E-01  1.0676201896213E+00
    52  5.1000000000000E-01  9.2196116090612E-01  1.1114222851952E+00
    53  5.2000000000000E-01  8.6232429603491E-01  1.1532938261380E+00
    54  5.3000000000000E-01  8.0205978616140E-01  1.1932254315755E+00
    55  5.4000000000000E-01  7.4131428670088E-01  1.2312278603905E+00
    56  5.5000000000000E-01  6.8022791432922E-01  1.2673287310918E+00
    57  5.6000000000000E-01  6.1893512948340E-01  1.3015687906449E+00
    58  5.7000000000000E-01  5.5756579002125E-01  1.3339978182018E+00
    59  5.8000000000000E-01  4.9624634076258E-01  1.3646702608122E+00
    60  5.9000000000000E-01  4.3510109949961E-01  1.3936407073478E+00
    61  6.0000000000000E-01  3.7425359680823E-01  1.4209593137631E+00
    62  6.1000000000000E-01  3.1382792470573E-01  1.4466672972349E+00
    63  6.2000000000000E-01  2.5395004796408E-01  1.4707926184864E+00
    64  6.3000000000000E-01  1.9474903175109E-01  1.4933459706240E+00
    65  6.4000000000000E-01  1.3635814026336E-01  1.5143171890232E+00
    66  6.5000000000000E-01  7.8915763137358E-02  1.5336721902303E+00
    67  6.6000000000000E-01  2.2566129652470E-02  1.5513505385655E+00
    68  6.7000000000000E-01 -3.2540224976520E-02  1.5672637272751E+00
    69  6.8000000000000E-01 -8.6246271658146E-02  1.5812942468843E+00
    70  6.9000000000000E-01 -1.3838860213395E-01  1.5932954971205E+00
    71  7.0000000000000E-01 -1.8879786374298E-01  1.6030925807230E+00
    72  7.1000000000000E-01 -2.3729952413596E-01  1.6104839980013E+00
    73  7.2000000000000E-01 -2.8371496787244E-01  1.6152442405511E+00
    74  7.3000000000000E-01 -3.2786291859455E-01  1.6171272615295E+00
    75  7.4000000000000E-01 -3.6956117213484E-01  1.6158707787861E+00
    76  7.5000000000000E-01 -4.0862861767472E-01  1.6112013464173E+00
    77  7.6000000000000E-01 -4.4488751611502E-01  1.6028401104352E+00
    78  7.7000000000000E-01 -4.7816599733870E-01  1.5905091456827E+00
    79  7.8000000000000E-01 -5.0830073122180E-01  1.5739382543324E+00
    80  7.9000000000000E-01 -5.3513972125088E-01  1.5528720916937E+00
    81  8.0000000000000E-01 -5.5854516459048E-01  1.5270774729945E+00
    82  8.1000000000000E-01 -5.7839631854771E-01  1.4963507056389E+00
    83  8.2000000000000E-01 -5.9459231071843E-01  1.4605247854221E+00
    84  8.3000000000000E-01 -6.0705482875687E-01  1.4194762925406E+00
    85  8.4000000000000E-01 -6.1573062575203E-01  1.3731318240761E+00
    86  8.5000000000000E-01 -6.2059377864754E-01  1.3214738040464E+00
    87  8.6000000000000E-01 -6.2164764000965E-01  1.2645455200653E+00
    88  8.7000000000000E-01 -6.1892642769860E-01  1.2024552470634E+00
    89  8.8000000000000E-01 -6.1249640256910E-01  1.1353793332042E+00
    90  8.9000000000000E-01 -6.0245659112462E-01  1.0635641408557E+00
    91  9.0000000000000E-01 -5.8893901795504E-01  9.8732675591611E-01
    92  9.1000000000000E-01 -5.7210842165051E-01  9.0705440157076E-01
    93  9.2000000000000E-01 -5.5216143753498E-01  8.2320251723511E-01
    94  9.3000000000000E-01 -5.2932524080741E-01  7.3629148952148E-01
    95  9.4000000000000E-01 -5.0385565431050E-01  6.4690204903604E-01
    96  9.5000000000000E-01 -4.7603473594465E-01  5.5566937410635E-01
    97  9.6000000000000E-01 -4.4616787147989E-01  4.6327596958318E-01
    98  9.7000000000000E-01 -4.1458040896274E-01  3.7044341508419E-01
    99  9.8000000000000E-01 -3.8161388083949E-01  2.7792310187619E-01
   100  9.9000000000000E-01 -3.4762186910029E-01  1.8648610047934E-01
   101  1.0000000000000E+00 -3.1296557698314E-01  9.6912321502051E-02
   102  1.0100000000000E+00 -2.7800917787371E-01  9.9791497162861E-03
   103  1.0200000000000E+00 -2.4311501782408E-01 -7.3550254467547E-02
   104  1.0300000000000E+00 -2.0863875244629E-01 -1.5293878152067E-01
   105  1.0400000000000E+00 -1.7492450170419E-01 -2.2748711623248E-01
   106  1.0500000000000E+00 -1.4230010723960E-01 -2.9654518469929E-01
   107  1.0600000000000E+00 -1.1107257628190E-01 -3.5952309350408E-01
   108  1.0700000000000E+00 -8.1523793888378E-02 -4.1590135604698E-01
   109  1.0800000000000E+00 -5.3906581258437E-02 -4.6524021158196E-01
   110  1.0900000000000E+00 -2.8441172243619E-02 -5.0718785716262E-01
   111  1.1000000000000E+00 -5.3121729783727E-03 -5.4148743128740E-01
   112  1.1100000000000E+00  1.5333939015339E-02 -5.6798261004592E-01
   113  1.1200000000000E+00  3.3390729775085E-02 -5.8662170182929E-01
   114  1.1300000000000E+00  4.8793102325979E-02 -5.9746015446068E-01
   115  1.1400000000000E+00  6.1517944833342E-02 -6.0066141863798E-01
   116  1.1500000000000E+00  7.1584122122953E-02 -5.9649614303339E-01
   117  1.1600000000000E+00  7.9051812049291E-02 -5.8533970889611E-01
   118  1.1700000000000E+00  8.4021201097604E-02 -5.6766814461945E-01
   119  1.1800000000000E+00  8.6630566458303E-02 -5.4405249316111E-01
   120  1.1900000000000E+00  8.7053785054672E-02 -5.1515173916391E-01
   121  1.2000000000000E+00  8.5497310739983E-02 -4.8170439667803E-01
   122  1.2100000000000E+00  8.2196621882261E-02 -4.4451872307018E-01
   123  1.2200000000000E+00  7.7409948591318E-02 -4.0445447690139E-01
   124  1.2300000000000E+00  7.1410025667260E-02 -3.6239891091133E-01
   125  1.2400000000000E+00  6.4478294217407E-02 -3.1925120413203E-01
   126  1.2500000000000E+00  5.6899545369088E-02 -2.7590849380954E-01
   127  1.2600000000000E+00  4.8956507345760E-02 -2.3325179500253E-01
   128  1.2700000000000E+00  4.0924477584536E-02 -1.9213207403288E-01
   129  1.2800000000000E+00  3.3066104232866E-02 -1.5335670678523E-01
   130  1.2900000000000E+00  2.5626157494047E-02 -1.1767666801548E-01
   131  1.3000000000000E+00  1.8824155210245E-02 -8.5773551262798E-02
   132  1.3100000000000E+00  1.2856082233619E-02 -5.8248225569783E-02
   133  1.3200000000000E+00  7.8895143336582E-03 -3.5614055811851E-02
   134  1.3300000000000E+00  4.0586531367686E-03 -1.8288700303385E-02
   135  1.3400000000000E+00  1.4592783002218E-03 -6.5763370295900E-03
   136  1.3500000000000E+00  1.7518426808246E-04 -7.9106523129069E-04
   137  1.3600000000000E+00 -1.6316963705265E-05  7.3785035794391E-05
   138  1.3700000000000E+00  2.5308288561905E-06 -1.1429725271862E-05
   139  1.38  0.  0.
   140  1.39  0.  0.
   141  1.40  0.  0.
   142  1.41  0.  0.
   143  1.42  0.  0.
   144  1.43  0.  0.
   145  1.44  0.  0.
   146  1.45  0.  0.
   147  1.46  0.  0.
   148  1.47  0.  0.
   149  1.48  0.  0.
   150  1.49  0.  0.
   151  1.50  0.  0.
   152  1.51  0.  0.
   153  1.52  0.  0.
   154  1.53  0.  0.
   155  1.54  0.  0.
   156  1.55  0.  0.
   157  1.56  0.  0.
   158  1.57  0.  0.
   159  1.58  0.  0.
   160  1.59  0.  0.
   161  1.60  0.  0.
   162  1.61  0.  0.
   163  1.62  0.  0.
   164  1.63  0.  0.
   165  1.64  0.  0.
   166  1.65  0.  0.
   167  1.66  0.  0.
   168  1.67  0.  0.
   169  1.68  0.  0.
   170  1.69  0.  0.
   171  1.70  0.  0.
   172  1.71  0.  0.
   173  1.72  0.  0.
   174  1.73  0.  0.
   175  1.74  0.  0.
   176  1.75  0.  0.
   177  1.76  0.  0.
   178  1.77  0.  0.
   179  1.78  0.  0.
   180  1.79  0.  0.
   181  1.80  0.  0.
   182  1.81  0.  0.
   183  1.82  0.  0.
   184  1.83  0.  0.
   185  1.84  0.  0.
   186  1.85  0.  0.
   187  1.86  0.  0.
   188  1.87  0.  0.
   189  1.88  0.  0.
   190  1.89  0.  0.
   191  1.90  0.  0.
   192  1.91  0.  0.
   193  1.92  0.  0.
   194  1.93  0.  0.
   195  1.94  0.  0.
   196  1.95  0.  0.
   197  1.96  0.  0.
   198  1.97  0.  0.
   199  1.98  0.  0.
   200  1.99  0.  0.
   201  2.00  0.  0.
   202  2.01  0.  0.
   203  2.02  0.  0.
   204  2.03  0.  0.
   205  2.04  0.  0.
   206  2.05  0.  0.
   207  2.06  0.  0.
   208  2.07  0.  0.
   209  2.08  0.  0.
   210  2.09  0.  0.
   211  2.10  0.  0.
   212  2.11  0.  0.
   213  2.12  0.  0.
   214  2.13  0.  0.
   215  2.14  0.  0.
   216  2.15  0.  0.
   217  2.16  0.  0.
   218  2.17  0.  0.
   219  2.18  0.  0.
   220  2.19  0.  0.
   221  2.20  0.  0.
   222  2.21  0.  0.
   223  2.22  0.  0.
   224  2.23  0.  0.
   225  2.24  0.  0.
   226  2.25  0.  0.
   227  2.26  0.  0.
   228  2.27  0.  0.
   229  2.28  0.  0.
   230  2.29  0.  0.
   231  2.30  0.  0.
   232  2.31  0.  0.
   233  2.32  0.  0.
   234  2.33  0.  0.
   235  2.34  0.  0.
   236  2.35  0.  0.
   237  2.36  0.  0.
   238  2.37  0.  0.
   239  2.38  0.  0.
   240  2.39  0.  0.
   241  2.40  0.  0.
   242  2.41  0.  0.
   243  2.42  0.  0.
   244  2.43  0.  0.
   245  2.44  0.  0.
   246  2.45  0.  0.
   247  2.46  0.  0.
   248  2.47  0.  0.
   249  2.48  0.  0.
   250  2.49  0.  0.
   251  2.50  0.  0.
   252  2.51  0.  0.
   253  2.52  0.  0.
   254  2.53  0.  0.
   255  2.54  0.  0.
   256  2.55  0.  0.
   257  2.56  0.  0.
   258  2.57  0.  0.
   259  2.58  0.  0.
   260  2.59  0.  0.
   261  2.60  0.  0.
   262  2.61  0.  0.
   263  2.62  0.  0.
   264  2.63  0.  0.
   265  2.64  0.  0.
   266  2.65  0.  0.
   267  2.66  0.  0.
   268  2.67  0.  0.
   269  2.68  0.  0.
   270  2.69  0.  0.
   271  2.70  0.  0.
   272  2.71  0.  0.
   273  2.72  0.  0.
   274  2.73  0.  0.
   275  2.74  0.  0.
   276  2.75  0.  0.
   277  2.76  0.  0.
   278  2.77  0.  0.
   279  2.78  0.  0.
   280  2.79  0.  0.
   281  2.80  0.  0.
   282  2.81  0.  0.
   283  2.82  0.  0.
   284  2.83  0.  0.
   285  2.84  0.  0.
   286  2.85  0.  0.
   287  2.86  0.  0.
   288  2.87  0.  0.
   289  2.88  0.  0.
   290  2.89  0.  0.
   291  2.90  0.  0.
   292  2.91  0.  0.
   293  2.92  0.  0.
   294  2.93  0.  0.
   295  2.94  0.  0.
   296  2.95  0.  0.
   297  2.96  0.  0.
   298  2.97  0.  0.
   299  2.98  0.  0.
   300  2.99  0.  0.
   301  3.00  0.  0.
   302  3.01  0.  0.
   303  3.02  0.  0.
   304  3.03  0.  0.
   305  3.04  0.  0.
   306  3.05  0.  0.
   307  3.06  0.  0.
   308  3.07  0.  0.
   309  3.08  0.  0.
   310  3.09  0.  0.
   311  3.10  0.  0.
   312  3.11  0.  0.
   313  3.12  0.  0.
   314  3.13  0.  0.
   315  3.14  0.  0.
   316  3.15  0.  0.
   317  3.16  0.  0.
   318  3.17  0.  0.
   319  3.18  0.  0.
   320  3.19  0.  0.
   321  3.20  0.  0.
   322  3.21  0.  0.
   323  3.22  0.  0.
   324  3.23  0.  0.
   325  3.24  0.  0.
   326  3.25  0.  0.
   327  3.26  0.  0.
   328  3.27  0.  0.
   329  3.28  0.  0.
   330  3.29  0.  0.
   331  3.30  0.  0.
   332  3.31  0.  0.
   333  3.32  0.  0.
   334  3.33  0.  0.
   335  3.34  0.  0.
   336  3.35  0.  0.
   337  3.36  0.  0.
   338  3.37  0.  0.
   339  3.38  0.  0.
   340  3.39  0.  0.
   341  3.40  0.  0.
   342  3.41  0.  0.
   343  3.42  0.  0.
   344  3.43  0.  0.
   345  3.44  0.  0.
   346  3.45  0.  0.
   347  3.46  0.  0.
   348  3.47  0.  0.
   349  3.48  0.  0.
   350  3.49  0.  0.
   351  3.50  0.  0.
   352  3.51  0.  0.
   353  3.52  0.  0.
   354  3.53  0.  0.
   355  3.54  0.  0.
   356  3.55  0.  0.
   357  3.56  0.  0.
   358  3.57  0.  0.
   359  3.58  0.  0.
   360  3.59  0.  0.
   361  3.60  0.  0.
   362  3.61  0.  0.
   363  3.62  0.  0.
   364  3.63  0.  0.
   365  3.64  0.  0.
   366  3.65  0.  0.
   367  3.66  0.  0.
   368  3.67  0.  0.
   369  3.68  0.  0.
   370  3.69  0.  0.
   371  3.70  0.  0.
   372  3.71  0.  0.
   373  3.72  0.  0.
   374  3.73  0.  0.
   375  3.74  0.  0.
   376  3.75  0.  0.
   377  3.76  0.  0.
   378  3.77  0.  0.
   379  3.78  0.  0.
   380  3.79  0.  0.
   381  3.80  0.  0.
   382  3.81  0.  0.
   383  3.82  0.  0.
   384  3.83  0.  0.
   385  3.84  0.  0.
   386  3.85  0.  0.
   387  3.86  0.  0.
   388  3.87  0.  0.
   389  3.88  0.  0.
   390  3.89  0.  0.
   391  3.90  0.  0.
   392  3.91  0.  0.
   393  3.92  0.  0.
   394  3.93  0.  0.
   395  3.94  0.  0.
   396  3.95  0.  0.
   397  3.96  0.  0.
   398  3.97  0.  0.
   399  3.98  0.  0.
   400  3.99  0.  0.
   401  4.00  0.  0.
   402  4.01  0.  0.
   403  4.02  0.  0.
   404  4.03  0.  0.
   405  4.04  0.  0.
   406  4.05  0.  0.
   407  4.06  0.  0.
   408  4.07  0.  0.
   409  4.08  0.  0.
   410  4.09  0.  0.
   411  4.10  0.  0.
   412  4.11  0.  0.
   413  4.12  0.  0.
   414  4.13  0.  0.
   415  4.14  0.  0.
   416  4.15  0.  0.
   417  4.16  0.  0.
   418  4.17  0.  0.
   419  4.18  0.  0.
   420  4.19  0.  0.
   421  4.20  0.  0.
   422  4.21  0.  0.
   423  4.22  0.  0.
   424  4.23  0.  0.
   425  4.24  0.  0.
   426  4.25  0.  0.
   427  4.26  0.  0.
   428  4.27  0.  0.
   429  4.28  0.  0.
   430  4.29  0.  0.
   431  4.30  0.  0.
   432  4.31  0.  0.
   433  4.32  0.  0.
   434  4.33  0.  0.
   435  4.34  0.  0.
   436  4.35  0.  0.
   437  4.36  0.  0.
   438  4.37  0.  0.
   439  4.38  0.  0.
   440  4.39  0.  0.
   441  4.40  0.  0.
   442  4.41  0.  0.
   443  4.42  0.  0.
   444  4.43  0.  0.
   445  4.44  0.  0.
   446  4.45  0.  0.
   447  4.46  0.  0.
   448  4.47  0.  0.
   449  4.48  0.  0.
   450  4.49  0.  0.
   451  4.50  0.  0.
   452  4.51  0.  0.
   453  4.52  0.  0.
   454  4.53  0.  0.
   455  4.54  0.  0.
   456  4.55  0.  0.
   457  4.56  0.  0.
   458  4.57  0.  0.
   459  4.58  0.  0.
   460  4.59  0.  0.
   461  4.60  0.  0.
   462  4.61  0.  0.
   463  4.62  0.  0.
   464  4.63  0.  0.
   465  4.64  0.  0.
   466  4.65  0.  0.
   467  4.66  0.  0.
   468  4.67  0.  0.
   469  4.68  0.  0.
   470  4.69  0.  0.
   471  4.70  0.  0.
   472  4.71  0.  0.
   473  4.72  0.  0.
   474  4.73  0.  0.
   475  4.74  0.  0.
   476  4.75  0.  0.
   477  4.76  0.  0.
   478  4.77  0.  0.
   479  4.78  0.  0.
   480  4.79  0.  0.
   481  4.80  0.  0.
   482  4.81  0.  0.
   483  4.82  0.  0.
   484  4.83  0.  0.
   485  4.84  0.  0.
   486  4.85  0.  0.
   487  4.86  0.  0.
   488  4.87  0.  0.
   489  4.88  0.  0.
   490  4.89  0.  0.
   491  4.90  0.  0.
   492  4.91  0.  0.
   493  4.92  0.  0.
   494  4.93  0.  0.
   495  4.94  0.  0.
   496  4.95  0.  0.
   497  4.96  0.  0.
   498  4.97  0.  0.
   499  4.98  0.  0.
   500  4.99  0.  0.
   501  5.00  0.  0.
   502  5.01  0.  0.
   503  5.02  0.  0.
   504  5.03  0.  0.
   505  5.04  0.  0.
   506  5.05  0.  0.
   507  5.06  0.  0.
   508  5.07  0.  0.
   509  5.08  0.  0.
   510  5.09  0.  0.
   511  5.10  0.  0.
   512  5.11  0.  0.
   513  5.12  0.  0.
   514  5.13  0.  0.
   515  5.14  0.  0.
   516  5.15  0.  0.
   517  5.16  0.  0.
   518  5.17  0.  0.
   519  5.18  0.  0.
   520  5.19  0.  0.
   521  5.20  0.  0.
   522  5.21  0.  0.
   523  5.22  0.  0.
   524  5.23  0.  0.
   525  5.24  0.  0.
   526  5.25  0.  0.
   527  5.26  0.  0.
   528  5.27  0.  0.
   529  5.28  0.  0.
   530  5.29  0.  0.
   531  5.30  0.  0.
   532  5.31  0.  0.
   533  5.32  0.  0.
   534  5.33  0.  0.
   535  5.34  0.  0.
   536  5.35  0.  0.
   537  5.36  0.  0.
   538  5.37  0.  0.
   539  5.38  0.  0.
   540  5.39  0.  0.
   541  5.40  0.  0.
   542  5.41  0.  0.
   543  5.42  0.  0.
   544  5.43  0.  0.
   545  5.44  0.  0.
   546  5.45  0.  0.
   547  5.46  0.  0.
   548  5.47  0.  0.
   549  5.48  0.  0.
   550  5.49  0.  0.
   551  5.50  0.  0.
   552  5.51  0.  0.
   553  5.52  0.  0.
   554  5.53  0.  0.
   555  5.54  0.  0.
   556  5.55  0.  0.
   557  5.56  0.  0.
   558  5.57  0.  0.
   559  5.58  0.  0.
   560  5.59  0.  0.
   561  5.60  0.  0.
   562  5.61  0.  0.
   563  5.62  0.  0.
   564  5.63  0.  0.
   565  5.64  0.  0.
   566  5.65  0.  0.
   567  5.66  0.  0.
   568  5.67  0.  0.
   569  5.68  0.  0.
   570  5.69  0.  0.
   571  5.70  0.  0.
   572  5.71  0.  0.
   573  5.72  0.  0.
   574  5.73  0.  0.
   575  5.74  0.  0.
   576  5.75  0.  0.
   577  5.76  0.  0.
   578  5.77  0.  0.
   579  5.78  0.  0.
   580  5.79  0.  0.
   581  5.80  0.  0.
   582  5.81  0.  0.
   583  5.82  0.  0.
   584  5.83  0.  0.
   585  5.84  0.  0.
   586  5.85  0.  0.
   587  5.86  0.  0.
   588  5.87  0.  0.
   589  5.88  0.  0.
   590  5.89  0.  0.
   591  5.90  0.  0.
   592  5.91  0.  0.
   593  5.92  0.  0.
   594  5.93  0.  0.
   595  5.94  0.  0.
   596  5.95  0.  0.
   597  5.96  0.  0.
   598  5.97  0.  0.
   599  5.98  0.  0.
   600  5.99  0.  0.
   1                        -4.7285652299599E+00 -1.1178868270122E+00
     1  0.0000000000000E+00 -2.9103029430821E-09  7.0452655931419E-09
     2  1.0000000000000E-02  2.0615940932493E-03 -8.5651866090797E-04
     3  2.0000000000000E-02  8.2384158179265E-03 -3.4226521496883E-03
     4  3.0000000000000E-02  1.8506557048098E-02 -7.6880172065459E-03
     5  4.0000000000000E-02  3.2826084569941E-02 -1.3634926949690E-02
     6  5.0000000000000E-02  5.1140917051171E-02 -2.1237834251825E-02
     7  6.0000000000000E-02  7.3378665559822E-02 -3.0462583126028E-02
     8  7.0000000000000E-02  9.9450449957687E-02 -4.1265497763344E-02
     9  8.0000000000000E-02  1.2925070640405E-01 -5.3592345909662E-02
    10  9.0000000000000E-02  1.6265700367893E-01 -6.7377219297740E-02
    11  1.0000000000000E-01  1.9952988799674E-01 -8.2541378686585E-02
    12  1.1000000000000E-01  2.3971277737067E-01 -9.8992114564073E-02
    13  1.2000000000000E-01  2.8303192735733E-01 -1.1662167663099E-01
    14  1.3000000000000E-01  3.2929649012985E-01 -1.3530632573163E-01
    15  1.4000000000000E-01  3.7829868828004E-01 -1.5490556089737E-01
    16  1.5000000000000E-01  4.2981412353964E-01 -1.7526157162818E-01
    17  1.6000000000000E-01  4.8360223875530E-01 -1.9619896150217E-01
    18  1.7000000000000E-01  5.3940694898890E-01 -2.1752478375663E-01
    19  1.8000000000000E-01  5.9695745459480E-01 -2.3902892275096E-01
    20  1.9000000000000E-01  6.5596924561596E-01 -2.6048484735490E-01
    21  2.0000000000000E-01  7.1614530292108E-01 -2.8165075349365E-01
    22  2.1000000000000E-01  7.7717749726633E-01 -3.0227110353753E-01
    23  2.2000000000000E-01  8.3874818300728E-01 -3.2207856017926E-01
    24  2.3000000000000E-01  9.0053197861808E-01 -3.4079630214947E-01
    25  2.4000000000000E-01  9.6219772160556E-01 -3.5814069883651E-01
    26  2.5000000000000E-01  1.0234105809494E+00 -3.7382431086409E-01
    27  2.6000000000000E-01  1.0838343059685E+00 -3.8755917419655E-01
    28  2.7000000000000E-01  1.1431335866131E+00 -3.9906031663745E-01
    29  2.8000000000000E-01  1.2009764967201E+00 -4.0804944789353E-01
    30  2.9000000000000E-01  1.2570369888272E+00 -4.1425875790667E-01
    31  3.0000000000000E-01  1.3109974068125E+00 -4.1743475309198E-01
    32  3.1000000000000E-01  1.3625509809711E+00 -4.1734205661665E-01
    33  3.2000000000000E-01  1.4114042692078E+00 -4.1376709702289E-01
    34  3.3000000000000E-01  1.4572795078650E+00 -4.0652160942039E-01
    35  3.4000000000000E-01  1.4999168363143E+00 -3.9544587518020E-01
    36  3.5000000000000E-01  1.5390763608433E+00 -3.8041162954771E-01
    37  3.6000000000000E-01  1.5745400255216E+00 -3.6132457180399E-01
    38  3.7000000000000E-01  1.6061132606187E+00 -3.3812641944972E-01
    39  3.8000000000000E-01  1.6336263826987E+00 -3.1079645622916E-01
    40  3.9000000000000E-01  1.6569357246716E+00 -2.7935253347918E-01
    41  4.0000000000000E-01  1.6759244787509E+00 -2.4385149507551E-01
    42  4.1000000000000E-01  1.6905032403499E+00 -2.0438900791531E-01
    43  4.2000000000000E-01  1.7006102463368E+00 -1.6109879216271E-01
    44  4.3000000000000E-01  1.7062113066487E+00 -1.1415125811048E-01
    45  4.4000000000000E-01  1.7072994339002E+00 -6.3751569185434E-02
    46  4.5000000000000E-01  1.7038941811998E+00 -1.0137163048958E-02
    47  4.6000000000000E-01  1.6960407037755E+00  4.6425225376341E-02
    48  4.7000000000000E-01  1.6838085650820E+00  1.0564298407772E-01
    49  4.8000000000000E-01  1.6672903127043E+00  1.6720142250035E-01
    50  4.9000000000000E-01  1.6465998534785E+00  2.3076787506086E-01
    51  5.0000000000000E-01  1.6218706607166E+00  2.9599602919452E-01
    52  5.1000000000000E-01  1.5932538491708E+00  3.6253039224068E-01
    53  5.2000000000000E-01  1.5609161553375E+00  4.3001080811153E-01
    54  5.3000000000000E-01  1.5250378618274E+00  4.9807693333630E-01
    55  5.4000000000000E-01  1.4858107047927E+00  5.6637258278344E-01
    56  5.5000000000000E-01  1.4434358027888E+00  6.3454985814787E-01
    57  5.6000000000000E-01  1.3981216439723E+00  7.0227297710779E-01
    58  5.7000000000000E-01  1.3500821662234E+00  7.6922172781768E-01
    59  5.8000000000000E-01  1.2995349616889E+00  8.3509448197729E-01
    60  5.9000000000000E-01  1.2466996334324E+00  8.9961070991739E-01
    61  6.0000000000000E-01  1.1917963274409E+00  9.6251295275387E-01
    62  6.1000000000000E-01  1.1350444582802E+00  1.0235682194233E+00
    63  6.2000000000000E-01  1.0766616413215E+00  1.0825687900382E+00
    64  6.3000000000000E-01  1.0168628388120E+00  1.1393324211771E+00
    65  6.4000000000000E-01  9.5585972126504E-01  1.1937019631208E+00
    66  6.5000000000000E-01  8.9386023984107E-01  1.2455444133291E+00
    67  6.6000000000000E-01  8.3106839971741E-01  1.2947494442733E+00
    68  6.7000000000000E-01  7.6768421904572E-01  1.3412274567666E+00
    69  6.8000000000000E-01  7.0390385310101E-01  1.3849072218521E+00
    70  6.9000000000000E-01  6.3991985876346E-01  1.4257331848056E+00
    71  7.0000000000000E-01  5.7592157065711E-01  1.4636625136292E+00
    72  7.1000000000000E-01  5.1209555719800E-01  1.4986619813122E+00
    73  7.2000000000000E-01  4.4862612256182E-01  1.5307047759238E+00
    74  7.3000000000000E-01  3.8569581923196E-01  1.5597673351415E+00
    75  7.4000000000000E-01  3.2348593537621E-01  1.5858263020043E+00
    76  7.5000000000000E-01  2.6217692184669E-01  1.6088556964776E+00
    77  7.6000000000000E-01  2.0194872510086E-01  1.6288243928465E+00
    78  7.7000000000000E-01  1.4298099477825E-01  1.6456939860741E+00
    79  7.8000000000000E-01  8.5453137990054E-02  1.6594171212170E+00
    80  7.9000000000000E-01  2.9544196519262E-02  1.6699363489464E+00
    81  8.0000000000000E-01 -2.4567472003583E-02  1.6771835574172E+00
    82  8.1000000000000E-01 -7.6704722396748E-02  1.6810800164363E+00
    83  8.2000000000000E-01 -1.2669236716216E-01  1.6815370544159E+00
    84  8.3000000000000E-01 -1.7435813978821E-01  1.6784573723043E+00
    85  8.4000000000000E-01 -2.1953387070735E-01  1.6717369819450E+00
    86  8.5000000000000E-01 -2.6205686390304E-01  1.6612677395065E+00
    87  8.6000000000000E-01 -3.0177145568124E-01  1.6469404281524E+00
    88  8.7000000000000E-01 -3.3853073091385E-01  1.6286483283805E+00
    89  8.8000000000000E-01 -3.7219836628530E-01  1.6062911998353E+00
    90  8.9000000000000E-01 -4.0265056487635E-01  1.5797795852585E+00
    91  9.0000000000000E-01 -4.2977804194267E-01  1.5490393359322E+00
    92  9.1000000000000E-01 -4.5348801811231E-01  1.5140162487785E+00
    93  9.2000000000000E-01 -4.7370617354543E-01  1.4746806984888E+00
    94  9.3000000000000E-01 -4.9037851495724E-01  1.4310321438494E+00
    95  9.4000000000000E-01 -5.0347310686566E-01  1.3831033859892E+00
    96  9.5000000000000E-01 -5.1298161903075E-01  1.3309644576649E+00
    97  9.6000000000000E-01 -5.1892064381546E-01  1.2747260269773E+00
    98  9.7000000000000E-01 -5.2133274010694E-01  1.2145422060179E+00
    99  9.8000000000000E-01 -5.2028716445570E-01  1.1506126648020E+00
   100  9.9000000000000E-01 -5.1588025515204E-01  1.0831839632723E+00
   101  1.0000000000000E+00 -5.0823544097387E-01  1.0125500289362E+00
   102  1.0100000000000E+00 -4.9750285319811E-01  9.3905172455095E-01
   103  1.0200000000000E+00 -4.8385852703387E-01  8.6307546886079E-01
   104  1.0300000000000E+00 -4.6750318675455E-01  7.8505089333656E-01
   105  1.0400000000000E+00 -4.4866061731115E-01  7.0544753874795E-01
   106  1.0500000000000E+00 -4.2757563393017E-01  6.2477061680779E-01
   107  1.0600000000000E+00 -4.0451166992691E-01  5.4355588353530E-01
   108  1.0700000000000E+00 -3.7974801153313E-01  4.6236369199124E-01
   109  1.0800000000000E+00 -3.5357671674291E-01  3.8177231213970E-01
   110  1.0900000000000E+00 -3.2629926282319E-01  3.0237062429976E-01
   111  1.1000000000000E+00 -2.9822297407903E-01  2.2475030963114E-01
   112  1.1100000000000E+00 -2.6965728748431E-01  1.4949767580328E-01
   113  1.1200000000000E+00 -2.4090991880199E-01  7.7185268220702E-02
   114  1.1300000000000E+00 -2.1228299564056E-01  8.3634264732560E-03
   115  1.1400000000000E+00 -1.8406922646367E-01 -5.6448048104422E-02
   116  1.1500000000000E+00 -1.5654817578008E-01 -1.1676794500055E-01
   117  1.1600000000000E+00 -1.2998271555666E-01 -1.7216124900242E-01
   118  1.1700000000000E+00 -1.0461572129606E-01 -2.2224613237713E-01
   119  1.1800000000000E+00 -8.0667078191063E-02 -2.6670017806761E-01
   120  1.1900000000000E+00 -5.8331058731297E-02 -3.0526568681614E-01
   121  1.2000000000000E+00 -3.7774123256839E-02 -3.3775395021213E-01
   122  1.2100000000000E+00 -1.9133169516707E-02 -3.6404845680583E-01
   123  1.2200000000000E+00 -2.5134232115053E-03 -3.8410998662182E-01
   124  1.2300000000000E+00  1.2013764065421E-02 -3.9798246919770E-01
   125  1.2400000000000E+00  2.4411563396951E-02 -4.0579368595534E-01
   126  1.2500000000000E+00  3.4677524328526E-02 -4.0775377056617E-01
   127  1.2600000000000E+00  4.2842857912624E-02 -4.0415233085887E-01
   128  1.2700000000000E+00  4.8971154725127E-02 -3.9535421251166E-01
   129  1.2800000000000E+00  5.3156558490907E-02 -3.8179395902790E-01
   130  1.2900000000000E+00  5.5521425873876E-02 -3.6396904618021E-01
   131  1.3000000000000E+00  5.6213512975517E-02 -3.4243199357253E-01
   132  1.3100000000000E+00  5.5402738299045E-02 -3.1778147843613E-01
   133  1.3200000000000E+00  5.3277580256695E-02 -2.9065259704265E-01
   134  1.3300000000000E+00  5.0041174578151E-02 -2.6170643682608E-01
   135  1.3400000000000E+00  4.5907183067171E-02 -2.3161913708369E-01
   136  1.3500000000000E+00  4.1095509870443E-02 -2.0107062753283E-01
   137  1.3600000000000E+00  3.5827943257927E-02 -1.7073323906614E-01
   138  1.3700000000000E+00  3.0323817269043E-02 -1.4126041360320E-01
   139  1.3800000000000E+00  2.4795718668152E-02 -1.1327560572170E-01
   140  1.3900000000000E+00  1.9446858864387E-02 -8.7364582509296E-02
   141  1.4000000000000E+00  1.4467474069450E-02 -6.4066113464067E-02
   142  1.4100000000000E+00  1.0024663848174E-02 -4.3849862675420E-02
   143  1.4200000000000E+00  6.2643405195243E-03 -2.7118202902655E-02
   144  1.4300000000000E+00  3.3086677255622E-03 -1.4199686163918E-02