<UPF version="2.0.1">
  <PP_INFO>

 This pseudopotential file has been produced using the code
 ONCVPSP  (Optimized Norm-Conservinng Vanderbilt PSeudopotential)
 fully-relativistic version 4.0.1 06/04/2019 by D. R. Hamann
 The code is available through a link at URL www.mat-simresearch.com.
 Documentation with the package provides a full discription of the
 input data below.


 While it is not required under the terms of the GNU GPL, it is
 suggested that you cite D. R. Hamann, Phys. Rev. B 88, 085117 (2013)
 in any publication using these pseudopotentials.

    <PP_INPUTFILE>
# ATOM AND REFERENCE CONFIGURATION
# atsym  z   nc   nv     iexc    psfile
  O  8.00    1    2   -1012      both
#
#   n    l    f        energy (Ha)
    1    0    2.00
    2    0    2.00
    2    1    4.00
#
# PSEUDOPOTENTIAL AND OPTIMIZATION
# lmax
    2
#
#   l,   rc,     ep,   ncon, nbas, qcut
    0   1.35000   0.00000    4    8   8.40000
    1   1.45000   0.00000    4    8   9.30000
    2   1.25000   0.10000    4    8   6.00000
#
# LOCAL POTENTIAL
# lloc, lpopt,  rc(5),   dvloc0
    4    5   1.20000      0.00000
#
# VANDERBILT-KLEINMAN-BYLANDER PROJECTORs
# l, nproj, debl
    0    2   1.00000
    1    2   1.00000
    2    1   1.00000
#
# MODEL CORE CHARGE
# icmod, fcfact, rcfact
    3   4.00000   1.50000
#
# LOG DERIVATIVE ANALYSIS
# epsh1, epsh2, depsh
  -12.00   12.00    0.02
#
# OUTPUT GRID
# rlmax, drl
    6.00    0.01
#
# TEST CONFIGURATIONS
# ncnf
    0
# nvcnf
#   n    l    f
    </PP_INPUTFILE>
  </PP_INFO>
  <!--                               -->
  <!-- END OF HUMAN READABLE SECTION -->
  <!--                               -->
    <PP_HEADER
       generated="Generated using ONCVPSP code by D. R. Hamann"
       author="anonymous"
       date="250925"
       comment=""
       element="O "
       pseudo_type="NC"
       relativistic="full"
       is_ultrasoft="F"
       is_paw="F"
       is_coulomb="F"
       has_so="T"
       has_wfc="F"
       has_gipaw="F"
       core_correction="T"
       functional="SLA  PW   NOGX NOGC"
       z_valence="    6.00"
       total_psenergy="  -3.14849658876E+01"
       rho_cutoff="   9.25000000000E+00"
       l_max="2"
       l_local="-1"
       mesh_size="   926"
       number_of_wfc="3"
       number_of_proj="8"/>
 <PP_MESH>
   <PP_R type="real"  size=" 926" columns="8">
    0.0000    0.0100    0.0200    0.0300    0.0400    0.0500    0.0600    0.0700
    0.0800    0.0900    0.1000    0.1100    0.1200    0.1300    0.1400    0.1500
    0.1600    0.1700    0.1800    0.1900    0.2000    0.2100    0.2200    0.2300
    0.2400    0.2500    0.2600    0.2700    0.2800    0.2900    0.3000    0.3100
    0.3200    0.3300    0.3400    0.3500    0.3600    0.3700    0.3800    0.3900
    0.4000    0.4100    0.4200    0.4300    0.4400    0.4500    0.4600    0.4700
    0.4800    0.4900    0.5000    0.5100    0.5200    0.5300    0.5400    0.5500
    0.5600    0.5700    0.5800    0.5900    0.6000    0.6100    0.6200    0.6300
    0.6400    0.6500    0.6600    0.6700    0.6800    0.6900    0.7000    0.7100
    0.7200    0.7300    0.7400    0.7500    0.7600    0.7700    0.7800    0.7900
    0.8000    0.8100    0.8200    0.8300    0.8400    0.8500    0.8600    0.8700
    0.8800    0.8900    0.9000    0.9100    0.9200    0.9300    0.9400    0.9500
    0.9600    0.9700    0.9800    0.9900    1.0000    1.0100    1.0200    1.0300
    1.0400    1.0500    1.0600    1.0700    1.0800    1.0900    1.1000    1.1100
    1.1200    1.1300    1.1400    1.1500    1.1600    1.1700    1.1800    1.1900
    1.2000    1.2100    1.2200    1.2300    1.2400    1.2500    1.2600    1.2700
    1.2800    1.2900    1.3000    1.3100    1.3200    1.3300    1.3400    1.3500
    1.3600    1.3700    1.3800    1.3900    1.4000    1.4100    1.4200    1.4300
    1.4400    1.4500    1.4600    1.4700    1.4800    1.4900    1.5000    1.5100
    1.5200    1.5300    1.5400    1.5500    1.5600    1.5700    1.5800    1.5900
    1.6000    1.6100    1.6200    1.6300    1.6400    1.6500    1.6600    1.6700
    1.6800    1.6900    1.7000    1.7100    1.7200    1.7300    1.7400    1.7500
    1.7600    1.7700    1.7800    1.7900    1.8000    1.8100    1.8200    1.8300
    1.8400    1.8500    1.8600    1.8700    1.8800    1.8900    1.9000    1.9100
    1.9200    1.9300    1.9400    1.9500    1.9600    1.9700    1.9800    1.9900
    2.0000    2.0100    2.0200    2.0300    2.0400    2.0500    2.0600    2.0700
    2.0800    2.0900    2.1000    2.1100    2.1200    2.1300    2.1400    2.1500
    2.1600    2.1700    2.1800    2.1900    2.2000    2.2100    2.2200    2.2300
    2.2400    2.2500    2.2600    2.2700    2.2800    2.2900    2.3000    2.3100
    2.3200    2.3300    2.3400    2.3500    2.3600    2.3700    2.3800    2.3900
    2.4000    2.4100    2.4200    2.4300    2.4400    2.4500    2.4600    2.4700
    2.4800    2.4900    2.5000    2.5100    2.5200    2.5300    2.5400    2.5500
    2.5600    2.5700    2.5800    2.5900    2.6000    2.6100    2.6200    2.6300
    2.6400    2.6500    2.6600    2.6700    2.6800    2.6900    2.7000    2.7100
    2.7200    2.7300    2.7400    2.7500    2.7600    2.7700    2.7800    2.7900
    2.8000    2.8100    2.8200    2.8300    2.8400    2.8500    2.8600    2.8700
    2.8800    2.8900    2.9000    2.9100    2.9200    2.9300    2.9400    2.9500
    2.9600    2.9700    2.9800    2.9900    3.0000    3.0100    3.0200    3.0300
    3.0400    3.0500    3.0600    3.0700    3.0800    3.0900    3.1000    3.1100
    3.1200    3.1300    3.1400    3.1500    3.1600    3.1700    3.1800    3.1900
    3.2000    3.2100    3.2200    3.2300    3.2400    3.2500    3.2600    3.2700
    3.2800    3.2900    3.3000    3.3100    3.3200    3.3300    3.3400    3.3500
    3.3600    3.3700    3.3800    3.3900    3.4000    3.4100    3.4200    3.4300
    3.4400    3.4500    3.4600    3.4700    3.4800    3.4900    3.5000    3.5100
    3.5200    3.5300    3.5400    3.5500    3.5600    3.5700    3.5800    3.5900
    3.6000    3.6100    3.6200    3.6300    3.6400    3.6500    3.6600    3.6700
    3.6800    3.6900    3.7000    3.7100    3.7200    3.7300    3.7400    3.7500
    3.7600    3.7700    3.7800    3.7900    3.8000    3.8100    3.8200    3.8300
    3.8400    3.8500    3.8600    3.8700    3.8800    3.8900    3.9000    3.9100
    3.9200    3.9300    3.9400    3.9500    3.9600    3.9700    3.9800    3.9900
    4.0000    4.0100    4.0200    4.0300    4.0400    4.0500    4.0600    4.0700
    4.0800    4.0900    4.1000    4.1100    4.1200    4.1300    4.1400    4.1500
    4.1600    4.1700    4.1800    4.1900    4.2000    4.2100    4.2200    4.2300
    4.2400    4.2500    4.2600    4.2700    4.2800    4.2900    4.3000    4.3100
    4.3200    4.3300    4.3400    4.3500    4.3600    4.3700    4.3800    4.3900
    4.4000    4.4100    4.4200    4.4300    4.4400    4.4500    4.4600    4.4700
    4.4800    4.4900    4.5000    4.5100    4.5200    4.5300    4.5400    4.5500
    4.5600    4.5700    4.5800    4.5900    4.6000    4.6100    4.6200    4.6300
    4.6400    4.6500    4.6600    4.6700    4.6800    4.6900    4.7000    4.7100
    4.7200    4.7300    4.7400    4.7500    4.7600    4.7700    4.7800    4.7900
    4.8000    4.8100    4.8200    4.8300    4.8400    4.8500    4.8600    4.8700
    4.8800    4.8900    4.9000    4.9100    4.9200    4.9300    4.9400    4.9500
    4.9600    4.9700    4.9800    4.9900    5.0000    5.0100    5.0200    5.0300
    5.0400    5.0500    5.0600    5.0700    5.0800    5.0900    5.1000    5.1100
    5.1200    5.1300    5.1400    5.1500    5.1600    5.1700    5.1800    5.1900
    5.2000    5.2100    5.2200    5.2300    5.2400    5.2500    5.2600    5.2700
    5.2800    5.2900    5.3000    5.3100    5.3200    5.3300    5.3400    5.3500
    5.3600    5.3700    5.3800    5.3900    5.4000    5.4100    5.4200    5.4300
    5.4400    5.4500    5.4600    5.4700    5.4800    5.4900    5.5000    5.5100
    5.5200    5.5300    5.5400    5.5500    5.5600    5.5700    5.5800    5.5900
    5.6000    5.6100    5.6200    5.6300    5.6400    5.6500    5.6600    5.6700
    5.6800    5.6900    5.7000    5.7100    5.7200    5.7300    5.7400    5.7500
    5.7600    5.7700    5.7800    5.7900    5.8000    5.8100    5.8200    5.8300
    5.8400    5.8500    5.8600    5.8700    5.8800    5.8900    5.9000    5.9100
    5.9200    5.9300    5.9400    5.9500    5.9600    5.9700    5.9800    5.9900
    6.0000    6.0100    6.0200    6.0300    6.0400    6.0500    6.0600    6.0700
    6.0800    6.0900    6.1000    6.1100    6.1200    6.1300    6.1400    6.1500
    6.1600    6.1700    6.1800    6.1900    6.2000    6.2100    6.2200    6.2300
    6.2400    6.2500    6.2600    6.2700    6.2800    6.2900    6.3000    6.3100
    6.3200    6.3300    6.3400    6.3500    6.3600    6.3700    6.3800    6.3900
    6.4000    6.4100    6.4200    6.4300    6.4400    6.4500    6.4600    6.4700
    6.4800    6.4900    6.5000    6.5100    6.5200    6.5300    6.5400    6.5500
    6.5600    6.5700    6.5800    6.5900    6.6000    6.6100    6.6200    6.6300
    6.6400    6.6500    6.6600    6.6700    6.6800    6.6900    6.7000    6.7100
    6.7200    6.7300    6.7400    6.7500    6.7600    6.7700    6.7800    6.7900
    6.8000    6.8100    6.8200    6.8300    6.8400    6.8500    6.8600    6.8700
    6.8800    6.8900    6.9000    6.9100    6.9200    6.9300    6.9400    6.9500
    6.9600    6.9700    6.9800    6.9900    7.0000    7.0100    7.0200    7.0300
    7.0400    7.0500    7.0600    7.0700    7.0800    7.0900    7.1000    7.1100
    7.1200    7.1300    7.1400    7.1500    7.1600    7.1700    7.1800    7.1900
    7.2000    7.2100    7.2200    7.2300    7.2400    7.2500    7.2600    7.2700
    7.2800    7.2900    7.3000    7.3100    7.3200    7.3300    7.3400    7.3500
    7.3600    7.3700    7.3800    7.3900    7.4000    7.4100    7.4200    7.4300
    7.4400    7.4500    7.4600    7.4700    7.4800    7.4900    7.5000    7.5100
    7.5200    7.5300    7.5400    7.5500    7.5600    7.5700    7.5800    7.5900
    7.6000    7.6100    7.6200    7.6300    7.6400    7.6500    7.6600    7.6700
    7.6800    7.6900    7.7000    7.7100    7.7200    7.7300    7.7400    7.7500
    7.7600    7.7700    7.7800    7.7900    7.8000    7.8100    7.8200    7.8300
    7.8400    7.8500    7.8600    7.8700    7.8800    7.8900    7.9000    7.9100
    7.9200    7.9300    7.9400    7.9500    7.9600    7.9700    7.9800    7.9900
    8.0000    8.0100    8.0200    8.0300    8.0400    8.0500    8.0600    8.0700
    8.0800    8.0900    8.1000    8.1100    8.1200    8.1300    8.1400    8.1500
    8.1600    8.1700    8.1800    8.1900    8.2000    8.2100    8.2200    8.2300
    8.2400    8.2500    8.2600    8.2700    8.2800    8.2900    8.3000    8.3100
    8.3200    8.3300    8.3400    8.3500    8.3600    8.3700    8.3800    8.3900
    8.4000    8.4100    8.4200    8.4300    8.4400    8.4500    8.4600    8.4700
    8.4800    8.4900    8.5000    8.5100    8.5200    8.5300    8.5400    8.5500
    8.5600    8.5700    8.5800    8.5900    8.6000    8.6100    8.6200    8.6300
    8.6400    8.6500    8.6600    8.6700    8.6800    8.6900    8.7000    8.7100
    8.7200    8.7300    8.7400    8.7500    8.7600    8.7700    8.7800    8.7900
    8.8000    8.8100    8.8200    8.8300    8.8400    8.8500    8.8600    8.8700
    8.8800    8.8900    8.9000    8.9100    8.9200    8.9300    8.9400    8.9500
    8.9600    8.9700    8.9800    8.9900    9.0000    9.0100    9.0200    9.0300
    9.0400    9.0500    9.0600    9.0700    9.0800    9.0900    9.1000    9.1100
    9.1200    9.1300    9.1400    9.1500    9.1600    9.1700    9.1800    9.1900
    9.2000    9.2100    9.2200    9.2300    9.2400    9.2500
   </PP_R>
   <PP_RAB type="real"  size=" 926" columns="8">
    0.0100    0.0100    0.0100    0.0100    0.0100    0.0100    0.0100    0.0100
    0.0100    0.0100    0.0100    0.0100    0.0100    0.0100    0.0100    0.0100
    0.0100    0.0100    0.0100    0.0100    0.0100    0.0100    0.0100    0.0100
    0.0100    0.0100    0.0100    0.0100    0.0100    0.0100    0.0100    0.0100
    0.0100    0.0100    0.0100    0.0100    0.0100    0.0100    0.0100    0.0100
    0.0100    0.0100    0.0100    0.0100    0.0100    0.0100    0.0100    0.0100
    0.0100    0.0100    0.0100    0.0100    0.0100    0.0100    0.0100    0.0100
    0.0100    0.0100    0.0100    0.0100    0.0100    0.0100    0.0100    0.0100
    0.0100    0.0100    0.0100    0.0100    0.0100    0.0100    0.0100    0.0100
    0.0100    0.0100    0.0100    0.0100    0.0100    0.0100    0.0100    0.0100
    0.0100    0.0100    0.0100    0.0100    0.0100    0.0100    0.0100    0.0100
    0.0100    0.0100    0.0100    0.0100    0.0100    0.0100    0.0100    0.0100
    0.0100    0.0100    0.0100    0.0100    0.0100    0.0100    0.0100    0.0100
    0.0100    0.0100    0.0100    0.0100    0.0100    0.0100    0.0100    0.0100
    0.0100    0.0100    0.0100    0.0100    0.0100    0.0100    0.0100    0.0100
    0.0100    0.0100    0.0100    0.0100    0.0100    0.0100    0.0100    0.0100
    0.0100    0.0100    0.0100    0.0100    0.0100    0.0100    0.0100    0.0100
    0.0100    0.0100    0.0100    0.0100    0.0100    0.0100    0.0100    0.0100
    0.0100    0.0100    0.0100    0.0100    0.0100    0.0100    0.0100    0.0100
    0.0100    0.0100    0.0100    0.0100    0.0100    0.0100    0.0100    0.0100
    0.0100    0.0100    0.0100    0.0100    0.0100    0.0100    0.0100    0.0100
    0.0100    0.0100    0.0100    0.0100    0.0100    0.0100    0.0100    0.0100
    0.0100    0.0100    0.0100    0.0100    0.0100    0.0100    0.0100    0.0100
    0.0100    0.0100    0.0100    0.0100    0.0100    0.0100    0.0100    0.0100
    0.0100    0.0100    0.0100    0.0100    0.0100    0.0100    0.0100    0.0100
    0.0100    0.0100    0.0100    0.0100    0.0100    0.0100    0.0100    0.0100
    0.0100    0.0100    0.0100    0.0100    0.0100    0.0100    0.0100    0.0100
    0.0100    0.0100    0.0100    0.0100    0.0100    0.0100    0.0100    0.0100
    0.0100    0.0100    0.0100    0.0100    0.0100    0.0100    0.0100    0.0100
    0.0100    0.0100    0.0100    0.0100    0.0100    0.0100    0.0100    0.0100
    0.0100    0.0100    0.0100    0.0100    0.0100    0.0100    0.0100    0.0100
    0.0100    0.0100    0.0100    0.0100    0.0100    0.0100    0.0100    0.0100
    0.0100    0.0100    0.0100    0.0100    0.0100    0.0100    0.0100    0.0100
    0.0100    0.0100    0.0100    0.0100    0.0100    0.0100    0.0100    0.0100
    0.0100    0.0100    0.0100    0.0100    0.0100    0.0100    0.0100    0.0100
    0.0100    0.0100    0.0100    0.0100    0.0100    0.0100    0.0100    0.0100
    0.0100    0.0100    0.0100    0.0100    0.0100    0.0100    0.0100    0.0100
    0.0100    0.0100    0.0100    0.0100    0.0100    0.0100    0.0100    0.0100
    0.0100    0.0100    0.0100    0.0100    0.0100    0.0100    0.0100    0.0100
    0.0100    0.0100    0.0100    0.0100    0.0100    0.0100    0.0100    0.0100
    0.0100    0.0100    0.0100    0.0100    0.0100    0.0100    0.0100    0.0100
    0.0100    0.0100    0.0100    0.0100    0.0100    0.0100    0.0100    0.0100
    0.0100    0.0100    0.0100    0.0100    0.0100    0.0100    0.0100    0.0100
    0.0100    0.0100    0.0100    0.0100    0.0100    0.0100    0.0100    0.0100
    0.0100    0.0100    0.0100    0.0100    0.0100    0.0100    0.0100    0.0100
    0.0100    0.0100    0.0100    0.0100    0.0100    0.0100    0.0100    0.0100
    0.0100    0.0100    0.0100    0.0100    0.0100    0.0100    0.0100    0.0100
    0.0100    0.0100    0.0100    0.0100    0.0100    0.0100    0.0100    0.0100
    0.0100    0.0100    0.0100    0.0100    0.0100    0.0100    0.0100    0.0100
    0.0100    0.0100    0.0100    0.0100    0.0100    0.0100    0.0100    0.0100
    0.0100    0.0100    0.0100    0.0100    0.0100    0.0100    0.0100    0.0100
    0.0100    0.0100    0.0100    0.0100    0.0100    0.0100    0.0100    0.0100
    0.0100    0.0100    0.0100    0.0100    0.0100    0.0100    0.0100    0.0100
    0.0100    0.0100    0.0100    0.0100    0.0100    0.0100    0.0100    0.0100
    0.0100    0.0100    0.0100    0.0100    0.0100    0.0100    0.0100    0.0100
    0.0100    0.0100    0.0100    0.0100    0.0100    0.0100    0.0100    0.0100
    0.0100    0.0100    0.0100    0.0100    0.0100    0.0100    0.0100    0.0100
    0.0100    0.0100    0.0100    0.0100    0.0100    0.0100    0.0100    0.0100
    0.0100    0.0100    0.0100    0.0100    0.0100    0.0100    0.0100    0.0100
    0.0100    0.0100    0.0100    0.0100    0.0100    0.0100    0.0100    0.0100
    0.0100    0.0100    0.0100    0.0100    0.0100    0.0100    0.0100    0.0100
    0.0100    0.0100    0.0100    0.0100    0.0100    0.0100    0.0100    0.0100
    0.0100    0.0100    0.0100    0.0100    0.0100    0.0100    0.0100    0.0100
    0.0100    0.0100    0.0100    0.0100    0.0100    0.0100    0.0100    0.0100
    0.0100    0.0100    0.0100    0.0100    0.0100    0.0100    0.0100    0.0100
    0.0100    0.0100    0.0100    0.0100    0.0100    0.0100    0.0100    0.0100
    0.0100    0.0100    0.0100    0.0100    0.0100    0.0100    0.0100    0.0100
    0.0100    0.0100    0.0100    0.0100    0.0100    0.0100    0.0100    0.0100
    0.0100    0.0100    0.0100    0.0100    0.0100    0.0100    0.0100    0.0100
    0.0100    0.0100    0.0100    0.0100    0.0100    0.0100    0.0100    0.0100
    0.0100    0.0100    0.0100    0.0100    0.0100    0.0100    0.0100    0.0100
    0.0100    0.0100    0.0100    0.0100    0.0100    0.0100    0.0100    0.0100
    0.0100    0.0100    0.0100    0.0100    0.0100    0.0100    0.0100    0.0100
    0.0100    0.0100    0.0100    0.0100    0.0100    0.0100    0.0100    0.0100
    0.0100    0.0100    0.0100    0.0100    0.0100    0.0100    0.0100    0.0100
    0.0100    0.0100    0.0100    0.0100    0.0100    0.0100    0.0100    0.0100
    0.0100    0.0100    0.0100    0.0100    0.0100    0.0100    0.0100    0.0100
    0.0100    0.0100    0.0100    0.0100    0.0100    0.0100    0.0100    0.0100
    0.0100    0.0100    0.0100    0.0100    0.0100    0.0100    0.0100    0.0100
    0.0100    0.0100    0.0100    0.0100    0.0100    0.0100    0.0100    0.0100
    0.0100    0.0100    0.0100    0.0100    0.0100    0.0100    0.0100    0.0100
    0.0100    0.0100    0.0100    0.0100    0.0100    0.0100    0.0100    0.0100
    0.0100    0.0100    0.0100    0.0100    0.0100    0.0100    0.0100    0.0100
    0.0100    0.0100    0.0100    0.0100    0.0100    0.0100    0.0100    0.0100
    0.0100    0.0100    0.0100    0.0100    0.0100    0.0100    0.0100    0.0100
    0.0100    0.0100    0.0100    0.0100    0.0100    0.0100    0.0100    0.0100
    0.0100    0.0100    0.0100    0.0100    0.0100    0.0100    0.0100    0.0100
    0.0100    0.0100    0.0100    0.0100    0.0100    0.0100    0.0100    0.0100
    0.0100    0.0100    0.0100    0.0100    0.0100    0.0100    0.0100    0.0100
    0.0100    0.0100    0.0100    0.0100    0.0100    0.0100    0.0100    0.0100
    0.0100    0.0100    0.0100    0.0100    0.0100    0.0100    0.0100    0.0100
    0.0100    0.0100    0.0100    0.0100    0.0100    0.0100    0.0100    0.0100
    0.0100    0.0100    0.0100    0.0100    0.0100    0.0100    0.0100    0.0100
    0.0100    0.0100    0.0100    0.0100    0.0100    0.0100    0.0100    0.0100
    0.0100    0.0100    0.0100    0.0100    0.0100    0.0100    0.0100    0.0100
    0.0100    0.0100    0.0100    0.0100    0.0100    0.0100    0.0100    0.0100
    0.0100    0.0100    0.0100    0.0100    0.0100    0.0100    0.0100    0.0100
    0.0100    0.0100    0.0100    0.0100    0.0100    0.0100    0.0100    0.0100
    0.0100    0.0100    0.0100    0.0100    0.0100    0.0100    0.0100    0.0100
    0.0100    0.0100    0.0100    0.0100    0.0100    0.0100    0.0100    0.0100
    0.0100    0.0100    0.0100    0.0100    0.0100    0.0100    0.0100    0.0100
    0.0100    0.0100    0.0100    0.0100    0.0100    0.0100    0.0100    0.0100
    0.0100    0.0100    0.0100    0.0100    0.0100    0.0100    0.0100    0.0100
    0.0100    0.0100    0.0100    0.0100    0.0100    0.0100    0.0100    0.0100
    0.0100    0.0100    0.0100    0.0100    0.0100    0.0100    0.0100    0.0100
    0.0100    0.0100    0.0100    0.0100    0.0100    0.0100    0.0100    0.0100
    0.0100    0.0100    0.0100    0.0100    0.0100    0.0100    0.0100    0.0100
    0.0100    0.0100    0.0100    0.0100    0.0100    0.0100    0.0100    0.0100
    0.0100    0.0100    0.0100    0.0100    0.0100    0.0100    0.0100    0.0100
    0.0100    0.0100    0.0100    0.0100    0.0100    0.0100    0.0100    0.0100
    0.0100    0.0100    0.0100    0.0100    0.0100    0.0100    0.0100    0.0100
    0.0100    0.0100    0.0100    0.0100    0.0100    0.0100    0.0100    0.0100
    0.0100    0.0100    0.0100    0.0100    0.0100    0.0100    0.0100    0.0100
    0.0100    0.0100    0.0100    0.0100    0.0100    0.0100    0.0100    0.0100
    0.0100    0.0100    0.0100    0.0100    0.0100    0.0100    0.0100    0.0100
    0.0100    0.0100    0.0100    0.0100    0.0100    0.0100
   </PP_RAB>
 </PP_MESH>
  <PP_LOCAL type="real"  size=" 926" columns="4">
   -2.0451825805E+01   -2.0451268733E+01   -2.0449595168E+01   -2.0446798205E+01
   -2.0442866352E+01   -2.0437783583E+01   -2.0431529401E+01   -2.0424078924E+01
   -2.0415402979E+01   -2.0405468223E+01   -2.0394237279E+01   -2.0381668887E+01
   -2.0367718075E+01   -2.0352336344E+01   -2.0335471875E+01   -2.0317069753E+01
   -2.0297072200E+01   -2.0275418837E+01   -2.0252046955E+01   -2.0226891810E+01
   -2.0199886932E+01   -2.0170964451E+01   -2.0140055451E+01   -2.0107090334E+01
   -2.0071999206E+01   -2.0034712290E+01   -1.9995160347E+01   -1.9953275131E+01
   -1.9908989850E+01   -1.9862239661E+01   -1.9812962166E+01   -1.9761097938E+01
   -1.9706591050E+01   -1.9649389619E+01   -1.9589446348E+01   -1.9526719071E+01
   -1.9461171290E+01   -1.9392772690E+01   -1.9321499636E+01   -1.9247335630E+01
   -1.9170271731E+01   -1.9090306907E+01   -1.9007448343E+01   -1.8921711655E+01
   -1.8833121040E+01   -1.8741709326E+01   -1.8647517936E+01   -1.8550596755E+01
   -1.8451003906E+01   -1.8348805427E+01   -1.8244074873E+01   -1.8136892823E+01
   -1.8027346340E+01   -1.7915528351E+01   -1.7801537001E+01   -1.7685474966E+01
   -1.7567448752E+01   -1.7447567992E+01   -1.7325944747E+01   -1.7202692830E+01
   -1.7077927162E+01   -1.6951763163E+01   -1.6824316184E+01   -1.6695700996E+01
   -1.6566031325E+01   -1.6435419441E+01   -1.6303975805E+01   -1.6171808758E+01
   -1.6039024274E+01   -1.5905725749E+01   -1.5772013838E+01   -1.5637986334E+01
   -1.5503738080E+01   -1.5369360917E+01   -1.5234943657E+01   -1.5100572081E+01
   -1.4966328959E+01   -1.4832294084E+01   -1.4698544325E+01   -1.4565153687E+01
   -1.4432193377E+01   -1.4299731880E+01   -1.4167835038E+01   -1.4036566125E+01
   -1.3905985927E+01   -1.3776152818E+01   -1.3647122830E+01   -1.3518949725E+01
   -1.3391685053E+01   -1.3265378210E+01   -1.3140076485E+01   -1.3015825103E+01
   -1.2892667257E+01   -1.2770644132E+01   -1.2649794922E+01   -1.2530156841E+01
   -1.2411765120E+01   -1.2294652996E+01   -1.2178851704E+01   -1.2064390447E+01
   -1.1951296368E+01   -1.1839594513E+01   -1.1729307786E+01   -1.1620456904E+01
   -1.1513060338E+01   -1.1407134258E+01   -1.1302692470E+01   -1.1199746349E+01
   -1.1098304773E+01   -1.0998374047E+01   -1.0899957833E+01   -1.0803057075E+01
   -1.0707669921E+01   -1.0613791648E+01   -1.0521414582E+01   -1.0430528021E+01
   -1.0341118156E+01   -1.0253167990E+01   -1.0166657264E+01   -1.0081562370E+01
   -9.9978562855E+00   -9.9155085430E+00   -9.8344868443E+00   -9.7547595954E+00
   -9.6762962984E+00   -9.5990675014E+00   -9.5230447530E+00   -9.4482005586E+00
   -9.3745083383E+00   -9.3019423865E+00   -9.2304778335E+00   -9.1600906081E+00
   -9.0907574014E+00   -9.0224556319E+00   -8.9551634115E+00   -8.8888595131E+00
   -8.8235233384E+00   -8.7591348730E+00   -8.6956746184E+00   -8.6331235444E+00
   -8.5714630684E+00   -8.5106750299E+00   -8.4507416679E+00   -8.3916455997E+00
   -8.3333698017E+00   -8.2758975918E+00   -8.2192126138E+00   -8.1632988464E+00
   -8.1081406639E+00   -8.0537228652E+00   -8.0000306528E+00   -7.9470496203E+00
   -7.8947657387E+00   -7.8431653446E+00   -7.7922351278E+00   -7.7419621197E+00
   -7.6923336828E+00   -7.6433374996E+00   -7.5949615632E+00   -7.5471941675E+00
   -7.5000238980E+00   -7.4534396230E+00   -7.4074304851E+00   -7.3619858934E+00
   -7.3170955151E+00   -7.2727492683E+00   -7.2289373144E+00   -7.1856500514E+00
   -7.1428781063E+00   -7.1006123290E+00   -7.0588437856E+00   -7.0175637518E+00
   -6.9767637074E+00   -6.9364353311E+00   -6.8965705024E+00   -6.8571612774E+00
   -6.8181998898E+00   -6.7796787490E+00   -6.7415904351E+00   -6.7039276936E+00
   -6.6666834317E+00   -6.6298507132E+00   -6.5934227541E+00   -6.5573929190E+00
   -6.5217547167E+00   -6.4865017961E+00   -6.4516279431E+00   -6.4171270761E+00
   -6.3829932433E+00   -6.3492206186E+00   -6.3158034985E+00   -6.2827362993E+00
   -6.2500135532E+00   -6.2176299061E+00   -6.1855801140E+00   -6.1538590406E+00
   -6.1224616546E+00   -6.0913830265E+00   -6.0606183266E+00   -6.0301628223E+00
   -6.0000118756E+00   -5.9701609408E+00   -5.9406055622E+00   -5.9113413720E+00
   -5.8823640878E+00   -5.8536695111E+00   -5.8252535247E+00   -5.7971120910E+00
   -5.7692412500E+00   -5.7416371176E+00   -5.7142958837E+00   -5.6872138103E+00
   -5.6603872299E+00   -5.6338125442E+00   -5.6074862217E+00   -5.5814047969E+00
   -5.5555648685E+00   -5.5299630977E+00   -5.5045962071E+00   -5.4794609791E+00
   -5.4545542547E+00   -5.4298729320E+00   -5.4054139650E+00   -5.3811743622E+00
   -5.3571511859E+00   -5.3333415502E+00   -5.3097426205E+00   -5.2863516121E+00
   -5.2631657893E+00   -5.2401824639E+00   -5.2173989947E+00   -5.1948127860E+00
   -5.1724212872E+00   -5.1502219911E+00   -5.1282124337E+00   -5.1063901927E+00
   -5.0847528869E+00   -5.0632981753E+00   -5.0420237565E+00   -5.0209273671E+00
   -5.0000067819E+00   -4.9792598124E+00   -4.9586843064E+00   -4.9382781468E+00
   -4.9180392518E+00   -4.8979655730E+00   -4.8780550956E+00   -4.8583058374E+00
   -4.8387158481E+00   -4.8192832090E+00   -4.8000060316E+00   -4.7808824579E+00
   -4.7619106593E+00   -4.7430888361E+00   -4.7244152168E+00   -4.7058880580E+00
   -4.6875056431E+00   -4.6692662827E+00   -4.6511683133E+00   -4.6332100971E+00
   -4.6153900216E+00   -4.5977064990E+00   -4.5801579656E+00   -4.5627428816E+00
   -4.5454597307E+00   -4.5283070191E+00   -4.5112832757E+00   -4.4943870515E+00
   -4.4776169190E+00   -4.4609714720E+00   -4.4444493250E+00   -4.4280491131E+00
   -4.4117694914E+00   -4.3956091348E+00   -4.3795667374E+00   -4.3636410124E+00
   -4.3478306916E+00   -4.3321345251E+00   -4.3165512810E+00   -4.3010797452E+00
   -4.2857187207E+00   -4.2704670276E+00   -4.2553235030E+00   -4.2402870000E+00
   -4.2253563883E+00   -4.2105305531E+00   -4.1958083954E+00   -4.1811888314E+00
   -4.1666707925E+00   -4.1522532247E+00   -4.1379350887E+00   -4.1237153594E+00
   -4.1095930259E+00   -4.0955670907E+00   -4.0816365704E+00   -4.0678004945E+00
   -4.0540579059E+00   -4.0404078602E+00   -4.0268494258E+00   -4.0133816835E+00
   -4.0000037264E+00   -3.9867146596E+00   -3.9735136001E+00   -3.9603996765E+00
   -3.9473720290E+00   -3.9344298088E+00   -3.9215721785E+00   -3.9087983115E+00
   -3.8961073919E+00   -3.8834986144E+00   -3.8709711840E+00   -3.8585243160E+00
   -3.8461572359E+00   -3.8338691787E+00   -3.8216593897E+00   -3.8095271233E+00
   -3.7974716435E+00   -3.7854922237E+00   -3.7735881464E+00   -3.7617587029E+00
   -3.7500031936E+00   -3.7383209275E+00   -3.7267112222E+00   -3.7151734038E+00
   -3.7037068066E+00   -3.6923107733E+00   -3.6809846544E+00   -3.6697278085E+00
   -3.6585396020E+00   -3.6474194091E+00   -3.6363666115E+00   -3.6253805982E+00
   -3.6144607659E+00   -3.6036065183E+00   -3.5928172662E+00   -3.5820924278E+00
   -3.5714314277E+00   -3.5608336979E+00   -3.5502986766E+00   -3.5398258089E+00
   -3.5294145464E+00   -3.5190643471E+00   -3.5087746755E+00   -3.4985450020E+00
   -3.4883748034E+00   -3.4782635627E+00   -3.4682107685E+00   -3.4582159155E+00
   -3.4482785044E+00   -3.4383980412E+00   -3.4285740379E+00   -3.4188060120E+00
   -3.4090934862E+00   -3.3994359890E+00   -3.3898330541E+00   -3.3802842202E+00
   -3.3707890316E+00   -3.3613470374E+00   -3.3519577918E+00   -3.3426208540E+00
   -3.3333357883E+00   -3.3241021634E+00   -3.3149195530E+00   -3.3057875356E+00
   -3.2967056943E+00   -3.2876736165E+00   -3.2786908943E+00   -3.2697571244E+00
   -3.2608719077E+00   -3.2520348494E+00   -3.2432455590E+00   -3.2345036503E+00
   -3.2258087412E+00   -3.2171604536E+00   -3.2085584136E+00   -3.2000022512E+00
   -3.1914916003E+00   -3.1830260989E+00   -3.1746053885E+00   -3.1662291146E+00
   -3.1578969265E+00   -3.1496084769E+00   -3.1413634224E+00   -3.1331614230E+00
   -3.1250021424E+00   -3.1168852478E+00   -3.1088104096E+00   -3.1007773019E+00
   -3.0927856021E+00   -3.0848349907E+00   -3.0769251517E+00   -3.0690557723E+00
   -3.0612265428E+00   -3.0534371568E+00   -3.0456873108E+00   -3.0379767046E+00
   -3.0303050409E+00   -3.0226720254E+00   -3.0150773668E+00   -3.0075207767E+00
   -3.0000019696E+00   -2.9925206628E+00   -2.9850765765E+00   -2.9776694336E+00
   -2.9702989597E+00   -2.9629648833E+00   -2.9556669353E+00   -2.9484048495E+00
   -2.9411783622E+00   -2.9339872123E+00   -2.9268311412E+00   -2.9197098929E+00
   -2.9126232138E+00   -2.9055708527E+00   -2.8985525610E+00   -2.8915680925E+00
   -2.8846172032E+00   -2.8776996515E+00   -2.8708151981E+00   -2.8639636061E+00
   -2.8571446408E+00   -2.8503580696E+00   -2.8436036623E+00   -2.8368811908E+00
   -2.8301904291E+00   -2.8235311533E+00   -2.8169031417E+00   -2.8103061747E+00
   -2.8037400347E+00   -2.7972045061E+00   -2.7906993753E+00   -2.7842244307E+00