Re    ONCVPSP-4.0.1  r_core=   1.60076   1.60076   1.60076   2.00932
     75.0000     15.0000      231019    zatom,zion,pspd
     8       2   3     4   600     0    pspcod,pspxc,lmax,lloc,mmax,r2well
  5.99000000  4.00000000  0.00000000    rchrg fchrg qchrg
     2     2     2     2     0    nproj
     1     1           extension_switch
   0                         5.4032468674440E+00 -2.1856524892114E+00
     1  0.0000000000000E+00 -1.1725962423270E-09 -5.4309866048818E-09
     2  1.0000000000000E-02  5.0689690209399E-02 -3.4483593933388E-02
     3  2.0000000000000E-02  1.0127227297448E-01 -6.9075780278648E-02
     4  3.0000000000000E-02  1.5164164943113E-01 -1.0388098187650E-01
     5  4.0000000000000E-02  2.0169372064134E-01 -1.3899536268330E-01
     6  5.0000000000000E-02  2.5132734477695E-01 -1.7450289755593E-01
     7  6.0000000000000E-02  3.0044524382034E-01 -2.1047167716356E-01
     8  7.0000000000000E-02  3.4895484435909E-01 -2.4695051989838E-01
     9  8.0000000000000E-02  3.9676903822424E-01 -2.8396595722630E-01
    10  9.0000000000000E-02  4.4380685014865E-01 -3.2151965230628E-01
    11  1.0000000000000E-01  4.8999400127944E-01 -3.5958630402676E-01
    12  1.1000000000000E-01  5.3526335923612E-01 -3.9811207999111E-01
    13  1.2000000000000E-01  5.7955526743306E-01 -4.3701361257942E-01
    14  1.3000000000000E-01  6.2281774854524E-01 -4.7617758218252E-01
    15  1.4000000000000E-01  6.6500657925204E-01 -5.1546090121909E-01
    16  1.5000000000000E-01  7.0608523570668E-01 -5.5469150178838E-01
    17  1.6000000000000E-01  7.4602471150679E-01 -5.9366971896611E-01
    18  1.7000000000000E-01  7.8480321224514E-01 -6.3217025100629E-01
    19  1.8000000000000E-01  8.2240573295700E-01 -6.6994466725517E-01
    20  1.9000000000000E-01  8.5882352691316E-01 -7.0672442459582E-01
    21  2.0000000000000E-01  8.9405347619667E-01 -7.4222434390006E-01
    22  2.1000000000000E-01  9.2809737631203E-01 -7.7614648942994E-01
    23  2.2000000000000E-01  9.6096114867436E-01 -8.0818438655865E-01
    24  2.3000000000000E-01  9.9265399618517E-01 -8.3802750670170E-01
    25  2.4000000000000E-01  1.0231875181936E+00 -8.6536594308435E-01
    26  2.5000000000000E-01  1.0525748019495E+00 -8.8989519701447E-01
    27  2.6000000000000E-01  1.0808295081587E+00 -9.1132099175769E-01
    28  2.7000000000000E-01  1.1079649684434E+00 -9.2936402997449E-01
    29  2.8000000000000E-01  1.1339933123850E+00 -9.4376461100463E-01
    30  2.9000000000000E-01  1.1589246413828E+00 -9.5428702607416E-01
    31  3.0000000000000E-01  1.1827662658057E+00 -9.6072365273234E-01
    32  3.1000000000000E-01  1.2055220208608E+00 -9.6289867445198E-01
    33  3.2000000000000E-01  1.2271916752574E+00 -9.6067135727528E-01
    34  3.3000000000000E-01  1.2477704451461E+00 -9.5393882256316E-01
    35  3.4000000000000E-01  1.2672486239671E+00 -9.4263826319368E-01
    36  3.5000000000000E-01  1.2856113368004E+00 -9.2674855981679E-01
    37  3.6000000000000E-01  1.3028384255860E+00 -9.0629126385669E-01
    38  3.7000000000000E-01  1.3189044692326E+00 -8.8133092468940E-01
    39  3.8000000000000E-01  1.3337789401823E+00 -8.5197474962989E-01
    40  3.9000000000000E-01  1.3474264964999E+00 -8.1837159685359E-01
    41  4.0000000000000E-01  1.3598074060434E+00 -7.8071031294956E-01
    42  4.1000000000000E-01  1.3708780967990E+00 -7.3921743826285E-01
    43  4.2000000000000E-01  1.3805918250646E+00 -6.9415431432917E-01
    44  4.3000000000000E-01  1.3888994508922E+00 -6.4581363834270E-01
    45  4.4000000000000E-01  1.3957503080840E+00 -5.9451551953964E-01
    46  4.5000000000000E-01  1.4010931541231E+00 -5.4060310144829E-01
    47  4.6000000000000E-01  1.4048771837458E+00 -4.8443782198781E-01
    48  4.7000000000000E-01  1.4070530884488E+00 -4.2639439024385E-01
    49  4.8000000000000E-01  1.4075741431134E+00 -3.6685556428366E-01
    50  4.9000000000000E-01  1.4063973001350E+00 -3.0620681848634E-01
    51  5.0000000000000E-01  1.4034842709807E+00 -2.4483099147395E-01
    52  5.1000000000000E-01  1.3988025749921E+00 -1.8310300677806E-01
    53  5.2000000000000E-01  1.3923265354867E+00 -1.2138475782750E-01
    54  5.3000000000000E-01  1.3840382038093E+00 -6.0020246698021E-02
    55  5.4000000000000E-01  1.3739281929255E+00  6.6893766327049E-04
    56  5.5000000000000E-01  1.3619964034304E+00  6.0387721279324E-02
    57  5.6000000000000E-01  1.3482526264386E+00  1.1887115330201E-01
    58  5.7000000000000E-01  1.3327170097155E+00  1.7588745480087E-01
    59  5.8000000000000E-01  1.3154203755634E+00  2.3124045178514E-01
    60  5.9000000000000E-01  1.2964043813648E+00  2.8477134643113E-01
    61  6.0000000000000E-01  1.2757215162668E+00  3.3635979177094E-01
    62  6.1000000000000E-01  1.2534349302217E+00  3.8592424710758E-01
    63  6.2000000000000E-01  1.2296180944423E+00  4.3342160396191E-01
    64  6.3000000000000E-01  1.2043542952270E+00  4.7884608521395E-01
    65  6.4000000000000E-01  1.1777359660203E+00  5.2222743305935E-01
    66  6.5000000000000E-01  1.1498638654484E+00  5.6362841423904E-01
    67  6.6000000000000E-01  1.1208461118474E+00  6.0314168349212E-01
    68  6.7000000000000E-01  1.0907970874524E+00  6.4088605811235E-01
    69  6.8000000000000E-01  1.0598362278703E+00  6.7700226764205E-01
    70  6.9000000000000E-01  1.0280867146963E+00  7.1164825291689E-01
    71  7.0000000000000E-01  9.9567409109185E-01  7.4499409768764E-01
    72  7.1000000000000E-01  9.6272482179683E-01  7.7721668372909E-01
    73  7.2000000000000E-01  9.2936482036251E-01  8.0849416654534E-01
    74  7.3000000000000E-01  8.9571796733882E-01  8.3900037337499E-01
    75  7.4000000000000E-01  8.6190464370724E-01  8.6889922808633E-01
    76  7.5000000000000E-01  8.2804030400575E-01  8.9833930866254E-01
    77  7.6000000000000E-01  7.9423411333474E-01  9.2744864226325E-01
    78  7.7000000000000E-01  7.6058767176201E-01  9.5632984030450E-01
    79  7.8000000000000E-01  7.2719384856554E-01  9.8505567163838E-01
    80  7.9000000000000E-01  6.9413574727757E-01  1.0136651657889E+00
    81  8.0000000000000E-01  6.6148582064046E-01  1.0421603303887E+00
    82  8.1000000000000E-01  6.2930515238125E-01  1.0705035575774E+00
    83  8.2000000000000E-01  5.9764292018783E-01  1.0986157832939E+00
    84  8.3000000000000E-01  5.6653605146416E-01  1.1263754512996E+00
    85  8.4000000000000E-01  5.3600908039664E-01  1.1536183205784E+00
    86  8.5000000000000E-01  5.0607421162792E-01  1.1801381406947E+00
    87  8.6000000000000E-01  4.7673159245649E-01  1.2056882049651E+00
    88  8.7000000000000E-01  4.4796979201803E-01  1.2299837761657E+00
    89  8.8000000000000E-01  4.1976648241124E-01  1.2527053641895E+00
    90  8.9000000000000E-01  3.9208931326636E-01  1.2735028198545E+00
    91  9.0000000000000E-01  3.6489696787610E-01  1.2920001941980E+00
    92  9.1000000000000E-01  3.3814038577385E-01  1.3078012983217E+00
    93  9.2000000000000E-01  3.1176413360858E-01  1.3204958854387E+00
    94  9.3000000000000E-01  2.8570790338287E-01  1.3296663644449E+00
    95  9.4000000000000E-01  2.5990811464060E-01  1.3348949433149E+00
    96  9.5000000000000E-01  2.3429959505811E-01  1.3357710911208E+00
    97  9.6000000000000E-01  2.0881731214870E-01  1.3318991996565E+00
    98  9.7000000000000E-01  1.8339812746923E-01  1.3229063196936E+00
    99  9.8000000000000E-01  1.5798254384617E-01  1.3084498429053E+00
   100  9.9000000000000E-01  1.3251641574024E-01  1.2882249985880E+00
   101  1.0000000000000E+00  1.0695259295390E-01  1.2619720345284E+00
   102  1.0100000000000E+00  8.1252468462572E-02  1.2294829537552E+00
   103  1.0200000000000E+00  5.5387402214849E-02  1.1906076834521E+00
   104  1.0300000000000E+00  2.9339994290411E-02  1.1452595589747E+00
   105  1.0400000000000E+00  3.1051828038959E-03  1.0934200145927E+00
   106  1.0500000000000E+00 -2.3308855619429E-02  1.0351423832064E+00
   107  1.0600000000000E+00 -4.9880022136257E-02  9.7055471967707E-01
   108  1.0700000000000E+00 -7.6571844894452E-02  8.9986157639139E-01
   109  1.0800000000000E+00 -1.0333327379516E-01  8.2334467509605E-01
   110  1.0900000000000E+00 -1.3009872968518E-01  7.4136243556066E-01
   111  1.1000000000000E+00 -1.5678841288101E-01  6.5434833912631E-01
   112  1.1100000000000E+00 -1.8330887182150E-01  5.6280812328485E-01
   113  1.1200000000000E+00 -2.0955382845765E-01  4.6731582191333E-01
   114  1.1300000000000E+00 -2.3540525279136E-01  3.6850868432348E-01
   115  1.1400000000000E+00 -2.6073467483874E-01  2.6708102457644E-01
   116  1.1500000000000E+00 -2.8540471827641E-01  1.6377707029661E-01
   117  1.1600000000000E+00 -3.0927083620923E-01  5.9382897151227E-02
   118  1.1700000000000E+00 -3.3218322592819E-01 -4.5282448992342E-02
   119  1.1800000000000E+00 -3.5398889627309E-01 -1.4937652575170E-01
   120  1.1900000000000E+00 -3.7453385833666E-01 -2.5204363445477E-01
   121  1.2000000000000E+00 -3.9366540778008E-01 -3.5242538658341E-01
   122  1.2100000000000E+00 -4.1123446504459E-01 -4.4967154721022E-01
   123  1.2200000000000E+00 -4.2709793824582E-01 -5.4295099944099E-01
   124  1.2300000000000E+00 -4.4112107258757E-01 -6.3146266952772E-01
   125  1.2400000000000E+00 -4.5317974972669E-01 -7.1444625037163E-01
   126  1.2500000000000E+00 -4.6316270069209E-01 -7.9119256173158E-01
   127  1.2600000000000E+00 -4.7097359669493E-01 -8.6105338853709E-01
   128  1.2700000000000E+00 -4.7653298347786E-01 -9.2345064433654E-01
   129  1.2800000000000E+00 -4.7978002671321E-01 -9.7788471498045E-01
   130  1.2900000000000E+00 -4.8067403833711E-01 -1.0239418479938E+00
   131  1.3000000000000E+00 -4.7919575660828E-01 -1.0613004657660E+00
   132  1.3100000000000E+00 -4.7534835602074E-01 -1.0897362953144E+00
   133  1.3200000000000E+00 -4.6915816694641E-01 -1.1091262238045E+00
   134  1.3300000000000E+00 -4.6067508900731E-01 -1.1194508071238E+00
   135  1.3400000000000E+00 -4.4997268657877E-01 -1.1207953781499E+00
   136  1.3500000000000E+00 -4.3714795946570E-01 -1.1133497217802E+00
   137  1.3600000000000E+00 -4.2232078657348E-01 -1.0974063048362E+00
   138  1.3700000000000E+00 -4.0563304530311E-01 -1.0733570705904E+00
   139  1.3800000000000E+00 -3.8724741427317E-01 -1.0416888291612E+00
   140  1.3900000000000E+00 -3.6734587181578E-01 -1.0029772964039E+00
   141  1.4000000000000E+00 -3.4612790736318E-01 -9.5787985455831E-01
   142  1.4100000000000E+00 -3.2380846734402E-01 -9.0712712782346E-01
   143  1.4200000000000E+00 -3.0061566138397E-01 -8.5151348450708E-01
   144  1.4300000000000E+00 -2.7678825845290E-01 -7.9188659444783E-01
   145  1.4400000000000E+00 -2.5257300603407E-01 -7.2913618563954E-01
   146  1.4500000000000E+00 -2.2822180834352E-01 -6.6418215711049E-01
   147  1.4600000000000E+00 -2.0398880208642E-01 -5.9796221606421E-01
   148  1.4700000000000E+00 -1.8012737011631E-01 -5.3141921569725E-01
   149  1.4800000000000E+00 -1.5688713466507E-01 -4.6548837597421E-01
   150  1.4900000000000E+00 -1.3451097265814E-01 -4.0108457366223E-01
   151  1.5000000000000E+00 -1.1323208993523E-01 -3.3908985689534E-01
   152  1.5100000000000E+00 -9.3271223415974E-02 -2.8034152324345E-01
   153  1.5200000000000E+00 -7.4833920084520E-02 -2.2562037621055E-01
   154  1.5300000000000E+00 -5.8102930824404E-02 -1.7561299419869E-01
   155  1.5400000000000E+00 -4.3241637651191E-02 -1.3093331779004E-01
   156  1.5500000000000E+00 -3.0400800732403E-02 -9.2159620207672E-02
   157  1.5600000000000E+00 -1.9706606541426E-02 -5.9771549787505E-02
   158  1.5700000000000E+00 -1.1259743501948E-02 -3.4146920168686E-02
   159  1.5800000000000E+00 -5.1357083482747E-03 -1.5561204787822E-02
   160  1.5900000000000E+00 -1.3690075850230E-03 -4.1394759365406E-03
   161  1.6000000000000E+00 -2.6215915894360E-05 -7.6321651740221E-05
   162  1.6100000000000E+00  4.2307974220755E-06  1.2839742572477E-05
   163  1.6200000000000E+00 -1.3116597939652E-07 -3.9820882960581E-07
   164  1.63 -0. -0.
   165  1.64  0.  0.
   166  1.65  0.  0.
   167  1.66  0.  0.
   168  1.67  0.  0.
   169  1.68  0.  0.
   170  1.69  0.  0.
   171  1.70  0.  0.
   172  1.71  0.  0.
   173  1.72  0.  0.
   174  1.73  0.  0.
   175  1.74  0.  0.
   176  1.75  0.  0.
   177  1.76  0.  0.
   178  1.77  0.  0.
   179  1.78  0.  0.
   180  1.79  0.  0.
   181  1.80  0.  0.
   182  1.81  0.  0.
   183  1.82  0.  0.
   184  1.83  0.  0.
   185  1.84  0.  0.
   186  1.85  0.  0.
   187  1.86  0.  0.
   188  1.87  0.  0.
   189  1.88  0.  0.
   190  1.89  0.  0.
   191  1.90  0.  0.
   192  1.91  0.  0.
   193  1.92  0.  0.
   194  1.93  0.  0.
   195  1.94  0.  0.
   196  1.95  0.  0.
   197  1.96  0.  0.
   198  1.97  0.  0.
   199  1.98  0.  0.
   200  1.99  0.  0.
   201  2.00  0.  0.
   202  2.01  0.  0.
   203  2.02  0.  0.
   204  2.03  0.  0.
   205  2.04  0.  0.
   206  2.05  0.  0.
   207  2.06  0.  0.
   208  2.07  0.  0.
   209  2.08  0.  0.
   210  2.09  0.  0.
   211  2.10  0.  0.
   212  2.11  0.  0.
   213  2.12  0.  0.
   214  2.13  0.  0.
   215  2.14  0.  0.
   216  2.15  0.  0.
   217  2.16  0.  0.
   218  2.17  0.  0.
   219  2.18  0.  0.
   220  2.19  0.  0.
   221  2.20  0.  0.
   222  2.21  0.  0.
   223  2.22  0.  0.
   224  2.23  0.  0.
   225  2.24  0.  0.
   226  2.25  0.  0.
   227  2.26  0.  0.
   228  2.27  0.  0.
   229  2.28  0.  0.
   230  2.29  0.  0.
   231  2.30  0.  0.
   232  2.31  0.  0.
   233  2.32  0.  0.
   234  2.33  0.  0.
   235  2.34  0.  0.
   236  2.35  0.  0.
   237  2.36  0.  0.
   238  2.37  0.  0.
   239  2.38  0.  0.
   240  2.39  0.  0.
   241  2.40  0.  0.
   242  2.41  0.  0.
   243  2.42  0.  0.
   244  2.43  0.  0.
   245  2.44  0.  0.
   246  2.45  0.  0.
   247  2.46  0.  0.
   248  2.47  0.  0.
   249  2.48  0.  0.
   250  2.49  0.  0.
   251  2.50  0.  0.
   252  2.51  0.  0.
   253  2.52  0.  0.
   254  2.53  0.  0.
   255  2.54  0.  0.
   256  2.55  0.  0.
   257  2.56  0.  0.
   258  2.57  0.  0.
   259  2.58  0.  0.
   260  2.59  0.  0.
   261  2.60  0.  0.
   262  2.61  0.  0.
   263  2.62  0.  0.
   264  2.63  0.  0.
   265  2.64  0.  0.
   266  2.65  0.  0.
   267  2.66  0.  0.
   268  2.67  0.  0.
   269  2.68  0.  0.
   270  2.69  0.  0.
   271  2.70  0.  0.
   272  2.71  0.  0.
   273  2.72  0.  0.
   274  2.73  0.  0.
   275  2.74  0.  0.
   276  2.75  0.  0.
   277  2.76  0.  0.
   278  2.77  0.  0.
   279  2.78  0.  0.
   280  2.79  0.  0.
   281  2.80  0.  0.
   282  2.81  0.  0.
   283  2.82  0.  0.
   284  2.83  0.  0.
   285  2.84  0.  0.
   286  2.85  0.  0.
   287  2.86  0.  0.
   288  2.87  0.  0.
   289  2.88  0.  0.
   290  2.89  0.  0.
   291  2.90  0.  0.
   292  2.91  0.  0.
   293  2.92  0.  0.
   294  2.93  0.  0.
   295  2.94  0.  0.
   296  2.95  0.  0.
   297  2.96  0.  0.
   298  2.97  0.  0.
   299  2.98  0.  0.
   300  2.99  0.  0.
   301  3.00  0.  0.
   302  3.01  0.  0.
   303  3.02  0.  0.
   304  3.03  0.  0.
   305  3.04  0.  0.
   306  3.05  0.  0.
   307  3.06  0.  0.
   308  3.07  0.  0.
   309  3.08  0.  0.
   310  3.09  0.  0.
   311  3.10  0.  0.
   312  3.11  0.  0.
   313  3.12  0.  0.
   314  3.13  0.  0.
   315  3.14  0.  0.
   316  3.15  0.  0.
   317  3.16  0.  0.
   318  3.17  0.  0.
   319  3.18  0.  0.
   320  3.19  0.  0.
   321  3.20  0.  0.
   322  3.21  0.  0.
   323  3.22  0.  0.
   324  3.23  0.  0.
   325  3.24  0.  0.
   326  3.25  0.  0.
   327  3.26  0.  0.
   328  3.27  0.  0.
   329  3.28  0.  0.
   330  3.29  0.  0.
   331  3.30  0.  0.
   332  3.31  0.  0.
   333  3.32  0.  0.
   334  3.33  0.  0.
   335  3.34  0.  0.
   336  3.35  0.  0.
   337  3.36  0.  0.
   338  3.37  0.  0.
   339  3.38  0.  0.
   340  3.39  0.  0.
   341  3.40  0.  0.
   342  3.41  0.  0.
   343  3.42  0.  0.
   344  3.43  0.  0.
   345  3.44  0.  0.
   346  3.45  0.  0.
   347  3.46  0.  0.
   348  3.47  0.  0.
   349  3.48  0.  0.
   350  3.49  0.  0.
   351  3.50  0.  0.
   352  3.51  0.  0.
   353  3.52  0.  0.
   354  3.53  0.  0.
   355  3.54  0.  0.
   356  3.55  0.  0.
   357  3.56  0.  0.
   358  3.57  0.  0.
   359  3.58  0.  0.
   360  3.59  0.  0.
   361  3.60  0.  0.
   362  3.61  0.  0.
   363  3.62  0.  0.
   364  3.63  0.  0.
   365  3.64  0.  0.
   366  3.65  0.  0.
   367  3.66  0.  0.
   368  3.67  0.  0.
   369  3.68  0.  0.
   370  3.69  0.  0.
   371  3.70  0.  0.
   372  3.71  0.  0.
   373  3.72  0.  0.
   374  3.73  0.  0.
   375  3.74  0.  0.
   376  3.75  0.  0.
   377  3.76  0.  0.
   378  3.77  0.  0.
   379  3.78  0.  0.
   380  3.79  0.  0.
   381  3.80  0.  0.
   382  3.81  0.  0.
   383  3.82  0.  0.
   384  3.83  0.  0.
   385  3.84  0.  0.
   386  3.85  0.  0.
   387  3.86  0.  0.
   388  3.87  0.  0.
   389  3.88  0.  0.
   390  3.89  0.  0.
   391  3.90  0.  0.
   392  3.91  0.  0.
   393  3.92  0.  0.
   394  3.93  0.  0.
   395  3.94  0.  0.
   396  3.95  0.  0.
   397  3.96  0.  0.
   398  3.97  0.  0.
   399  3.98  0.  0.
   400  3.99  0.  0.
   401  4.00  0.  0.
   402  4.01  0.  0.
   403  4.02  0.  0.
   404  4.03  0.  0.
   405  4.04  0.  0.
   406  4.05  0.  0.
   407  4.06  0.  0.
   408  4.07  0.  0.
   409  4.08  0.  0.
   410  4.09  0.  0.
   411  4.10  0.  0.
   412  4.11  0.  0.
   413  4.12  0.  0.
   414  4.13  0.  0.
   415  4.14  0.  0.
   416  4.15  0.  0.
   417  4.16  0.  0.
   418  4.17  0.  0.
   419  4.18  0.  0.
   420  4.19  0.  0.
   421  4.20  0.  0.
   422  4.21  0.  0.
   423  4.22  0.  0.
   424  4.23  0.  0.
   425  4.24  0.  0.
   426  4.25  0.  0.
   427  4.26  0.  0.
   428  4.27  0.  0.
   429  4.28  0.  0.
   430  4.29  0.  0.
   431  4.30  0.  0.
   432  4.31  0.  0.
   433  4.32  0.  0.
   434  4.33  0.  0.
   435  4.34  0.  0.
   436  4.35  0.  0.
   437  4.36  0.  0.
   438  4.37  0.  0.
   439  4.38  0.  0.
   440  4.39  0.  0.
   441  4.40  0.  0.
   442  4.41  0.  0.
   443  4.42  0.  0.
   444  4.43  0.  0.
   445  4.44  0.  0.
   446  4.45  0.  0.
   447  4.46  0.  0.
   448  4.47  0.  0.
   449  4.48  0.  0.
   450  4.49  0.  0.
   451  4.50  0.  0.
   452  4.51  0.  0.
   453  4.52  0.  0.
   454  4.53  0.  0.
   455  4.54  0.  0.
   456  4.55  0.  0.
   457  4.56  0.  0.
   458  4.57  0.  0.
   459  4.58  0.  0.
   460  4.59  0.  0.
   461  4.60  0.  0.
   462  4.61  0.  0.
   463  4.62  0.  0.
   464  4.63  0.  0.
   465  4.64  0.  0.
   466  4.65  0.  0.
   467  4.66  0.  0.
   468  4.67  0.  0.
   469  4.68  0.  0.
   470  4.69  0.  0.
   471  4.70  0.  0.
   472  4.71  0.  0.
   473  4.72  0.  0.
   474  4.73  0.  0.
   475  4.74  0.  0.
   476  4.75  0.  0.
   477  4.76  0.  0.
   478  4.77  0.  0.
   479  4.78  0.  0.
   480  4.79  0.  0.
   481  4.80  0.  0.
   482  4.81  0.  0.
   483  4.82  0.  0.
   484  4.83  0.  0.
   485  4.84  0.  0.
   486  4.85  0.  0.
   487  4.86  0.  0.
   488  4.87  0.  0.
   489  4.88  0.  0.
   490  4.89  0.  0.
   491  4.90  0.  0.
   492  4.91  0.  0.
   493  4.92  0.  0.
   494  4.93  0.  0.
   495  4.94  0.  0.
   496  4.95  0.  0.
   497  4.96  0.  0.
   498  4.97  0.  0.
   499  4.98  0.  0.
   500  4.99  0.  0.
   501  5.00  0.  0.
   502  5.01  0.  0.
   503  5.02  0.  0.
   504  5.03  0.  0.
   505  5.04  0.  0.
   506  5.05  0.  0.
   507  5.06  0.  0.
   508  5.07  0.  0.
   509  5.08  0.  0.
   510  5.09  0.  0.
   511  5.10  0.  0.
   512  5.11  0.  0.
   513  5.12  0.  0.
   514  5.13  0.  0.
   515  5.14  0.  0.
   516  5.15  0.  0.
   517  5.16  0.  0.
   518  5.17  0.  0.
   519  5.18  0.  0.
   520  5.19  0.  0.
   521  5.20  0.  0.
   522  5.21  0.  0.
   523  5.22  0.  0.
   524  5.23  0.  0.
   525  5.24  0.  0.
   526  5.25  0.  0.
   527  5.26  0.  0.
   528  5.27  0.  0.
   529  5.28  0.  0.
   530  5.29  0.  0.
   531  5.30  0.  0.
   532  5.31  0.  0.
   533  5.32  0.  0.
   534  5.33  0.  0.
   535  5.34  0.  0.
   536  5.35  0.  0.
   537  5.36  0.  0.
   538  5.37  0.  0.
   539  5.38  0.  0.
   540  5.39  0.  0.
   541  5.40  0.  0.
   542  5.41  0.  0.
   543  5.42  0.  0.
   544  5.43  0.  0.
   545  5.44  0.  0.
   546  5.45  0.  0.
   547  5.46  0.  0.
   548  5.47  0.  0.
   549  5.48  0.  0.
   550  5.49  0.  0.
   551  5.50  0.  0.
   552  5.51  0.  0.
   553  5.52  0.  0.
   554  5.53  0.  0.
   555  5.54  0.  0.
   556  5.55  0.  0.
   557  5.56  0.  0.
   558  5.57  0.  0.
   559  5.58  0.  0.
   560  5.59  0.  0.
   561  5.60  0.  0.
   562  5.61  0.  0.
   563  5.62  0.  0.
   564  5.63  0.  0.
   565  5.64  0.  0.
   566  5.65  0.  0.
   567  5.66  0.  0.
   568  5.67  0.  0.
   569  5.68  0.  0.
   570  5.69  0.  0.
   571  5.70  0.  0.
   572  5.71  0.  0.
   573  5.72  0.  0.
   574  5.73  0.  0.
   575  5.74  0.  0.
   576  5.75  0.  0.
   577  5.76  0.  0.
   578  5.77  0.  0.
   579  5.78  0.  0.
   580  5.79  0.  0.
   581  5.80  0.  0.
   582  5.81  0.  0.
   583  5.82  0.  0.
   584  5.83  0.  0.
   585  5.84  0.  0.
   586  5.85  0.  0.
   587  5.86  0.  0.
   588  5.87  0.  0.
   589  5.88  0.  0.
   590  5.89  0.  0.
   591  5.90  0.  0.
   592  5.91  0.  0.
   593  5.92  0.  0.
   594  5.93  0.  0.
   595  5.94  0.  0.
   596  5.95  0.  0.
   597  5.96  0.  0.
   598  5.97  0.  0.
   599  5.98  0.  0.
   600  5.99  0.  0.
   1                         1.3046433306492E+01  1.4689560582459E+00
     1  0.0000000000000E+00 -7.8818908066935E-09  9.9079635468291E-09
     2  1.0000000000000E-02  1.1863532540415E-03  3.0389490259671E-04
     3  2.0000000000000E-02  4.7485704242831E-03  1.2067773310595E-03
     4  3.0000000000000E-02  1.0695928172271E-02  2.6824949396389E-03
     5  4.0000000000000E-02  1.9043240449048E-02  4.6883028446925E-03
     6  5.0000000000000E-02  2.9809904203457E-02  7.1661064720633E-03
     7  6.0000000000000E-02  4.3018595885522E-02  1.0044160616483E-02
     8  7.0000000000000E-02  5.8693650423798E-02  1.3239184843054E-02
     9  8.0000000000000E-02  7.6859162237448E-02  1.6658845452903E-02
    10  9.0000000000000E-02  9.7536854879583E-02  2.0204545400485E-02
    11  1.0000000000000E-01  1.2074377194834E-01  2.3774455977811E-02
    12  1.1000000000000E-01  1.4648984681247E-01  2.7266717940660E-02
    13  1.2000000000000E-01  1.7477541237137E-01  3.0582735178204E-02
    14  1.3000000000000E-01  2.0558871442126E-01  3.3630481127481E-02
    15  1.4000000000000E-01  2.3890349317208E-01  3.6327736977091E-02
    16  1.5000000000000E-01  2.7467669702773E-01  3.8605181324203E-02
    17  1.6000000000000E-01  3.1284639090231E-01  4.0409253344810E-02
    18  1.7000000000000E-01  3.5332991813024E-01  4.1704715667100E-02
    19  1.8000000000000E-01  3.9602237049332E-01  4.2476848927986E-02
    20  1.9000000000000E-01  4.4079541512083E-01  4.2733217330923E-02
    21  2.0000000000000E-01  4.8749652012961E-01  4.2504953265996E-02
    22  2.1000000000000E-01  5.3594861299485E-01  4.1847519026952E-02
    23  2.2000000000000E-01  5.8595019693632E-01  4.0840914663077E-02
    24  2.3000000000000E-01  6.3727594124185E-01  3.9589312813617E-02
    25  2.4000000000000E-01  6.8967775162083E-01  3.8220113746236E-02
    26  2.5000000000000E-01  7.4288631658345E-01  3.6882426503847E-02
    27  2.6000000000000E-01  7.9661311568559E-01  3.5744994790465E-02
    28  2.7000000000000E-01  8.5055286547283E-01  3.4993598731008E-02
    29  2.8000000000000E-01  9.0438636931005E-01  3.4827975654655E-02
    30  2.9000000000000E-01  9.5778372819784E-01  3.5458314320924E-02
    31  3.0000000000000E-01  1.0104078613480E+00  3.7101387285233E-02
    32  3.1000000000000E-01  1.0619182778967E+00  3.9976395160946E-02
    33  3.2000000000000E-01  1.1119750348392E+00  4.4300604172455E-02
    34  3.3000000000000E-01  1.1602428112148E+00  5.0284864432026E-02
    35  3.4000000000000E-01  1.2063950248769E+00  5.8129100665271E-02
    36  3.5000000000000E-01  1.2501179159361E+00  6.8017869544056E-02
    37  3.6000000000000E-01  1.2911145202340E+00  8.0116078285513E-02
    38  3.7000000000000E-01  1.3291084570248E+00  9.4564957705278E-02
    39  3.8000000000000E-01  1.3638474574073E+00  1.1147837947384E-01
    40  3.9000000000000E-01  1.3951065639406E+00  1.3093960196083E-01
    41  4.0000000000000E-01  1.4226909372331E+00  1.5299852184538E-01
    42  4.1000000000000E-01  1.4464382120156E+00  1.7766949974197E-01
    43  4.2000000000000E-01  1.4662203531973E+00  2.0492981759861E-01
    44  4.3000000000000E-01  1.4819449714911E+00  2.3471881375913E-01
    45  4.4000000000000E-01  1.4935560682318E+00  2.6693772856367E-01
    46  4.5000000000000E-01  1.5010341897975E+00  3.0145027944232E-01
    47  4.6000000000000E-01  1.5043959833764E+00  3.3808396990132E-01
    48  4.7000000000000E-01  1.5036931574802E+00  3.7663212189947E-01
    49  4.8000000000000E-01  1.4990108623588E+00  4.1685660615790E-01
    50  4.9000000000000E-01  1.4904655170870E+00  4.5849123024357E-01
    51  5.0000000000000E-01  1.4782021213369E+00  5.0124573011590E-01
    52  5.1000000000000E-01  1.4623911004888E+00  5.4481029752215E-01
    53  5.2000000000000E-01  1.4432247425529E+00  5.8886056345211E-01
    54  5.3000000000000E-01  1.4209132941547E+00  6.3306294708102E-01
    55  5.4000000000000E-01  1.3956807904056E+00  6.7708027047919E-01
    56  5.5000000000000E-01  1.3677606996521E+00  7.2057753206154E-01
    57  5.6000000000000E-01  1.3373914687435E+00  7.6322772646353E-01
    58  5.7000000000000E-01  1.3048120574520E+00  8.0471759540596E-01
    59  5.8000000000000E-01  1.2702575519512E+00  8.4475319324492E-01
    60  5.9000000000000E-01  1.2339549467423E+00  8.8306515235417E-01
    61  6.0000000000000E-01  1.1961191821165E+00  9.1941353726369E-01
    62  6.1000000000000E-01  1.1569495201513E+00  9.5359218254665E-01
    63  6.2000000000000E-01  1.1166263364405E+00  9.8543241772647E-01
    64  6.3000000000000E-01  1.0753083973154E+00  1.0148060928404E+00
    65  6.4000000000000E-01  1.0331306833695E+00  1.0416278305773E+00
    66  6.5000000000000E-01  9.9020280979907E-01  1.0658564448960E+00
    67  6.6000000000000E-01  9.4660808259138E-01  1.0874954814827E+00
    68  6.7000000000000E-01  9.0240321716086E-01  1.1065928520369E+00
    69  6.8000000000000E-01  8.5761873285473E-01  1.1232395518898E+00
    70  6.9000000000000E-01  8.1226002309696E-01  1.1375674685137E+00
    71  7.0000000000000E-01  7.6630908705596E-01  1.1497463067489E+00
    72  7.1000000000000E-01  7.1972689488809E-01  1.1599796746815E+00
    73  7.2000000000000E-01  6.7245634509261E-01  1.1685003917163E+00
    74  7.3000000000000E-01  6.2442575958782E-01  1.1755650971304E+00
    75  7.4000000000000E-01  5.7555285004566E-01  1.1814482529357E+00
    76  7.5000000000000E-01  5.2574907805269E-01  1.1864356488970E+00
    77  7.6000000000000E-01  4.7492432203393E-01  1.1908175297336E+00
    78  7.7000000000000E-01  4.2299175579177E-01  1.1948814746299E+00
    79  7.8000000000000E-01  3.6987283716132E-01  1.1989051669325E+00
    80  7.9000000000000E-01  3.1550230081571E-01  1.2031491971496E+00
    81  8.0000000000000E-01  2.5983304679463E-01  1.2078500449266E+00
    82  8.1000000000000E-01  2.0284081595404E-01  1.2132133854669E+00
    83  8.2000000000000E-01  1.4452854529146E-01  1.2194078628353E+00
    84  8.3000000000000E-01  8.4930299991230E-02  1.2265594667480E+00
    85  8.4000000000000E-01  2.4114685020362E-02  1.2347466408582E+00
    86  8.5000000000000E-01 -3.7812352891008E-02  1.2439962393220E+00
    87  8.6000000000000E-01 -1.0070541214881E-01  1.2542804347284E+00
    88  8.7000000000000E-01 -1.6437827969352E-01  1.2655146645200E+00
    89  8.8000000000000E-01 -2.2860338532478E-01  1.2775566850831E+00
    90  8.9000000000000E-01 -2.9311210686172E-01  1.2902067830467E+00
    91  9.0000000000000E-01 -3.5759595046066E-01  1.3032091723426E+00
    92  9.1000000000000E-01 -4.2170861403437E-01  1.3162545836188E+00
    93  9.2000000000000E-01 -4.8506892484278E-01  1.3289840300605E+00
    94  9.3000000000000E-01 -5.4726462527142E-01  1.3409937109700E+00
    95  9.4000000000000E-01 -6.0785696389722E-01  1.3518409920203E+00
    96  9.5000000000000E-01 -6.6638603248545E-01  1.3610513793451E+00
    97  9.6000000000000E-01 -7.2237677388451E-01  1.3681263839862E+00
    98  9.7000000000000E-01 -7.7534557120055E-01  1.3725521540961E+00
    99  9.8000000000000E-01 -8.2480731542435E-01  1.3738087350624E+00
   100  9.9000000000000E-01 -8.7028283713342E-01  1.3713798027529E+00
   101  1.0000000000000E+00 -9.1130657823775E-01  1.3647627026778E+00
   102  1.0100000000000E+00 -9.4743437219812E-01  1.3534786183224E+00
   103  1.0200000000000E+00 -9.7825119588811E-01  1.3370826854187E+00
   104  1.0300000000000E+00 -1.0033787534481E+00  1.3151738657064E+00
   105  1.0400000000000E+00 -1.0224827521642E+00  1.2874043938657E+00
   106  1.0500000000000E+00 -1.0352797326652E+00  1.2534886148567E+00
   107  1.0600000000000E+00 -1.0415433205526E+00  1.2132110358723E+00
   108  1.0700000000000E+00 -1.0411097739167E+00  1.1664334273963E+00
   109  1.0800000000000E+00 -1.0338827109750E+00  1.1131008213926E+00
   110  1.0900000000000E+00 -1.0198369141003E+00  1.0532462711321E+00
   111  1.1000000000000E+00 -9.9902112068690E-01  9.8699425647538E-01
   112  1.1100000000000E+00 -9.7155972731089E-01  9.1456264011923E-01
   113  1.1200000000000E+00 -9.3765335129159E-01  8.3626310414711E-01
   114  1.1300000000000E+00 -8.9757821271479E-01  7.5250002172882E-01
   115  1.1400000000000E+00 -8.5168431991048E-01  6.6376774556238E-01
   116  1.1500000000000E+00 -8.0039246197686E-01  5.7064632222413E-01
   117  1.1600000000000E+00 -7.4419003278571E-01  4.7379566942444E-01
   118  1.1700000000000E+00 -6.8362573167751E-01  3.7394828083875E-01
   119  1.1800000000000E+00 -6.1930320634961E-01  2.7190055015221E-01
   120  1.1900000000000E+00 -5.5187372285910E-01  1.6850283169192E-01
   121  1.2000000000000E+00 -4.8202796595101E-01  6.4648379189944E-02
   122  1.2100000000000E+00 -4.1048708953256E-01 -3.8738673906300E-02
   123  1.2200000000000E+00 -3.3799315200875E-01 -1.4071610962875E-01
   124  1.2300000000000E+00 -2.6529908378015E-01 -2.4033699683490E-01
   125  1.2400000000000E+00 -1.9315834447398E-01 -3.3666342607703E-01
   126  1.2500000000000E+00 -1.2231443508027E-01 -4.2878038568903E-01
   127  1.2600000000000E+00 -5.3490434964509E-02 -5.1580955086921E-01