Re    ONCVPSP-4.0.1  r_core=   1.60076   1.60076   1.60076   2.00932
     75.0000     15.0000      250925    zatom,zion,pspd
     8   -1012   3     4   600     0    pspcod,pspxc,lmax,lloc,mmax,r2well
  5.99000000  4.00000000  0.00000000    rchrg fchrg qchrg
     2     3     2     2    nproj
     3     1           extension_switch
     4     4     4    nprojso
   0                         6.5235500729251E+00 -7.1597720491543E-01
     1  0.0000000000000E+00 -2.7176771943971E-10  6.2491294361422E-09
     2  1.0000000000000E-02  5.6774770392608E-02  2.4084209187949E-02
     3  2.0000000000000E-02  1.1345731834970E-01  4.8319299828625E-02
     4  3.0000000000000E-02  1.6995574821403E-01  7.2851352280270E-02
     5  4.0000000000000E-02  2.2617881394239E-01  9.7816936762323E-02
     6  5.0000000000000E-02  2.8203623412737E-01  1.2333858677995E-01
     7  6.0000000000000E-02  3.3743899547473E-01  1.4952054220091E-01
     8  7.0000000000000E-02  3.9229964121406E-01  1.7644484438522E-01
     9  8.0000000000000E-02  4.4653254119210E-01  2.0416785951907E-01
    10  9.0000000000000E-02  5.0005414072883E-01  2.3271729869710E-01
    11  1.0000000000000E-01  5.5278318569892E-01  2.6208979446149E-01
    12  1.1000000000000E-01  6.0464092173056E-01  2.9224908359634E-01
    13  1.2000000000000E-01  6.5555126587979E-01  3.2312483515900E-01
    14  1.3000000000000E-01  7.0544094963534E-01  3.5461215119673E-01
    15  1.4000000000000E-01  7.5423963262518E-01  3.8657175554296E-01
    16  1.5000000000000E-01  8.0187998692400E-01  4.1883087372441E-01
    17  1.6000000000000E-01  8.4829775238994E-01  4.5118479454909E-01
    18  1.7000000000000E-01  8.9343176397942E-01  4.8339909160659E-01
    19  1.8000000000000E-01  9.3722395249193E-01  5.1521247090708E-01
    20  1.9000000000000E-01  9.7961932067175E-01  5.4634019942691E-01
    21  2.0000000000000E-01  1.0205658970328E+00  5.7647805861693E-01
    22  2.1000000000000E-01  1.0600146701671E+00  6.0530675715323E-01
    23  2.2000000000000E-01  1.0979195066406E+00  6.3249672854375E-01
    24  2.3000000000000E-01  1.1342370558618E+00  6.5771323180298E-01
    25  2.4000000000000E-01  1.1689266455297E+00  6.8062166740460E-01
    26  2.5000000000000E-01  1.2019501714172E+00  7.0089301623018E-01
    27  2.6000000000000E-01  1.2332719853220E+00  7.1820930633565E-01
    28  2.7000000000000E-01  1.2628587850236E+00  7.3226901111429E-01
    29  2.8000000000000E-01  1.2906795100101E+00  7.4279228287712E-01
    30  2.9000000000000E-01  1.3167052465944E+00  7.4952592799867E-01
    31  3.0000000000000E-01  1.3409091458189E+00  7.5224803356140E-01
    32  3.1000000000000E-01  1.3632663572608E+00  7.5077216082089E-01
    33  3.2000000000000E-01  1.3837539814953E+00  7.4495102771939E-01
    34  3.3000000000000E-01  1.4023510435654E+00  7.3467961099134E-01
    35  3.4000000000000E-01  1.4190384893370E+00  7.1989760799118E-01
    36  3.5000000000000E-01  1.4337992061163E+00  7.0059120907831E-01
    37  3.6000000000000E-01  1.4466180683564E+00  6.7679414303359E-01
    38  3.7000000000000E-01  1.4574820087145E+00  6.4858797036573E-01
    39  3.8000000000000E-01  1.4663801141314E+00  6.1610161228139E-01
    40  3.9000000000000E-01  1.4733037460171E+00  5.7951011632269E-01
    41  4.0000000000000E-01  1.4782466830366E+00  5.3903267299180E-01
    42  4.1000000000000E-01  1.4812052844234E+00  4.9492991085532E-01
    43  4.2000000000000E-01  1.4821786712015E+00  4.4750051042276E-01
    44  4.3000000000000E-01  1.4811689221931E+00  3.9707718929693E-01
    45  4.4000000000000E-01  1.4781812812279E+00  3.4402212248773E-01
    46  4.5000000000000E-01  1.4732243715674E+00  2.8872187215545E-01
    47  4.6000000000000E-01  1.4663104132172E+00  2.3158191022325E-01
    48  4.7000000000000E-01  1.4574554385342E+00  1.7302082509701E-01
    49  4.8000000000000E-01  1.4466795013439E+00  1.1346431001138E-01
    50  4.9000000000000E-01  1.4340068746774E+00  5.3339035158499E-02
    51  5.0000000000000E-01  1.4194662322134E+00 -6.9334913419431E-03
    52  5.1000000000000E-01  1.4030908085815E+00 -6.6942967473233E-02
    53  5.2000000000000E-01  1.3849185338351E+00 -1.2629614093473E-01
    54  5.3000000000000E-01  1.3649921376479E+00 -1.8462234950135E-01
    55  5.4000000000000E-01  1.3433592191157E+00 -2.4157865969293E-01
    56  5.5000000000000E-01  1.3200722784568E+00 -2.9685451147421E-01
    57  5.6000000000000E-01  1.2951887073897E+00 -3.5017578453401E-01
    58  5.7000000000000E-01  1.2687707355222E+00 -4.0130821107145E-01
    59  5.8000000000000E-01  1.2408853307038E+00 -4.5006007080243E-01
    60  5.9000000000000E-01  1.2116040519606E+00 -4.9628411592058E-01
    61  6.0000000000000E-01  1.1810028543414E+00 -5.3987868680783E-01
    62  6.1000000000000E-01  1.1491618457454E+00 -5.8078799317906E-01
    63  6.2000000000000E-01  1.1161649965570E+00 -6.1900154983055E-01
    64  6.3000000000000E-01  1.0820998036820E+00 -6.5455277100257E-01
    65  6.4000000000000E-01  1.0470569113311E+00 -6.8751674230937E-01
    66  6.5000000000000E-01  1.0111296916403E+00 -7.1800720398008E-01
    67  6.6000000000000E-01  9.7441378891685E-01 -7.4617279353471E-01
    68  6.7000000000000E-01  9.3700663196640E-01 -7.7219260974043E-01
    69  6.8000000000000E-01  8.9900691955474E-01 -7.9627117250799E-01
    70  6.9000000000000E-01  8.6051408459890E-01 -8.1863286506790E-01
    71  7.0000000000000E-01  8.2162774313763E-01 -8.3951595509620E-01
    72  7.1000000000000E-01  7.8244713450476E-01 -8.5916630024582E-01
    73  7.2000000000000E-01  7.4307055940533E-01 -8.7783085061034E-01
    74  7.3000000000000E-01  7.0359482277136E-01 -8.9575106586340E-01
    75  7.4000000000000E-01  6.6411468834488E-01 -9.1315636806143E-01
    76  7.5000000000000E-01  6.2472235189845E-01 -9.3025775229160E-01
    77  7.6000000000000E-01  5.8550693985626E-01 -9.4724167644232E-01
    78  7.7000000000000E-01  5.4655403982218E-01 -9.6426434835724E-01
    79  7.8000000000000E-01  5.0794526915780E-01 -9.8144652353116E-01
    80  7.9000000000000E-01  4.6975788728714E-01 -9.9886891937114E-01
    81  8.0000000000000E-01  4.3206445684135E-01 -1.0165683429785E+00
    82  8.1000000000000E-01  3.9493255810403E-01 -1.0345346185274E+00
    83  8.2000000000000E-01  3.5842456048443E-01 -1.0527083877912E+00
    84  8.3000000000000E-01  3.2259745394341E-01 -1.0709798433766E+00
    85  8.4000000000000E-01  2.8750274243581E-01 -1.0891884390005E+00
    86  8.5000000000000E-01  2.5318640052759E-01 -1.1071236049026E+00
    87  8.6000000000000E-01  2.1968889340939E-01 -1.1245264795150E+00
    88  8.7000000000000E-01  1.8704525957547E-01 -1.1410926510585E+00
    89  8.8000000000000E-01  1.5528525448249E-01 -1.1564758851066E+00
    90  8.9000000000000E-01  1.2443355256321E-01 -1.1702927966472E+00
    91  9.0000000000000E-01  9.4510004059079E-02 -1.1821284080570E+00
    92  9.1000000000000E-01  6.5529942270272E-02 -1.1915425180046E+00
    93  9.2000000000000E-01  3.7504536014435E-02 -1.1980767908724E+00
    94  9.3000000000000E-01  1.0441181351772E-02 -1.2012624621302E+00
    95  9.4000000000000E-01 -1.5656074014316E-02 -1.2006285424416E+00
    96  9.5000000000000E-01 -4.0786080802678E-02 -1.1957103923852E+00
    97  9.6000000000000E-01 -6.4950120271021E-02 -1.1860585307246E+00
    98  9.7000000000000E-01 -8.8151426296175E-02 -1.1712475323435E+00
    99  9.8000000000000E-01 -1.1039470553498E-01 -1.1508848674216E+00
   100  9.9000000000000E-01 -1.3168566385959E-01 -1.1246195312724E+00
   101  1.0000000000000E+00 -1.5203054720680E-01 -1.0921503145628E+00
   102  1.0100000000000E+00 -1.7143570479601E-01 -1.0532335664177E+00
   103  1.0200000000000E+00 -1.8990718235428E-01 -1.0076903081795E+00
   104  1.0300000000000E+00 -2.0745035254441E-01 -9.5541256328353E-01
   105  1.0400000000000E+00 -2.2406958922875E-01 -8.9636877872837E-01
   106  1.0500000000000E+00 -2.3976799152276E-01 -8.3060822586413E-01
   107  1.0600000000000E+00 -2.5454716281083E-01 -7.5826428248712E-01
   108  1.0700000000000E+00 -2.6840704902174E-01 -6.7955651432369E-01
   109  1.0800000000000E+00 -2.8134583950470E-01 -5.9479149171433E-01
   110  1.0900000000000E+00 -2.9335993282680E-01 -5.0436229630997E-01
   111  1.1000000000000E+00 -3.0444396873939E-01 -4.0874669270512E-01
   112  1.1100000000000E+00 -3.1459092645614E-01 -3.0850396071685E-01
   113  1.1200000000000E+00 -3.2379228826314E-01 -2.0427040524773E-01
   114  1.1300000000000E+00 -3.3203826635987E-01 -9.6753581954801E-02
   115  1.1400000000000E+00 -3.3931808972900E-01  1.3274702052128E-02
   116  1.1500000000000E+00 -3.4562034676731E-01  1.2498653284854E-01
   117  1.1600000000000E+00 -3.5093337840048E-01  2.3750708060598E-01
   118  1.1700000000000E+00 -3.5524571546553E-01  3.4992471953366E-01
   119  1.1800000000000E+00 -3.5854655329249E-01  4.6130194301968E-01
   120  1.1900000000000E+00 -3.6082625566832E-01  5.7068692544068E-01
   121  1.2000000000000E+00 -3.6207687972933E-01  6.7712556948288E-01
   122  1.2100000000000E+00 -3.6229271282249E-01  7.7967386762399E-01
   123  1.2200000000000E+00 -3.6147081200128E-01  8.7741039868983E-01
   124  1.2300000000000E+00 -3.5961153659518E-01  9.6944877543772E-01
   125  1.2400000000000E+00 -3.5671906421095E-01  1.0549498569156E+00
   126  1.2500000000000E+00 -3.5280188059744E-01  1.1331335400583E+00
   127  1.2600000000000E+00 -3.4787323402926E-01  1.2032899485514E+00
   128  1.2700000000000E+00 -3.4195154524185E-01  1.2647898434859E+00
   129  1.2800000000000E+00 -3.3506076447374E-01  1.3170940896140E+00
   130  1.2900000000000E+00 -3.2723066783179E-01  1.3597620229293E+00
   131  1.3000000000000E+00 -3.1849708599302E-01  1.3924585798646E+00
   132  1.3100000000000E+00 -3.0890205917073E-01  1.4149600652130E+00
   133  1.3200000000000E+00 -2.9849391329194E-01  1.4271584547552E+00
   134  1.3300000000000E+00 -2.8732725345214E-01  1.4290641493837E+00
   135  1.3400000000000E+00 -2.7546287190292E-01  1.4208071197370E+00
   136  1.3500000000000E+00 -2.6296756907961E-01  1.4026364038188E+00
   137  1.3600000000000E+00 -2.4991388746181E-01  1.3749179442465E+00
   138  1.3700000000000E+00 -2.3637975937677E-01  1.3381307766248E+00
   139  1.3800000000000E+00 -2.2244807116131E-01  1.2928616052226E+00
   140  1.3900000000000E+00 -2.0820614739242E-01  1.2397978266940E+00
   141  1.4000000000000E+00 -1.9374516014273E-01  1.1797190862760E+00
   142  1.4100000000000E+00 -1.7915946941521E-01  1.1134874737615E+00
   143  1.4200000000000E+00 -1.6454590202040E-01  1.0420364877717E+00
   144  1.4300000000000E+00 -1.5000297717817E-01  9.6635891643257E-01
   145  1.4400000000000E+00 -1.3563008803204E-01  8.8749380005952E-01
   146  1.4500000000000E+00 -1.2152664904014E-01  8.0651265653323E-01
   147  1.4600000000000E+00 -1.0779121984823E-01  7.2450516263603E-01
   148  1.4700000000000E+00 -9.4520616736354E-02  6.4256449428600E-01
   149  1.4800000000000E+00 -8.1809023060118E-02  5.6177253535224E-01
   150  1.4900000000000E+00 -6.9747110288449E-02  4.8318516935874E-01
   151  1.5000000000000E+00 -5.8421180742385E-02  4.0781783305295E-01
   152  1.5100000000000E+00 -4.7912344564965E-02  3.3663171950964E-01
   153  1.5200000000000E+00 -3.8295744905947E-02  2.7052019906037E-01
   154  1.5300000000000E+00 -2.9639243374592E-02  2.1026557941669E-01
   155  1.5400000000000E+00 -2.2003216161991E-02  1.5656349818058E-01
   156  1.5500000000000E+00 -1.5441106083655E-02  1.1006505469611E-01
   157  1.5600000000000E+00 -9.9980166901215E-03  7.1304888166526E-02
   158  1.5700000000000E+00 -5.7102723039141E-03  4.0697467502177E-02
   159  1.5800000000000E+00 -2.6058149872632E-03  1.8536557232854E-02
   160  1.5900000000000E+00 -6.9632851182543E-04  4.9381448833362E-03
   161  1.6000000000000E+00 -1.4363415152222E-05  1.0141728295671E-04
   162  1.6100000000000E+00  2.1269885205800E-06 -1.4995919051230E-05
   163  1.6200000000000E+00 -6.6006965017769E-08  4.6669681481247E-07
   164  1.63  0.  0.
   165  1.64  0.  0.
   166  1.65  0.  0.
   167  1.66  0.  0.
   168  1.67  0.  0.
   169  1.68  0.  0.
   170  1.69  0.  0.
   171  1.70  0.  0.
   172  1.71  0.  0.
   173  1.72  0.  0.
   174  1.73  0.  0.
   175  1.74  0.  0.
   176  1.75  0.  0.
   177  1.76  0.  0.
   178  1.77  0.  0.
   179  1.78  0.  0.
   180  1.79  0.  0.
   181  1.80  0.  0.
   182  1.81  0.  0.
   183  1.82  0.  0.
   184  1.83  0.  0.
   185  1.84  0.  0.
   186  1.85  0.  0.
   187  1.86  0.  0.
   188  1.87  0.  0.
   189  1.88  0.  0.
   190  1.89  0.  0.
   191  1.90  0.  0.
   192  1.91  0.  0.
   193  1.92  0.  0.
   194  1.93  0.  0.
   195  1.94  0.  0.
   196  1.95  0.  0.
   197  1.96  0.  0.
   198  1.97  0.  0.
   199  1.98  0.  0.
   200  1.99  0.  0.
   201  2.00  0.  0.
   202  2.01  0.  0.
   203  2.02  0.  0.
   204  2.03  0.  0.
   205  2.04  0.  0.
   206  2.05  0.  0.
   207  2.06  0.  0.
   208  2.07  0.  0.
   209  2.08  0.  0.
   210  2.09  0.  0.
   211  2.10  0.  0.
   212  2.11  0.  0.
   213  2.12  0.  0.
   214  2.13  0.  0.
   215  2.14  0.  0.
   216  2.15  0.  0.
   217  2.16  0.  0.
   218  2.17  0.  0.
   219  2.18  0.  0.
   220  2.19  0.  0.
   221  2.20  0.  0.
   222  2.21  0.  0.
   223  2.22  0.  0.
   224  2.23  0.  0.
   225  2.24  0.  0.
   226  2.25  0.  0.
   227  2.26  0.  0.
   228  2.27  0.  0.
   229  2.28  0.  0.
   230  2.29  0.  0.
   231  2.30  0.  0.
   232  2.31  0.  0.
   233  2.32  0.  0.
   234  2.33  0.  0.
   235  2.34  0.  0.
   236  2.35  0.  0.
   237  2.36  0.  0.
   238  2.37  0.  0.
   239  2.38  0.  0.
   240  2.39  0.  0.
   241  2.40  0.  0.
   242  2.41  0.  0.
   243  2.42  0.  0.
   244  2.43  0.  0.
   245  2.44  0.  0.
   246  2.45  0.  0.
   247  2.46  0.  0.
   248  2.47  0.  0.
   249  2.48  0.  0.
   250  2.49  0.  0.
   251  2.50  0.  0.
   252  2.51  0.  0.
   253  2.52  0.  0.
   254  2.53  0.  0.
   255  2.54  0.  0.
   256  2.55  0.  0.
   257  2.56  0.  0.
   258  2.57  0.  0.
   259  2.58  0.  0.
   260  2.59  0.  0.
   261  2.60  0.  0.
   262  2.61  0.  0.
   263  2.62  0.  0.
   264  2.63  0.  0.
   265  2.64  0.  0.
   266  2.65  0.  0.
   267  2.66  0.  0.
   268  2.67  0.  0.
   269  2.68  0.  0.
   270  2.69  0.  0.
   271  2.70  0.  0.
   272  2.71  0.  0.
   273  2.72  0.  0.
   274  2.73  0.  0.
   275  2.74  0.  0.
   276  2.75  0.  0.
   277  2.76  0.  0.
   278  2.77  0.  0.
   279  2.78  0.  0.
   280  2.79  0.  0.
   281  2.80  0.  0.
   282  2.81  0.  0.
   283  2.82  0.  0.
   284  2.83  0.  0.
   285  2.84  0.  0.
   286  2.85  0.  0.
   287  2.86  0.  0.
   288  2.87  0.  0.
   289  2.88  0.  0.
   290  2.89  0.  0.
   291  2.90  0.  0.
   292  2.91  0.  0.
   293  2.92  0.  0.
   294  2.93  0.  0.
   295  2.94  0.  0.
   296  2.95  0.  0.
   297  2.96  0.  0.
   298  2.97  0.  0.
   299  2.98  0.  0.
   300  2.99  0.  0.
   301  3.00  0.  0.
   302  3.01  0.  0.
   303  3.02  0.  0.
   304  3.03  0.  0.
   305  3.04  0.  0.
   306  3.05  0.  0.
   307  3.06  0.  0.
   308  3.07  0.  0.
   309  3.08  0.  0.
   310  3.09  0.  0.
   311  3.10  0.  0.
   312  3.11  0.  0.
   313  3.12  0.  0.
   314  3.13  0.  0.
   315  3.14  0.  0.
   316  3.15  0.  0.
   317  3.16  0.  0.
   318  3.17  0.  0.
   319  3.18  0.  0.
   320  3.19  0.  0.
   321  3.20  0.  0.
   322  3.21  0.  0.
   323  3.22  0.  0.
   324  3.23  0.  0.
   325  3.24  0.  0.
   326  3.25  0.  0.
   327  3.26  0.  0.
   328  3.27  0.  0.
   329  3.28  0.  0.
   330  3.29  0.  0.
   331  3.30  0.  0.
   332  3.31  0.  0.
   333  3.32  0.  0.
   334  3.33  0.  0.
   335  3.34  0.  0.
   336  3.35  0.  0.
   337  3.36  0.  0.
   338  3.37  0.  0.
   339  3.38  0.  0.
   340  3.39  0.  0.
   341  3.40  0.  0.
   342  3.41  0.  0.
   343  3.42  0.  0.
   344  3.43  0.  0.
   345  3.44  0.  0.
   346  3.45  0.  0.
   347  3.46  0.  0.
   348  3.47  0.  0.
   349  3.48  0.  0.
   350  3.49  0.  0.
   351  3.50  0.  0.
   352  3.51  0.  0.
   353  3.52  0.  0.
   354  3.53  0.  0.
   355  3.54  0.  0.
   356  3.55  0.  0.
   357  3.56  0.  0.
   358  3.57  0.  0.
   359  3.58  0.  0.
   360  3.59  0.  0.
   361  3.60  0.  0.
   362  3.61  0.  0.
   363  3.62  0.  0.
   364  3.63  0.  0.
   365  3.64  0.  0.
   366  3.65  0.  0.
   367  3.66  0.  0.
   368  3.67  0.  0.
   369  3.68  0.  0.
   370  3.69  0.  0.
   371  3.70  0.  0.
   372  3.71  0.  0.
   373  3.72  0.  0.
   374  3.73  0.  0.
   375  3.74  0.  0.
   376  3.75  0.  0.
   377  3.76  0.  0.
   378  3.77  0.  0.
   379  3.78  0.  0.
   380  3.79  0.  0.
   381  3.80  0.  0.
   382  3.81  0.  0.
   383  3.82  0.  0.
   384  3.83  0.  0.
   385  3.84  0.  0.
   386  3.85  0.  0.
   387  3.86  0.  0.
   388  3.87  0.  0.
   389  3.88  0.  0.
   390  3.89  0.  0.
   391  3.90  0.  0.
   392  3.91  0.  0.
   393  3.92  0.  0.
   394  3.93  0.  0.
   395  3.94  0.  0.
   396  3.95  0.  0.
   397  3.96  0.  0.
   398  3.97  0.  0.
   399  3.98  0.  0.
   400  3.99  0.  0.
   401  4.00  0.  0.
   402  4.01  0.  0.
   403  4.02  0.  0.
   404  4.03  0.  0.
   405  4.04  0.  0.
   406  4.05  0.  0.
   407  4.06  0.  0.
   408  4.07  0.  0.
   409  4.08  0.  0.
   410  4.09  0.  0.
   411  4.10  0.  0.
   412  4.11  0.  0.
   413  4.12  0.  0.
   414  4.13  0.  0.
   415  4.14  0.  0.
   416  4.15  0.  0.
   417  4.16  0.  0.
   418  4.17  0.  0.
   419  4.18  0.  0.
   420  4.19  0.  0.
   421  4.20  0.  0.
   422  4.21  0.  0.
   423  4.22  0.  0.
   424  4.23  0.  0.
   425  4.24  0.  0.
   426  4.25  0.  0.
   427  4.26  0.  0.
   428  4.27  0.  0.
   429  4.28  0.  0.
   430  4.29  0.  0.
   431  4.30  0.  0.
   432  4.31  0.  0.
   433  4.32  0.  0.
   434  4.33  0.  0.
   435  4.34  0.  0.
   436  4.35  0.  0.
   437  4.36  0.  0.
   438  4.37  0.  0.
   439  4.38  0.  0.
   440  4.39  0.  0.
   441  4.40  0.  0.
   442  4.41  0.  0.
   443  4.42  0.  0.
   444  4.43  0.  0.
   445  4.44  0.  0.
   446  4.45  0.  0.
   447  4.46  0.  0.
   448  4.47  0.  0.
   449  4.48  0.  0.
   450  4.49  0.  0.
   451  4.50  0.  0.
   452  4.51  0.  0.
   453  4.52  0.  0.
   454  4.53  0.  0.
   455  4.54  0.  0.
   456  4.55  0.  0.
   457  4.56  0.  0.
   458  4.57  0.  0.
   459  4.58  0.  0.
   460  4.59  0.  0.
   461  4.60  0.  0.
   462  4.61  0.  0.
   463  4.62  0.  0.
   464  4.63  0.  0.
   465  4.64  0.  0.
   466  4.65  0.  0.
   467  4.66  0.  0.
   468  4.67  0.  0.
   469  4.68  0.  0.
   470  4.69  0.  0.
   471  4.70  0.  0.
   472  4.71  0.  0.
   473  4.72  0.  0.
   474  4.73  0.  0.
   475  4.74  0.  0.
   476  4.75  0.  0.
   477  4.76  0.  0.
   478  4.77  0.  0.
   479  4.78  0.  0.
   480  4.79  0.  0.
   481  4.80  0.  0.
   482  4.81  0.  0.
   483  4.82  0.  0.
   484  4.83  0.  0.
   485  4.84  0.  0.
   486  4.85  0.  0.
   487  4.86  0.  0.
   488  4.87  0.  0.
   489  4.88  0.  0.
   490  4.89  0.  0.
   491  4.90  0.  0.
   492  4.91  0.  0.
   493  4.92  0.  0.
   494  4.93  0.  0.
   495  4.94  0.  0.
   496  4.95  0.  0.
   497  4.96  0.  0.
   498  4.97  0.  0.
   499  4.98  0.  0.
   500  4.99  0.  0.
   501  5.00  0.  0.
   502  5.01  0.  0.
   503  5.02  0.  0.
   504  5.03  0.  0.
   505  5.04  0.  0.
   506  5.05  0.  0.
   507  5.06  0.  0.
   508  5.07  0.  0.
   509  5.08  0.  0.
   510  5.09  0.  0.
   511  5.10  0.  0.
   512  5.11  0.  0.
   513  5.12  0.  0.
   514  5.13  0.  0.
   515  5.14  0.  0.
   516  5.15  0.  0.
   517  5.16  0.  0.
   518  5.17  0.  0.
   519  5.18  0.  0.
   520  5.19  0.  0.
   521  5.20  0.  0.
   522  5.21  0.  0.
   523  5.22  0.  0.
   524  5.23  0.  0.
   525  5.24  0.  0.
   526  5.25  0.  0.
   527  5.26  0.  0.
   528  5.27  0.  0.
   529  5.28  0.  0.
   530  5.29  0.  0.
   531  5.30  0.  0.
   532  5.31  0.  0.
   533  5.32  0.  0.
   534  5.33  0.  0.
   535  5.34  0.  0.
   536  5.35  0.  0.
   537  5.36  0.  0.
   538  5.37  0.  0.
   539  5.38  0.  0.
   540  5.39  0.  0.
   541  5.40  0.  0.
   542  5.41  0.  0.
   543  5.42  0.  0.
   544  5.43  0.  0.
   545  5.44  0.  0.
   546  5.45  0.  0.
   547  5.46  0.  0.
   548  5.47  0.  0.
   549  5.48  0.  0.
   550  5.49  0.  0.
   551  5.50  0.  0.
   552  5.51  0.  0.
   553  5.52  0.  0.
   554  5.53  0.  0.
   555  5.54  0.  0.
   556  5.55  0.  0.
   557  5.56  0.  0.
   558  5.57  0.  0.
   559  5.58  0.  0.
   560  5.59  0.  0.
   561  5.60  0.  0.
   562  5.61  0.  0.
   563  5.62  0.  0.
   564  5.63  0.  0.
   565  5.64  0.  0.
   566  5.65  0.  0.
   567  5.66  0.  0.
   568  5.67  0.  0.
   569  5.68  0.  0.
   570  5.69  0.  0.
   571  5.70  0.  0.
   572  5.71  0.  0.
   573  5.72  0.  0.
   574  5.73  0.  0.
   575  5.74  0.  0.
   576  5.75  0.  0.
   577  5.76  0.  0.
   578  5.77  0.  0.
   579  5.78  0.  0.
   580  5.79  0.  0.
   581  5.80  0.  0.
   582  5.81  0.  0.
   583  5.82  0.  0.
   584  5.83  0.  0.
   585  5.84  0.  0.
   586  5.85  0.  0.
   587  5.86  0.  0.
   588  5.87  0.  0.
   589  5.88  0.  0.
   590  5.89  0.  0.
   591  5.90  0.  0.
   592  5.91  0.  0.
   593  5.92  0.  0.
   594  5.93  0.  0.
   595  5.94  0.  0.
   596  5.95  0.  0.
   597  5.96  0.  0.
   598  5.97  0.  0.
   599  5.98  0.  0.
   600  5.99  0.  0.
   1                         7.6144212786052E+00  9.4328727635897E-01 -2.8442500744938E-02
     1  0.0000000000000E+00 -5.7761281591073E-09  1.0193651344900E-08 -1.8815767884733E-08
     2  1.0000000000000E-02  1.2392677042374E-03  6.0970220297810E-05 -5.5846238493935E-04
     3  2.0000000000000E-02  4.9582267132913E-03  2.3593753604353E-04 -2.2121851127552E-03
     4  3.0000000000000E-02  1.1160204505387E-02  5.0132869164487E-04 -4.8966956893628E-03
     5  4.0000000000000E-02  1.9850282973002E-02  8.1870472909635E-04 -8.5062647194661E-03
     6  5.0000000000000E-02  3.1034614618612E-02  1.1360143628566E-03 -1.2896454098731E-02
     7  6.0000000000000E-02  4.4719489069284E-02  1.3893065253096E-03 -1.7887607402789E-02
     8  7.0000000000000E-02  6.0910173138294E-02  1.5048610023501E-03 -2.3269207287142E-02
     9  8.0000000000000E-02  7.9609553438089E-02  1.4016858849835E-03 -2.8805005896281E-02
    10  9.0000000000000E-02  1.0081661570330E-01  9.9432148409653E-04 -3.4238817390170E-02
    11  1.0000000000000E-01  1.2452479940401E-01  1.9588259005878E-04 -3.9300847079100E-02
    12  1.1000000000000E-01  1.5072026982031E-01 -1.0787353189123E-03 -4.3714419620213E-02
    13  1.2000000000000E-01  1.7938015243026E-01 -2.9095649654779E-03 -4.7202959520611E-02
    14  1.3000000000000E-01  2.1047077617210E-01 -5.3682732167974E-03 -4.9497071009437E-02
    15  1.4000000000000E-01  2.4394597283759E-01 -8.5149471436167E-03 -5.0341561319242E-02
    16  1.5000000000000E-01  2.7974547951454E-01 -1.2395042514144E-02 -4.9502251629202E-02
    17  1.6000000000000E-01  3.1779348962473E-01 -1.7036574461214E-02 -4.6772423375751E-02
    18  1.7000000000000E-01  3.5799739571914E-01 -2.2447625682313E-02 -4.1978754270816E-02
    19  1.8000000000000E-01  4.0024676383919E-01 -2.8614241437169E-02 -3.4986608066155E-02
    20  1.9000000000000E-01  4.4441257499358E-01 -3.5498772912749E-02 -2.5704554677161E-02
    21  2.0000000000000E-01  4.9034676421644E-01 -4.3038721381607E-02 -1.4088012489150E-02
    22  2.1000000000000E-01  5.3788208186480E-01 -5.1146125170676E-02 -1.4192222129111E-04
    23  2.2000000000000E-01  5.8683229539571E-01 -5.9707519992861E-02  1.6077618733211E-02
    24  2.3000000000000E-01  6.3699274296443E-01 -6.8584490907355E-02  3.4462811414735E-02
    25  2.4000000000000E-01  6.8814124294453E-01 -7.7614821320772E-02  5.4854727434078E-02
    26  2.5000000000000E-01  7.4003935603515E-01 -8.6614231285593E-02  7.7045002630078E-02
    27  2.6000000000000E-01  7.9243398914300E-01 -9.5378684171929E-02  1.0077863337257E-01
    28  2.7000000000000E-01  8.4505932286068E-01 -1.0368722786112E-01  1.2575783345761E-01
    29  2.8000000000000E-01  8.9763903726340E-01 -1.1130532421279E-01  1.5164688702705E-01
    30  2.9000000000000E-01  9.4988880406116E-01 -1.1798860895729E-01  1.7807791155025E-01
    31  3.0000000000000E-01  1.0015190070160E+00 -1.2348701361763E-01  2.0465742507591E-01
    32  3.1000000000000E-01  1.0522376470972E+00 -1.2754917180583E-01  2.3097359410380E-01
    33  3.2000000000000E-01  1.1017533842178E+00 -1.2992702447571E-01  2.5660402292051E-01
    34  3.3000000000000E-01  1.1497786636845E+00 -1.3038053263475E-01  2.8112393241707E-01
    35  3.4000000000000E-01  1.1960328727748E+00 -1.2868240176772E-01  3.0411456654264E-01
    36  3.5000000000000E-01  1.2402454712144E+00 -1.2462271992119E-01  3.2517165786898E-01
    37  3.6000000000000E-01  1.2821590387934E+00 -1.1801341111589E-01  3.4391378040659E-01
    38  3.7000000000000E-01  1.3215321839693E+00 -1.0869240752718E-01  3.5999041792297E-01
    39  3.8000000000000E-01  1.3581422590542E+00 -9.6527447698368E-02  3.7308957959312E-01
    40  3.9000000000000E-01  1.3917878304523E+00 -8.1419413876604E-02  3.8294480182285E-01
    41  4.0000000000000E-01  1.4222908563590E+00 -6.3305129298154E-02  3.8934138541808E-01
    42  4.1000000000000E-01  1.4494985292895E+00 -4.2159545768433E-02  3.9212173075339E-01
    43  4.2000000000000E-01  1.4732847466823E+00 -1.7997263014043E-02  3.9118964997893E-01
    44  4.3000000000000E-01  1.4935511795193E+00  9.1266661732994E-03  3.8651355430155E-01
    45  4.4000000000000E-01  1.5102279162932E+00  3.9116677262951E-02  3.7812843562683E-01
    46  4.5000000000000E-01  1.5232736675925E+00  7.1837399410893E-02  3.6613658495433E-01
    47  4.6000000000000E-01  1.5326755249210E+00  1.0711512735098E-01  3.5070701443991E-01
    48  4.7000000000000E-01  1.5384482759471E+00  1.4474004652512E-01  3.3207357549692E-01
    49  4.8000000000000E-01  1.5406332870359E+00  1.8446918261470E-01  3.1053179121652E-01
    50  4.9000000000000E-01  1.5392969724658E+00  2.2603003132258E-01  2.8643444722606E-01
    51  5.0000000000000E-01  1.5345288780131E+00  2.6912480955590E-01  2.6018601036912E-01
    52  5.1000000000000E-01  1.5264394144207E+00  3.1343525538197E-01  2.3223596876997E-01
    53  5.2000000000000E-01  1.5151572835043E+00  3.5862789156652E-01  2.0307120945108E-01
    54  5.3000000000000E-01  1.5008266461185E+00  4.0435965643018E-01  1.7320757024052E-01
    55  5.4000000000000E-01  1.4836040867896E+00  4.5028379642256E-01  1.4318072080736E-01
    56  5.5000000000000E-01  1.4636554343771E+00  4.9605590743242E-01  1.1353654291442E-01
    57  5.6000000000000E-01  1.4411525015643E+00  5.4134000660877E-01  8.4821192048070E-02
    58  5.7000000000000E-01  1.4162698082057E+00  5.8581451350368E-01  5.7571031194644E-02
    59  5.8000000000000E-01  1.3891813545157E+00  6.2917801876221E-01  3.2302632485284E-02
    60  5.9000000000000E-01  1.3600575097390E+00  6.7115472043333E-01  9.5030435757253E-03
    61  6.0000000000000E-01  1.3290620802762E+00  7.1149941226149E-01 -1.0379487094377E-02
    62  6.1000000000000E-01  1.2963496182742E+00  7.5000191500401E-01 -2.6944138596787E-02
    63  6.2000000000000E-01  1.2620630274563E+00  7.8649085081012E-01 -3.9845322154502E-02
    64  6.3000000000000E-01  1.2263315175448E+00  8.2083667186140E-01 -4.8799498882870E-02
    65  6.4000000000000E-01  1.1892689520900E+00  8.5295386762377E-01 -5.3590864740127E-02
    66  6.5000000000000E-01  1.1509726269943E+00  8.8280228997928E-01 -5.4075777226718E-02
    67  6.6000000000000E-01  1.1115225086274E+00  9.1038755192413E-01 -5.0185821523539E-02
    68  6.7000000000000E-01  1.0709809513373E+00  9.3576047314671E-01 -4.1929439205668E-02
    69  6.8000000000000E-01  1.0293929045237E+00  9.5901556430633E-01 -2.9392069943139E-02
    70  6.9000000000000E-01  9.8678660945180E-01  9.8028856087636E-01 -1.2734785189239E-02
    71  7.0000000000000E-01  9.4317477583098E-01  9.9975303662820E-01  7.8085777782568E-03
    72  7.1000000000000E-01  8.9855621805802E-01  1.0176161458431E+00  3.1935743525221E-02
    73  7.2000000000000E-01  8.5291792113829E-01  1.0341135617710E+00  5.9281720689297E-02
    74  7.3000000000000E-01  8.0623749683864E-01  1.0495036963399E+00  8.9425823346127E-02
    75  7.4000000000000E-01  7.5848598179268E-01  1.0640613022938E+00  1.2189986931892E-01
    76  7.5000000000000E-01  7.0963092125202E-01  1.0780705734691E+00  1.5619740849755E-01
    77  7.6000000000000E-01  6.5963967512912E-01  1.0918178714855E+00  1.9178381204333E-01
    78  7.7000000000000E-01  6.0848287706141E-01  1.1055842174586E+00  2.2810703416769E-01
    79  7.8000000000000E-01  5.5613797257703E-01  1.1196376951845E+00  2.6460884240405E-01
    80  7.9000000000000E-01  5.0259275917369E-01  1.1342259174103E+00  3.0073630028329E-01
    81  8.0000000000000E-01  4.4784884931788E-01  1.1495687091359E+00  3.3595327836460E-01
    82  8.1000000000000E-01  3.9192497709610E-01  1.1658511612906E+00  3.6975176585704E-01
    83  8.2000000000000E-01  3.3486007053067E-01  1.1832172045526E+00  4.0166275573095E-01
    84  8.3000000000000E-01  2.7671601441570E-01  1.2017638465409E+00  4.3126648129457E-01
    85  8.4000000000000E-01  2.1758003290365E-01  1.2215362061763E+00  4.5820179166673E-01
    86  8.5000000000000E-01  1.5756662692318E-01  1.2425234668014E+00  4.8217446727666E-01
    87  8.6000000000000E-01  9.6819008747573E-02  1.2646558548653E+00  5.0296429426470E-01
    88  8.7000000000000E-01  3.5509984544971E-02  1.2878027338228E+00  5.2043073814543E-01
    89  8.8000000000000E-01 -2.6157754613790E-02  1.3117718836807E+00  5.3451708196873E-01
    90  8.9000000000000E-01 -8.7951962201985E-02  1.3363100156472E+00  5.4525292203898E-01
    91  9.0000000000000E-01 -1.4961180365630E-01  1.3611045489839E+00  5.5275494452348E-01
    92  9.1000000000000E-01 -2.1084946731461E-01  1.3857866538095E+00  5.5722593846587E-01
    93  9.2000000000000E-01 -2.7135241208486E-01  1.4099355396898E+00  5.5895203420912E-01
    94  9.3000000000000E-01 -3.3078623259234E-01  1.4330839458013E+00  5.5829819041280E-01
    95  9.4000000000000E-01 -3.8879811018970E-01  1.4547247647346E+00  5.5570198707590E-01
    96  9.5000000000000E-01 -4.4502080618645E-01  1.4743187090477E+00  5.5166581558590E-01
    97  9.6000000000000E-01 -4.9907714219915E-01  1.4913029079408E+00  5.4674758917714E-01