Re    ONCVPSP-4.0.1  r_core=   1.60076   1.60076   1.60076   2.00932
     75.0000     15.0000      250217    zatom,zion,pspd
     8       2   3     4   600     0    pspcod,pspxc,lmax,lloc,mmax,r2well
  5.99000000  4.00000000  0.00000000    rchrg fchrg qchrg
     2     3     2     2    nproj
     3     1           extension_switch
     4     4     4    nprojso
   0                         6.5806074700923E+00 -6.6748171524374E-01
     1  0.0000000000000E+00 -2.3031182516675E-10  6.3088823054613E-09
     2  1.0000000000000E-02  5.7017634047645E-02  2.3533966029813E-02
     3  2.0000000000000E-02  1.1394372813047E-01  4.7221852527532E-02
     4  3.0000000000000E-02  1.7068703803484E-01  7.1212732143875E-02
     5  4.0000000000000E-02  2.2715690771629E-01  9.5646074812815E-02
     6  5.0000000000000E-02  2.8326355511144E-01  1.2064717704015E-01
     7  6.0000000000000E-02  3.3891834819040E-01  1.4632286338451E-01
     8  7.0000000000000E-02  3.9403406827264E-01  1.7275754330616E-01
     9  8.0000000000000E-02  4.4852515785976E-01  2.0000970025036E-01
    10  9.0000000000000E-02  5.0230795051838E-01  2.2810888215116E-01
    11  1.0000000000000E-01  5.5530088067066E-01  2.5705325362251E-01
    12  1.1000000000000E-01  6.0742467151343E-01  2.8680776009719E-01
    13  1.2000000000000E-01  6.5860249968126E-01  3.1730294325552E-01
    14  1.3000000000000E-01  7.0876013568917E-01  3.4843443544110E-01
    15  1.4000000000000E-01  7.5782605962675E-01  3.8006314859279E-01
    16  1.5000000000000E-01  8.0573155202184E-01  4.1201616074049E-01
    17  1.6000000000000E-01  8.5241076023756E-01  4.4408829053358E-01
    18  1.7000000000000E-01  8.9780074120604E-01  4.7604433781422E-01
    19  1.8000000000000E-01  9.4184148172469E-01  5.0762195612989E-01
    20  1.9000000000000E-01  9.8447589794032E-01  5.3853511151240E-01
    21  2.0000000000000E-01  1.0256498160145E+00  5.6847807103824E-01
    22  2.1000000000000E-01  1.0653119362932E+00  5.9712985481729E-01
    23  2.2000000000000E-01  1.1034137835878E+00  6.2415907630985E-01
    24  2.3000000000000E-01  1.1399096464100E+00  6.4922908840269E-01
    25  2.4000000000000E-01  1.1747565081826E+00  6.7200334661748E-01
    26  2.5000000000000E-01  1.2079139735660E+00  6.9215089629353E-01
    27  2.6000000000000E-01  1.2393441931013E+00  7.0935188766551E-01
    28  2.7000000000000E-01  1.2690117893660E+00  7.2330302150578E-01
    29  2.8000000000000E-01  1.2968837877663E+00  7.3372282844997E-01
    30  2.9000000000000E-01  1.3229295549613E+00  7.4035668727586E-01
    31  3.0000000000000E-01  1.3471207477185E+00  7.4298149123067E-01
    32  3.1000000000000E-01  1.3694312747485E+00  7.4140987694484E-01
    33  3.2000000000000E-01  1.3898372737584E+00  7.3549393744637E-01
    34  3.3000000000000E-01  1.4083171056077E+00  7.2512834918696E-01
    35  3.4000000000000E-01  1.4248513670496E+00  7.1025285267404E-01
    36  3.5000000000000E-01  1.4394229231026E+00  6.9085403711048E-01
    37  3.6000000000000E-01  1.4520169596314E+00  6.6696639119841E-01
    38  3.7000000000000E-01  1.4626210562278E+00  6.3867259476658E-01
    39  3.8000000000000E-01  1.4712252789824E+00  6.0610303892161E-01
    40  3.9000000000000E-01  1.4778222922346E+00  5.6943457578014E-01
    41  4.0000000000000E-01  1.4824074878903E+00  5.2888851228316E-01
    42  4.1000000000000E-01  1.4849791304146E+00  4.8472787589190E-01
    43  4.2000000000000E-01  1.4855385151493E+00  4.3725399288797E-01
    44  4.3000000000000E-01  1.4840901371786E+00  3.8680243231980E-01
    45  4.4000000000000E-01  1.4806418675841E+00  3.3373838013653E-01
    46  4.5000000000000E-01  1.4752051335952E+00  2.7845151852369E-01
    47  4.6000000000000E-01  1.4677950988630E+00  2.2135049471169E-01
    48  4.7000000000000E-01  1.4584308398707E+00  1.6285707139823E-01
    49  4.8000000000000E-01  1.4471355143460E+00  1.0340005726193E-01
    50  4.9000000000000E-01  1.4339365174625E+00  4.3409120722884E-02
    51  5.0000000000000E-01  1.4188656216187E+00 -1.6691406970291E-02
    52  5.1000000000000E-01  1.4019590956560E+00 -7.6488632141558E-02
    53  5.2000000000000E-01  1.3832577995278E+00 -1.3558699614433E-01
    54  5.3000000000000E-01  1.3628072506606E+00 -1.9361386605357E-01
    55  5.4000000000000E-01  1.3406576585464E+00 -2.5022471921961E-01
    56  5.5000000000000E-01  1.3168639244763E+00 -3.0510782853210E-01
    57  5.6000000000000E-01  1.2914856037607E+00 -3.5798836315043E-01
    58  5.7000000000000E-01  1.2645868282731E+00 -4.0863182893077E-01
    59  5.8000000000000E-01  1.2362361877029E+00 -4.5684678367369E-01
    60  5.9000000000000E-01  1.2065065684883E+00 -5.0248677445656E-01
    61  6.0000000000000E-01  1.1754749500256E+00 -5.4545145750471E-01
    62  6.1000000000000E-01  1.1432221583989E+00 -5.8568687508138E-01
    63  6.2000000000000E-01  1.1098325785360E+00 -6.2318487850348E-01
    64  6.3000000000000E-01  1.0753938263618E+00 -6.5798170137483E-01
    65  6.4000000000000E-01  1.0399963831803E+00 -6.9015570221675E-01
    66  6.5000000000000E-01  1.0037331951522E+00 -7.1982431060870E-01
    67  6.6000000000000E-01  9.6669924134975E-01 -7.4714022547125E-01
    68  6.7000000000000E-01  9.2899107443497E-01 -7.7228692797525E-01
    69  6.8000000000000E-01  8.9070633852888E-01 -7.9547358449827E-01
    70  6.9000000000000E-01  8.5194326929719E-01 -8.1692942684020E-01
    71  7.0000000000000E-01  8.1280018166723E-01 -8.3689770733753E-01
    72  7.1000000000000E-01  7.7337495090395E-01 -8.5562933538307E-01
    73  7.2000000000000E-01  7.3376449300293E-01 -8.7337630899555E-01
    74  7.3000000000000E-01  6.9406425049946E-01 -8.9038506034646E-01
    75  7.4000000000000E-01  6.5436768984175E-01 -9.0688983742371E-01
    76  7.5000000000000E-01  6.1476581643025E-01 -9.2310624521533E-01
    77  7.6000000000000E-01  5.7534671328338E-01 -9.3922506887867E-01
    78  7.7000000000000E-01  5.3619510905267E-01 -9.5540649831375E-01
    79  7.8000000000000E-01  4.9739198078008E-01 -9.7177486840277E-01
    80  7.9000000000000E-01  4.5901419637078E-01 -9.8841402197358E-01
    81  8.0000000000000E-01  4.2113420125061E-01 -1.0053633933856E+00
    82  8.1000000000000E-01  3.8381975309660E-01 -1.0226148996520E+00
    83  8.2000000000000E-01  3.4713370787795E-01 -1.0401107133618E+00
    84  8.3000000000000E-01  3.1113385973472E-01 -1.0577419775448E+00
    85  8.4000000000000E-01  2.7587283646083E-01 -1.0753485072401E+00
    86  8.5000000000000E-01  2.4139805155997E-01 -1.0927195061419E+00
    87  8.6000000000000E-01  2.0775171301855E-01 -1.1095953095500E+00
    88  8.7000000000000E-01  1.7497088810228E-01 -1.1256701472421E+00
    89  8.8000000000000E-01  1.4308762264563E-01 -1.1405959020832E+00
    90  8.9000000000000E-01  1.1212911247934E-01 -1.1539868225080E+00
    91  9.0000000000000E-01  8.2117923844017E-02 -1.1654251297384E+00
    92  9.1000000000000E-01  5.3072258880602E-02 -1.1744674440393E+00
    93  9.2000000000000E-01  2.5006261583843E-02 -1.1806519387446E+00
    94  9.3000000000000E-01 -2.0696410350115E-03 -1.1835061164941E+00
    95  9.4000000000000E-01 -2.8148368394452E-02 -1.1825550893511E+00
    96  9.5000000000000E-01 -5.3225792694464E-02 -1.1773302334672E+00
    97  9.6000000000000E-01 -7.7300328854292E-02 -1.1673780799288E+00
    98  9.7000000000000E-01 -1.0037251499871E-01 -1.1522692965394E+00
    99  9.8000000000000E-01 -1.2244459062941E-01 -1.1316076107076E+00
   100  9.9000000000000E-01 -1.4352007968027E-01 -1.1050385214368E+00
   101  1.0000000000000E+00 -1.6360338560293E-01 -1.0722576487136E+00
   102  1.0100000000000E+00 -1.8269940546199E-01 -1.0330185714050E+00
   103  1.0200000000000E+00 -2.0081316973770E-01 -9.8714001008819E-01
   104  1.0300000000000E+00 -2.1794951414228E-01 -9.3451221900141E-01
   105  1.0400000000000E+00 -2.3411278925846E-01 -8.7510246141937E-01
   106  1.0500000000000E+00 -2.4930661321133E-01 -8.0895945511228E-01
   107  1.0600000000000E+00 -2.6353367189718E-01 -7.3621668895108E-01
   108  1.0700000000000E+00 -2.7679557052442E-01 -6.5709452796384E-01
   109  1.0800000000000E+00 -2.8909273938206E-01 -5.7190104204554E-01
   110  1.0900000000000E+00 -3.0042439585755E-01 -4.8103151270078E-01
   111  1.1000000000000E+00 -3.1078856378460E-01 -3.8496659250065E-01
   112  1.1100000000000E+00 -3.2018215023556E-01 -2.8426911291394E-01
   113  1.1200000000000E+00 -3.2860107888994E-01 -1.7957955759985E-01
   114  1.1300000000000E+00 -3.3604047813100E-01 -7.1610239732494E-02
   115  1.1400000000000E+00 -3.4249492106006E-01  3.8861756875616E-02
   116  1.1500000000000E+00 -3.4795871368791E-01  1.5100279248258E-01
   117  1.1600000000000E+00 -3.5242622668188E-01  2.6393194198026E-01
   118  1.1700000000000E+00 -3.5589226522873E-01  3.7673120298551E-01
   119  1.1800000000000E+00 -3.5835247083108E-01  4.8845650638994E-01
   120  1.1900000000000E+00 -3.5980374820427E-01  5.9814937946277E-01
   121  1.2000000000000E+00 -3.6024470988733E-01  7.0484909885830E-01
   122  1.2100000000000E+00 -3.5967613074353E-01  8.0760516059130E-01
   123  1.2200000000000E+00 -3.5810140420281E-01  9.0548988623739E-01
   124  1.2300000000000E+00 -3.5552699190453E-01  9.9761097960786E-01
   125  1.2400000000000E+00 -3.5196285833286E-01  1.0831238459249E+00
   126  1.2500000000000E+00 -3.4742288210616E-01  1.1612434862443E+00
   127  1.2600000000000E+00 -3.4192523578168E-01  1.2312557834739E+00
   128  1.2700000000000E+00 -3.3549272637118E-01  1.2925280028903E+00
   129  1.2800000000000E+00 -3.2815308922486E-01  1.3445183394320E+00
   130  1.2900000000000E+00 -3.1993922852216E-01  1.3867843560667E+00
   131  1.3000000000000E+00 -3.1088939830929E-01  1.4189901722430E+00
   132  1.3100000000000E+00 -3.0104731882597E-01  1.4409122783975E+00
   133  1.3200000000000E+00 -2.9046222375858E-01  1.4524438715501E+00
   134  1.3300000000000E+00 -2.7918883503717E-01  1.4535976280116E+00
   135  1.3400000000000E+00 -2.6728726283714E-01  1.4445068516674E+00
   136  1.3500000000000E+00 -2.5482282954157E-01  1.4254249599704E+00
   137  1.3600000000000E+00 -2.4186581754637E-01  1.3967232941785E+00
   138  1.3700000000000E+00 -2.2849114194254E-01  1.3588872654482E+00
   139  1.3800000000000E+00 -2.1477795025195E-01  1.3125108733114E+00
   140  1.3900000000000E+00 -2.0080915252479E-01  1.2582896578504E+00
   141  1.4000000000000E+00 -1.8667088619585E-01  1.1970121707995E+00
   142  1.4100000000000E+00 -1.7245192114332E-01  1.1295500738788E+00
   143  1.4200000000000E+00 -1.5824301136211E-01  1.0568469940884E+00
   144  1.4300000000000E+00 -1.4413620055262E-01  9.7990628545386E-01
   145  1.4400000000000E+00 -1.3022408971589E-01  8.9977786437623E-01
   146  1.4500000000000E+00 -1.1659907552206E-01  8.1754430095650E-01
   147  1.4600000000000E+00 -1.0335256877731E-01  7.3430636137121E-01
   148  1.4700000000000E+00 -9.0574202736174E-02  6.5116820613006E-01
   149  1.4800000000000E+00 -7.8351041290933E-02  5.6922245585804E-01
   150  1.4900000000000E+00 -6.6766797220138E-02  4.8953534090814E-01
   151  1.5000000000000E+00 -5.5901070421165E-02  4.1313211553093E-01
   152  1.5100000000000E+00 -4.5828616051504E-02  3.4098312747094E-01
   153  1.5200000000000E+00 -3.6618659603065E-02  2.7399010884444E-01
   154  1.5300000000000E+00 -2.8333873486194E-02  2.1294259613799E-01
   155  1.5400000000000E+00 -2.1030006501669E-02  1.5854246186788E-01
   156  1.5500000000000E+00 -1.4756140551561E-02  1.1144634206474E-01
   157  1.5600000000000E+00 -9.5537814872455E-03  7.2193156779901E-02
   158  1.5700000000000E+00 -5.4564586946092E-03  4.1200339766387E-02
   159  1.5800000000000E+00 -2.4900843824863E-03  1.8763391959633E-02
   160  1.5900000000000E+00 -6.6546484592935E-04  4.9979626323914E-03
   161  1.6000000000000E+00 -1.3812133913047E-05  1.0455039116871E-04
   162  1.6100000000000E+00  2.0297842359551E-06 -1.5098038282223E-05
   163  1.6200000000000E+00 -6.3008927301550E-08  4.7049276110113E-07
   164  1.63  0.  0.
   165  1.64  0.  0.
   166  1.65  0.  0.
   167  1.66  0.  0.
   168  1.67  0.  0.
   169  1.68  0.  0.
   170  1.69  0.  0.
   171  1.70  0.  0.
   172  1.71  0.  0.
   173  1.72  0.  0.
   174  1.73  0.  0.
   175  1.74  0.  0.
   176  1.75  0.  0.
   177  1.76  0.  0.
   178  1.77  0.  0.
   179  1.78  0.  0.
   180  1.79  0.  0.
   181  1.80  0.  0.
   182  1.81  0.  0.
   183  1.82  0.  0.
   184  1.83  0.  0.
   185  1.84  0.  0.
   186  1.85  0.  0.
   187  1.86  0.  0.
   188  1.87  0.  0.
   189  1.88  0.  0.
   190  1.89  0.  0.
   191  1.90  0.  0.
   192  1.91  0.  0.
   193  1.92  0.  0.
   194  1.93  0.  0.
   195  1.94  0.  0.
   196  1.95  0.  0.
   197  1.96  0.  0.
   198  1.97  0.  0.
   199  1.98  0.  0.
   200  1.99  0.  0.
   201  2.00  0.  0.
   202  2.01  0.  0.
   203  2.02  0.  0.
   204  2.03  0.  0.
   205  2.04  0.  0.
   206  2.05  0.  0.
   207  2.06  0.  0.
   208  2.07  0.  0.
   209  2.08  0.  0.
   210  2.09  0.  0.
   211  2.10  0.  0.
   212  2.11  0.  0.
   213  2.12  0.  0.
   214  2.13  0.  0.
   215  2.14  0.  0.
   216  2.15  0.  0.
   217  2.16  0.  0.
   218  2.17  0.  0.
   219  2.18  0.  0.
   220  2.19  0.  0.
   221  2.20  0.  0.
   222  2.21  0.  0.
   223  2.22  0.  0.
   224  2.23  0.  0.
   225  2.24  0.  0.
   226  2.25  0.  0.
   227  2.26  0.  0.
   228  2.27  0.  0.
   229  2.28  0.  0.
   230  2.29  0.  0.
   231  2.30  0.  0.
   232  2.31  0.  0.
   233  2.32  0.  0.
   234  2.33  0.  0.
   235  2.34  0.  0.
   236  2.35  0.  0.
   237  2.36  0.  0.
   238  2.37  0.  0.
   239  2.38  0.  0.
   240  2.39  0.  0.
   241  2.40  0.  0.
   242  2.41  0.  0.
   243  2.42  0.  0.
   244  2.43  0.  0.
   245  2.44  0.  0.
   246  2.45  0.  0.
   247  2.46  0.  0.
   248  2.47  0.  0.
   249  2.48  0.  0.
   250  2.49  0.  0.
   251  2.50  0.  0.
   252  2.51  0.  0.
   253  2.52  0.  0.
   254  2.53  0.  0.
   255  2.54  0.  0.
   256  2.55  0.  0.
   257  2.56  0.  0.
   258  2.57  0.  0.
   259  2.58  0.  0.
   260  2.59  0.  0.
   261  2.60  0.  0.
   262  2.61  0.  0.
   263  2.62  0.  0.
   264  2.63  0.  0.
   265  2.64  0.  0.
   266  2.65  0.  0.
   267  2.66  0.  0.
   268  2.67  0.  0.
   269  2.68  0.  0.
   270  2.69  0.  0.
   271  2.70  0.  0.
   272  2.71  0.  0.
   273  2.72  0.  0.
   274  2.73  0.  0.
   275  2.74  0.  0.
   276  2.75  0.  0.
   277  2.76  0.  0.
   278  2.77  0.  0.
   279  2.78  0.  0.
   280  2.79  0.  0.
   281  2.80  0.  0.
   282  2.81  0.  0.
   283  2.82  0.  0.
   284  2.83  0.  0.
   285  2.84  0.  0.
   286  2.85  0.  0.
   287  2.86  0.  0.
   288  2.87  0.  0.
   289  2.88  0.  0.
   290  2.89  0.  0.
   291  2.90  0.  0.
   292  2.91  0.  0.
   293  2.92  0.  0.
   294  2.93  0.  0.
   295  2.94  0.  0.
   296  2.95  0.  0.
   297  2.96  0.  0.
   298  2.97  0.  0.
   299  2.98  0.  0.
   300  2.99  0.  0.
   301  3.00  0.  0.
   302  3.01  0.  0.
   303  3.02  0.  0.
   304  3.03  0.  0.
   305  3.04  0.  0.
   306  3.05  0.  0.
   307  3.06  0.  0.
   308  3.07  0.  0.
   309  3.08  0.  0.
   310  3.09  0.  0.
   311  3.10  0.  0.
   312  3.11  0.  0.
   313  3.12  0.  0.
   314  3.13  0.  0.
   315  3.14  0.  0.
   316  3.15  0.  0.
   317  3.16  0.  0.
   318  3.17  0.  0.
   319  3.18  0.  0.
   320  3.19  0.  0.
   321  3.20  0.  0.
   322  3.21  0.  0.
   323  3.22  0.  0.
   324  3.23  0.  0.
   325  3.24  0.  0.
   326  3.25  0.  0.
   327  3.26  0.  0.
   328  3.27  0.  0.
   329  3.28  0.  0.
   330  3.29  0.  0.
   331  3.30  0.  0.
   332  3.31  0.  0.
   333  3.32  0.  0.
   334  3.33  0.  0.
   335  3.34  0.  0.
   336  3.35  0.  0.
   337  3.36  0.  0.
   338  3.37  0.  0.
   339  3.38  0.  0.
   340  3.39  0.  0.
   341  3.40  0.  0.
   342  3.41  0.  0.
   343  3.42  0.  0.
   344  3.43  0.  0.
   345  3.44  0.  0.
   346  3.45  0.  0.
   347  3.46  0.  0.
   348  3.47  0.  0.
   349  3.48  0.  0.
   350  3.49  0.  0.
   351  3.50  0.  0.
   352  3.51  0.  0.
   353  3.52  0.  0.
   354  3.53  0.  0.
   355  3.54  0.  0.
   356  3.55  0.  0.
   357  3.56  0.  0.
   358  3.57  0.  0.
   359  3.58  0.  0.
   360  3.59  0.  0.
   361  3.60  0.  0.
   362  3.61  0.  0.
   363  3.62  0.  0.
   364  3.63  0.  0.
   365  3.64  0.  0.
   366  3.65  0.  0.
   367  3.66  0.  0.
   368  3.67  0.  0.
   369  3.68  0.  0.
   370  3.69  0.  0.
   371  3.70  0.  0.
   372  3.71  0.  0.
   373  3.72  0.  0.
   374  3.73  0.  0.
   375  3.74  0.  0.
   376  3.75  0.  0.
   377  3.76  0.  0.
   378  3.77  0.  0.
   379  3.78  0.  0.
   380  3.79  0.  0.
   381  3.80  0.  0.
   382  3.81  0.  0.
   383  3.82  0.  0.
   384  3.83  0.  0.
   385  3.84  0.  0.
   386  3.85  0.  0.
   387  3.86  0.  0.
   388  3.87  0.  0.
   389  3.88  0.  0.
   390  3.89  0.  0.
   391  3.90  0.  0.
   392  3.91  0.  0.
   393  3.92  0.  0.
   394  3.93  0.  0.
   395  3.94  0.  0.
   396  3.95  0.  0.
   397  3.96  0.  0.
   398  3.97  0.  0.
   399  3.98  0.  0.
   400  3.99  0.  0.
   401  4.00  0.  0.
   402  4.01  0.  0.
   403  4.02  0.  0.
   404  4.03  0.  0.
   405  4.04  0.  0.
   406  4.05  0.  0.
   407  4.06  0.  0.
   408  4.07  0.  0.
   409  4.08  0.  0.
   410  4.09  0.  0.
   411  4.10  0.  0.
   412  4.11  0.  0.
   413  4.12  0.  0.
   414  4.13  0.  0.
   415  4.14  0.  0.
   416  4.15  0.  0.
   417  4.16  0.  0.
   418  4.17  0.  0.
   419  4.18  0.  0.
   420  4.19  0.  0.
   421  4.20  0.  0.
   422  4.21  0.  0.
   423  4.22  0.  0.
   424  4.23  0.  0.
   425  4.24  0.  0.
   426  4.25  0.  0.
   427  4.26  0.  0.
   428  4.27  0.  0.
   429  4.28  0.  0.
   430  4.29  0.  0.
   431  4.30  0.  0.
   432  4.31  0.  0.
   433  4.32  0.  0.
   434  4.33  0.  0.
   435  4.34  0.  0.
   436  4.35  0.  0.
   437  4.36  0.  0.
   438  4.37  0.  0.
   439  4.38  0.  0.
   440  4.39  0.  0.
   441  4.40  0.  0.
   442  4.41  0.  0.
   443  4.42  0.  0.
   444  4.43  0.  0.
   445  4.44  0.  0.
   446  4.45  0.  0.
   447  4.46  0.  0.
   448  4.47  0.  0.
   449  4.48  0.  0.
   450  4.49  0.  0.
   451  4.50  0.  0.
   452  4.51  0.  0.
   453  4.52  0.  0.
   454  4.53  0.  0.
   455  4.54  0.  0.
   456  4.55  0.  0.
   457  4.56  0.  0.
   458  4.57  0.  0.
   459  4.58  0.  0.
   460  4.59  0.  0.
   461  4.60  0.  0.
   462  4.61  0.  0.
   463  4.62  0.  0.
   464  4.63  0.  0.
   465  4.64  0.  0.
   466  4.65  0.  0.
   467  4.66  0.  0.
   468  4.67  0.  0.
   469  4.68  0.  0.
   470  4.69  0.  0.
   471  4.70  0.  0.
   472  4.71  0.  0.
   473  4.72  0.  0.
   474  4.73  0.  0.
   475  4.74  0.  0.
   476  4.75  0.  0.
   477  4.76  0.  0.
   478  4.77  0.  0.
   479  4.78  0.  0.
   480  4.79  0.  0.
   481  4.80  0.  0.
   482  4.81  0.  0.
   483  4.82  0.  0.
   484  4.83  0.  0.
   485  4.84  0.  0.
   486  4.85  0.  0.
   487  4.86  0.  0.
   488  4.87  0.  0.
   489  4.88  0.  0.
   490  4.89  0.  0.
   491  4.90  0.  0.
   492  4.91  0.  0.
   493  4.92  0.  0.
   494  4.93  0.  0.
   495  4.94  0.  0.
   496  4.95  0.  0.
   497  4.96  0.  0.
   498  4.97  0.  0.
   499  4.98  0.  0.
   500  4.99  0.  0.
   501  5.00  0.  0.
   502  5.01  0.  0.
   503  5.02  0.  0.
   504  5.03  0.  0.
   505  5.04  0.  0.
   506  5.05  0.  0.
   507  5.06  0.  0.
   508  5.07  0.  0.
   509  5.08  0.  0.
   510  5.09  0.  0.
   511  5.10  0.  0.
   512  5.11  0.  0.
   513  5.12  0.  0.
   514  5.13  0.  0.
   515  5.14  0.  0.
   516  5.15  0.  0.
   517  5.16  0.  0.
   518  5.17  0.  0.
   519  5.18  0.  0.
   520  5.19  0.  0.
   521  5.20  0.  0.
   522  5.21  0.  0.
   523  5.22  0.  0.
   524  5.23  0.  0.
   525  5.24  0.  0.
   526  5.25  0.  0.
   527  5.26  0.  0.
   528  5.27  0.  0.
   529  5.28  0.  0.
   530  5.29  0.  0.
   531  5.30  0.  0.
   532  5.31  0.  0.
   533  5.32  0.  0.
   534  5.33  0.  0.
   535  5.34  0.  0.
   536  5.35  0.  0.
   537  5.36  0.  0.
   538  5.37  0.  0.
   539  5.38  0.  0.
   540  5.39  0.  0.
   541  5.40  0.  0.
   542  5.41  0.  0.
   543  5.42  0.  0.
   544  5.43  0.  0.
   545  5.44  0.  0.
   546  5.45  0.  0.
   547  5.46  0.  0.
   548  5.47  0.  0.
   549  5.48  0.  0.
   550  5.49  0.  0.
   551  5.50  0.  0.
   552  5.51  0.  0.
   553  5.52  0.  0.
   554  5.53  0.  0.
   555  5.54  0.  0.
   556  5.55  0.  0.
   557  5.56  0.  0.
   558  5.57  0.  0.
   559  5.58  0.  0.
   560  5.59  0.  0.
   561  5.60  0.  0.
   562  5.61  0.  0.
   563  5.62  0.  0.
   564  5.63  0.  0.
   565  5.64  0.  0.
   566  5.65  0.  0.
   567  5.66  0.  0.
   568  5.67  0.  0.
   569  5.68  0.  0.
   570  5.69  0.  0.
   571  5.70  0.  0.
   572  5.71  0.  0.
   573  5.72  0.  0.
   574  5.73  0.  0.
   575  5.74  0.  0.
   576  5.75  0.  0.
   577  5.76  0.  0.
   578  5.77  0.  0.
   579  5.78  0.  0.
   580  5.79  0.  0.
   581  5.80  0.  0.
   582  5.81  0.  0.
   583  5.82  0.  0.
   584  5.83  0.  0.
   585  5.84  0.  0.
   586  5.85  0.  0.
   587  5.86  0.  0.
   588  5.87  0.  0.
   589  5.88  0.  0.
   590  5.89  0.  0.
   591  5.90  0.  0.
   592  5.91  0.  0.
   593  5.92  0.  0.
   594  5.93  0.  0.
   595  5.94  0.  0.
   596  5.95  0.  0.
   597  5.96  0.  0.
   598  5.97  0.  0.
   599  5.98  0.  0.
   600  5.99  0.  0.
   1                         8.1828909999303E+00  1.0010972967790E+00 -2.8269243466352E-02
     1  0.0000000000000E+00 -6.1194891515237E-09  1.0195589617793E-08 -1.8647002546224E-08
     2  1.0000000000000E-02  1.2363082320055E-03  9.8400673854493E-05 -5.6016493708363E-04
     3  2.0000000000000E-02  4.9466672748364E-03  3.8553549162693E-04 -2.2191382823423E-03
     4  3.0000000000000E-02  1.1135231263403E-02  8.3745993007490E-04 -4.9128719958046E-03
     5  4.0000000000000E-02  1.9808431075462E-02  1.4151172777933E-03 -8.5363294458192E-03
     6  5.0000000000000E-02  3.0974248081852E-02  2.0655935441179E-03 -1.2946011966491E-02
     7  6.0000000000000E-02  4.4641222658020E-02  2.7238321423362E-03 -1.7963419659468E-02
     8  7.0000000000000E-02  6.0817222068697E-02  3.3147672572862E-03 -2.3379371939238E-02
     9  8.0000000000000E-02  7.9507998457073E-02  3.7558246118348E-03 -2.8959094674104E-02
    10  9.0000000000000E-02  1.0071557313018E-01  3.9597292661974E-03 -3.4447964037923E-02
    11  1.0000000000000E-01  1.2443648801533E-01  3.8375523175752E-03 -3.9577782701438E-02
    12  1.1000000000000E-01  1.5065996896509E-01  3.3019220891919E-03 -4.4073452060371E-02
    13  1.2000000000000E-01  1.7936604842592E-01  2.2703207481161E-03 -4.7659895070308E-02
    14  1.3000000000000E-01  2.1052369679339E-01  6.6838437991462E-04 -5.0069078126165E-02
    15  1.4000000000000E-01  2.4408901250957E-01 -1.5668765532933E-03 -5.1046977425031E-02
    16  1.5000000000000E-01  2.8000352059594E-01 -4.4840187022283E-03 -5.0360335455942E-02
    17  1.6000000000000E-01  3.1819262785603E-01 -8.1143490143445E-03 -4.7803056672941E-02
    18  1.7000000000000E-01  3.5856428045158E-01 -1.2469424978543E-02 -4.3202097976570E-02
    19  1.8000000000000E-01  4.0100786599763E-01 -1.7538941198653E-02 -3.6422719230641E-02
    20  1.9000000000000E-01  4.4539339780485E-01 -2.3289063865613E-02 -2.7372971491644E-02
    21  2.0000000000000E-01  4.9157101350612E-01 -2.9661265551719E-02 -1.6007315693947E-02
    22  2.1000000000000E-01  5.3937081414702E-01 -3.6571702337598E-02 -2.3292819145727E-03
    23  2.2000000000000E-01  5.8860306301684E-01 -4.3911163815330E-02  1.3606901298013E-02
    24  2.3000000000000E-01  6.3905875618498E-01 -5.1545614222223E-02  3.1695757092001E-02
    25  2.4000000000000E-01  6.9051056903468E-01 -5.9317330103501E-02  5.1781117404768E-02
    26  2.5000000000000E-01  7.4271417520863E-01 -6.7046626745667E-02  7.3657791533348E-02
    27  2.6000000000000E-01  7.9540992645943E-01 -7.4534152440769E-02  9.7074327588256E-02
    28  2.7000000000000E-01  8.4832487409810E-01 -8.1563716715274E-02  1.2173682527104E-01
    29  2.8000000000000E-01  9.0117510521649E-01 -8.7905606261235E-02  1.4731373610972E-01
    30  2.9000000000000E-01  9.5366835978477E-01 -9.3320330710427E-02  1.7344156608587E-01
    31  3.0000000000000E-01  1.0055068882429E+00 -9.7562729848504E-02  1.9973137593608E-01
    32  3.1000000000000E-01  1.0563905034556E+00 -1.0038636461099E-01  2.2577595671114E-01
    33  3.2000000000000E-01  1.1060197760122E+00 -1.0154810644741E-01  2.5115754280624E-01
    34  3.3000000000000E-01  1.1540993179309E+00 -1.0081283356669E-01  2.7545591195684E-01
    35  3.4000000000000E-01  1.2003410969729E+00 -9.7958138336428E-02  2.9825671191154E-01
    36  3.5000000000000E-01  1.2444677220468E+00 -9.2778947814151E-02  3.1915984686121E-01
    37  3.6000000000000E-01  1.2862156396402E+00 -8.5091959116894E-02  3.3778775338633E-01
    38  3.7000000000000E-01  1.3253381818863E+00 -7.4739793120695E-02  3.5379339577597E-01
    39  3.8000000000000E-01  1.3616084087476E+00 -6.1594773817143E-02  3.6686781410020E-01
    40  3.9000000000000E-01  1.3948216898619E+00 -4.5562246491814E-02  3.7674706534561E-01
    41  4.0000000000000E-01  1.4247979758032E+00 -2.6583355638934E-02  3.8321840813987E-01
    42  4.1000000000000E-01  1.4513837137814E+00 -4.6372130574341E-03  3.8612559492670E-01
    43  4.2000000000000E-01  1.4744533690583E+00  2.0257602282540E-02  3.8537315166798E-01
    44  4.3000000000000E-01  1.4939105204724E+00  4.8042258459523E-02  3.8092954394808E-01
    45  4.4000000000000E-01  1.5096885063136E+00  7.8617631035263E-02  3.7282914939310E-01
    46  4.5000000000000E-01  1.5217506052215E+00  1.1184502718995E-01  3.6117297918915E-01
    47  4.6000000000000E-01  1.5300897456343E+00  1.4754767577338E-01  3.4612811576144E-01
    48  4.7000000000000E-01  1.5347277464239E+00  1.8551296988787E-01  3.2792585888425E-01
    49  4.8000000000000E-01  1.5357141005263E+00  2.2549543300325E-01  3.0685859814530E-01
    50  4.9000000000000E-01  1.5331243224441E+00  2.6722036428914E-01  2.8327545527843E-01
    51  5.0000000000000E-01  1.5270578892706E+00  3.1038810415026E-01  2.5757676489993E-01
    52  5.1000000000000E-01  1.5176358131807E+00  3.5467884717516E-01  2.3020748613561E-01
    53  5.2000000000000E-01  1.5049978909921E+00  3.9975791715018E-01  2.0164966001972E-01
    54  5.3000000000000E-01  1.4892996832413E+00  4.4528140772466E-01  1.7241404792720E-01
    55  5.4000000000000E-01  1.4707092811168E+00  4.9090208298649E-01  1.4303110424036E-01
    56  5.5000000000000E-01  1.4494039243968E+00  5.3627542483889E-01  1.1404145157113E-01
    57  5.6000000000000E-01  1.4255665371505E+00  5.8106570884020E-01  8.5986038830424E-02
    58  5.7000000000000E-01  1.3993822502935E+00  6.2495198722146E-01  5.9396170987244E-02
    59  5.8000000000000E-01  1.3710349810614E+00  6.6763385723085E-01  3.4783604284511E-02
    60  5.9000000000000E-01  1.3407041390652E+00  7.0883689482265E-01  1.2630901838860E-02
    61  6.0000000000000E-01  1.3085615267787E+00  7.4831763801825E-01 -6.6177581154046E-03
    62  6.1000000000000E-01  1.2747684991227E+00  7.8586801097474E-01 -2.2565135567714E-02
    63  6.2000000000000E-01  1.2394734422788E+00  8.2131908881393E-01 -3.4868668109478E-02
    64  6.3000000000000E-01  1.2028096260661E+00  8.5454411445235E-01 -4.3247234606297E-02
    65  6.4000000000000E-01  1.1648934772400E+00  8.8546069185105E-01 -4.7486798570182E-02
    66  6.5000000000000E-01  1.1258233130465E+00  9.1403209504626E-01 -4.7444806843603E-02
    67  6.6000000000000E-01  1.0856785654248E+00  9.4026764876610E-01 -4.3053242104133E-02
    68  6.7000000000000E-01  1.0445195165701E+00  9.6422215408960E-01 -3.4320252868136E-02
    69  6.8000000000000E-01  1.0023875563120E+00  9.8599435113463E-01 -2.1330311658766E-02
    70  6.9000000000000E-01  9.5930596113882E-01  1.0057244298242E+00 -4.2428802894069E-03
    71  7.0000000000000E-01  9.1528118390074E-01  1.0235906190137E+00  1.6710409726812E-02
    72  7.1000000000000E-01  8.7030463246589E-01  1.0398049032862E+00  4.1230024362895E-02
    73  7.2000000000000E-01  8.2435490509904E-01  1.0546079351722E+00  6.8954175668618E-02
    74  7.3000000000000E-01  7.7740044028860E-01  1.0682632280401E+00  9.9465757586197E-02
    75  7.4000000000000E-01  7.2940252937262E-01  1.0810507310912E+00  1.3230044830306E-01
    76  7.5000000000000E-01  6.8031863180098E-01  1.0932599024225E+00  1.6695583396022E-01
    77  7.6000000000000E-01  6.3010592540154E-01  1.1051824086919E+00  2.0290138655161E-01
    78  7.7000000000000E-01  5.7872501775588E-01  1.1171045902449E+00  2.3958910984315E-01
    79  7.8000000000000E-01  5.2614373987674E-01  1.1292998383991E+00  2.7646465150777E-01
    80  7.9000000000000E-01  4.7234093993648E-01  1.1420210367359E+00  3.1297866776477E-01
    81  8.0000000000000E-01  4.1731019291196E-01  1.1554932205650E+00  3.4859821890125E-01
    82  8.1000000000000E-01  3.6106334175322E-01  1.1699066081091E+00  3.8281797034898E-01
    83  8.2000000000000E-01  3.0363378708224E-01  1.1854101533605E+00  4.1517097460876E-01
    84  8.3000000000000E-01  2.4507944548639E-01  1.2021057639985E+00  4.4523881430716E-01
    85  8.4000000000000E-01  1.8548530115945E-01  1.2200433182983E+00  4.7266089598641E-01
    86  8.5000000000000E-01  1.2496548189794E-01  1.2392166027307E+00  4.9714269775545E-01
    87  8.6000000000000E-01  6.3664798190869E-02  1.2595602771330E+00  5.1846279144421E-01
    88  8.7000000000000E-01  1.7596932229507E-03  1.2809479571520E+00  5.3647848113821E-01
    89  8.8000000000000E-01 -6.0541438104855E-02  1.3031914844065E+00  5.5112992454409E-01
    90  8.9000000000000E-01 -1.2299859172355E-01  1.3260414338138E+00  5.6244263113898E-01
    91  9.0000000000000E-01 -1.8534117696088E-01  1.3491888851332E+00  5.7052826098187E-01
    92  9.1000000000000E-01 -2.4726972482132E-01  1.3722684624044E+00  5.7558367987954E-01
    93  9.2000000000000E-01 -3.0845827455032E-01  1.3948626210115E+00  5.7788825971493E-01
    94  9.3000000000000E-01 -3.6855741778595E-01  1.4165071380329E+00  5.7779944654418E-01
    95  9.4000000000000E-01 -4.2719796644730E-01  1.4366977377901E+00  5.7574665291523E-01
    96  9.5000000000000E-01 -4.8399519771795E-01  1.4548977615321E+00  5.7222356410519E-01
    97  9.6000000000000E-01 -5.3855361730177E-01  1.4705467684361E+00  5.6777897998368E-01