Ag    ONCVPSP-4.0.1  r_core=   1.40440   1.45573   1.60195
     47.0000     19.0000      250217    zatom,zion,pspd
     8       2   2     4   600     0    pspcod,pspxc,lmax,lloc,mmax,r2well
  5.99000000  7.00000000  0.00000000    rchrg fchrg qchrg
     2     3     2     0    nproj
     3     1           extension_switch
     4     3     0    nprojso
   0                         9.5480237044045E+00 -3.5291163733124E-01
     1  0.0000000000000E+00  1.3575662816123E-10  1.3495897122073E-08
     2  1.0000000000000E-02  7.8097698236554E-02  4.7416323642072E-02
     3  2.0000000000000E-02  1.5601700976976E-01  9.4809847480708E-02
     4  3.0000000000000E-02  2.3357997746214E-01  1.4215233660349E-01
     5  4.0000000000000E-02  3.1060950372602E-01  1.8940483894760E-01
     6  5.0000000000000E-02  3.8692978130735E-01  2.3651270582407E-01
     7  6.0000000000000E-02  4.6236672518072E-01  2.8340105744598E-01
     8  7.0000000000000E-02  5.3674840576177E-01  3.2997082550558E-01
     9  8.0000000000000E-02  6.0990548350766E-01  3.7609549134953E-01
    10  9.0000000000000E-02  6.8167164481245E-01  4.2161862200224E-01
    11  1.0000000000000E-01  7.5188403891573E-01  4.6635228754873E-01
    12  1.1000000000000E-01  8.2038371533442E-01  5.1007642262681E-01
    13  1.2000000000000E-01  8.8701606110368E-01  5.5253917245653E-01
    14  1.3000000000000E-01  9.5163123687878E-01  5.9345824045274E-01
    15  1.4000000000000E-01  1.0140846107104E+00  6.3252323054686E-01
    16  1.5000000000000E-01  1.0742371880675E+00  6.6939895342334E-01
    17  1.6000000000000E-01  1.1319560364501E+00  7.0372964249413E-01
    18  1.7000000000000E-01  1.1871147027124E+00  7.3514400311987E-01
    19  1.8000000000000E-01  1.2395936210164E+00  7.6326099784330E-01
    20  1.9000000000000E-01  1.2892805091512E+00  7.8769625170786E-01
    21  2.0000000000000E-01  1.3360707508030E+00  8.0806894551705E-01
    22  2.1000000000000E-01  1.3798677612353E+00  8.2400905153107E-01
    23  2.2000000000000E-01  1.4205833337517E+00  8.3516475590908E-01
    24  2.3000000000000E-01  1.4581379642620E+00  8.4120990543701E-01
    25  2.4000000000000E-01  1.4924611512627E+00  8.4185131290732E-01
    26  2.5000000000000E-01  1.5234916685725E+00  8.3683575602902E-01
    27  2.6000000000000E-01  1.5511778082356E+00  8.2595650896336E-01
    28  2.7000000000000E-01  1.5754775911209E+00  8.0905925342947E-01
    29  2.8000000000000E-01  1.5963589428973E+00  7.8604722766152E-01
    30  2.9000000000000E-01  1.6137998332638E+00  7.5688548609544E-01
    31  3.0000000000000E-01  1.6277883765371E+00  7.2160416022155E-01
    32  3.1000000000000E-01  1.6383228919703E+00  6.8030063119195E-01
    33  3.2000000000000E-01  1.6454119224631E+00  6.3314054709388E-01
    34  3.3000000000000E-01  1.6490742106452E+00  5.8035764181421E-01
    35  3.4000000000000E-01  1.6493386316534E+00  5.2225233761043E-01
    36  3.5000000000000E-01  1.6462440822732E+00  4.5918913932227E-01
    37  3.6000000000000E-01  1.6398393264810E+00  3.9159285404245E-01
    38  3.7000000000000E-01  1.6301827977867E+00  3.1994369544456E-01
    39  3.8000000000000E-01  1.6173423591419E+00  2.4477135627847E-01
    40  3.9000000000000E-01  1.6013950215343E+00  1.6664815524522E-01
    41  4.0000000000000E-01  1.5824266227322E+00  8.6181385042831E-02
    42  4.1000000000000E-01  1.5605314679669E+00  4.0050063611291E-03
    43  4.2000000000000E-01  1.5358119346420E+00 -7.9229152417245E-02
    44  4.3000000000000E-01  1.5083780434346E+00 -1.6286051843535E-01
    45  4.4000000000000E-01  1.4783469983920E+00 -2.4622904115171E-01
    46  4.5000000000000E-01  1.4458426988396E+00 -3.2868441922714E-01
    47  4.6000000000000E-01  1.4109952260860E+00 -4.0959510387956E-01
    48  4.7000000000000E-01  1.3739403080445E+00 -4.8835689892595E-01
    49  4.8000000000000E-01  1.3348187649858E+00 -5.6440098553248E-01
    50  4.9000000000000E-01  1.2937759396906E+00 -6.3720121131026E-01
    51  5.0000000000000E-01  1.2509611152888E+00 -7.0628049859612E-01
    52  5.1000000000000E-01  1.2065269240510E+00 -7.7121624524529E-01
    53  5.2000000000000E-01  1.1606287503427E+00 -8.3164461265116E-01
    54  5.3000000000000E-01  1.1134241308636E+00 -8.8726361955195E-01
    55  5.4000000000000E-01  1.0650721551789E+00 -9.3783498597582E-01
    56  5.5000000000000E-01  1.0157328694061E+00 -9.8318469886595E-01
    57  5.6000000000000E-01  9.6556668575818E-01 -1.0232022989220E+00
    58  5.7000000000000E-01  9.1473380046604E-01 -1.0578389163850E+00
    59  5.8000000000000E-01  8.6339362240971E-01 -1.0871041112535E+00
    60  5.9000000000000E-01  8.1170421458988E-01 -1.1110616001352E+00
    61  6.0000000000000E-01  7.5982175037040E-01 -1.1298239770018E+00
    62  6.1000000000000E-01  7.0789998622251E-01 -1.1435465579614E+00
    63  6.2000000000000E-01  6.5608975250865E-01 -1.1524205002545E+00
    64  6.3000000000000E-01  6.0453846366041E-01 -1.1566653625547E+00
    65  6.4000000000000E-01  5.5338964893560E-01 -1.1565212868960E+00
    66  6.5000000000000E-01  5.0278250478599E-01 -1.1522409918296E+00
    67  6.6000000000000E-01  4.5285146973267E-01 -1.1440817714855E+00
    68  6.7000000000000E-01  4.0372582253143E-01 -1.1322976959228E+00
    69  6.8000000000000E-01  3.5552930431745E-01 -1.1171322044273E+00
    70  6.9000000000000E-01  3.0837976534655E-01 -1.0988112753058E+00
    71  7.0000000000000E-01  2.6238883689973E-01 -1.0775373433428E+00
    72  7.1000000000000E-01  2.1766162888600E-01 -1.0534841196795E+00
    73  7.2000000000000E-01  1.7429645366584E-01 -1.0267924487468E+00
    74  7.3000000000000E-01  1.3238457661911E-01 -9.9756731344573E-01
    75  7.4000000000000E-01  9.2009993995972E-02 -9.6587607350809E-01
    76  7.5000000000000E-01  5.3249238612571E-02 -9.3174799342969E-01
    77  7.6000000000000E-01  1.6171213981312E-02 -8.9517508615917E-01
    78  7.7000000000000E-01 -1.9162942505454E-02 -8.5611426750680E-01
    79  7.8000000000000E-01 -5.2699966694120E-02 -8.1449078467981E-01
    80  7.9000000000000E-01 -8.4394544429292E-02 -7.7020285116753E-01
    81  8.0000000000000E-01 -1.1420935728724E-01 -7.2312739007909E-01
    82  8.1000000000000E-01 -1.4211509662774E-01 -6.7312675967399E-01
    83  8.2000000000000E-01 -1.6809044534003E-01 -6.2005630887447E-01
    84  8.3000000000000E-01 -1.9212202671345E-01 -5.6377258761878E-01
    85  8.4000000000000E-01 -2.1420431994458E-01 -5.0414201756980E-01
    86  8.5000000000000E-01 -2.3433954190220E-01 -4.4104981340567E-01
    87  8.6000000000000E-01 -2.5253749491139E-01 -3.7440893410322E-01
    88  8.7000000000000E-01 -2.6881538048811E-01 -3.0416883758203E-01
    89  8.8000000000000E-01 -2.8319757915682E-01 -2.3032381101987E-01
    90  8.9000000000000E-01 -2.9571539671382E-01 -1.5292065318743E-01
    91  9.0000000000000E-01 -3.0640677755753E-01 -7.2065494268751E-02
    92  9.1000000000000E-01 -3.1531598598925E-01  1.2070447271779E-02
    93  9.2000000000000E-01 -3.2249325669294E-01  9.9246352378768E-02
    94  9.3000000000000E-01 -3.2799441592315E-01  1.8914869200001E-01
    95  9.4000000000000E-01 -3.3188047526370E-01  2.8138965169907E-01
    96  9.5000000000000E-01 -3.3421720015859E-01  3.7550719070049E-01
    97  9.6000000000000E-01 -3.3507465575581E-01  4.7096680223451E-01
    98  9.7000000000000E-01 -3.3452673293680E-01  5.6716500631891E-01
    99  9.8000000000000E-01 -3.3265065772312E-01  6.6343456894050E-01
   100  9.9000000000000E-01 -3.2952648754945E-01  7.5905140375467E-01
   101  1.0000000000000E+00 -3.2523659816234E-01  8.5324307471218E-01
   102  1.0100000000000E+00 -3.1986516513961E-01  9.4519878124484E-01
   103  1.0200000000000E+00 -3.1349764421989E-01  1.0340806725998E+00
   104  1.0300000000000E+00 -3.0622025477920E-01  1.1190363054002E+00
   105  1.0400000000000E+00 -2.9811947088664E-01  1.1992120292352E+00
   106  1.0500000000000E+00 -2.8928152440944E-01  1.2737670597194E+00
   107  1.0600000000000E+00 -2.7979192461494E-01  1.3418879776477E+00
   108  1.0700000000000E+00 -2.6973499863146E-01  1.4028033770690E+00
   109  1.0800000000000E+00 -2.5919345697913E-01  1.4557983747637E+00
   110  1.0900000000000E+00 -2.4824798816575E-01  1.5002286890258E+00
   111  1.1000000000000E+00 -2.3697688606212E-01  1.5355339970218E+00
   112  1.1100000000000E+00 -2.2545571342854E-01  1.5612502873591E+00
   113  1.1200000000000E+00 -2.1375700456147E-01  1.5770209378614E+00
   114  1.1300000000000E+00 -2.0195000957324E-01  1.5826062676249E+00
   115  1.1400000000000E+00 -1.9010048231075E-01  1.5778913370565E+00
   116  1.1500000000000E+00 -1.7827051337210E-01  1.5628917991752E+00
   117  1.1600000000000E+00 -1.6651840909586E-01  1.5377576396842E+00
   118  1.1700000000000E+00 -1.5489861679041E-01  1.5027746812575E+00
   119  1.1800000000000E+00 -1.4346169584285E-01  1.4583637688491E+00
   120  1.1900000000000E+00 -1.3225433371732E-01  1.4050775962203E+00
   121  1.2000000000000E+00 -1.2131940521961E-01  1.3435951792381E+00
   122  1.2100000000000E+00 -1.1069607279229E-01  1.2747140270299E+00
   123  1.2200000000000E+00 -1.0041992501059E-01  1.1993401077403E+00
   124  1.2300000000000E+00 -9.0523149892075E-02  1.1184757498784E+00
   125  1.2400000000000E+00 -8.1034739120614E-02  1.0332056624019E+00
   126  1.2500000000000E+00 -7.1980718822394E-02  9.4468129609972E-01
   127  1.2600000000000E+00 -6.3384402134981E-02  8.5410380418641E-01
   128  1.2700000000000E+00 -5.5266658479440E-02  7.6270589110217E-01
   129  1.2800000000000E+00 -4.7646194191524E-02  6.7173286434253E-01
   130  1.2900000000000E+00 -4.0539838994928E-02  5.8242322419162E-01
   131  1.3000000000000E+00 -3.3962832710279E-02  4.9598914021056E-01
   132  1.3100000000000E+00 -2.7929105287591E-02  4.1359720597765E-01
   133  1.3200000000000E+00 -2.2451559092596E-02  3.3634944933326E-01
   134  1.3300000000000E+00 -1.7542278784000E-02  2.6526672273290E-01
   135  1.3400000000000E+00 -1.3213854238627E-02  2.0124281792475E-01
   136  1.3500000000000E+00 -9.4805815855660E-03  1.4499340435184E-01
   137  1.3600000000000E+00 -6.3511757608377E-03  9.7251303695814E-02
   138  1.3700000000000E+00 -3.8346485869595E-03  5.8615550726575E-02
   139  1.3800000000000E+00 -1.9409074304675E-03  2.9530392659801E-02
   140  1.3900000000000E+00 -6.7795717600445E-04  1.0238065028127E-02
   141  1.4000000000000E+00 -7.4278949876623E-05  1.1096972490091E-03
   142  1.4100000000000E+00  8.0563650053937E-06 -1.1958290387315E-04
   143  1.4200000000000E+00 -1.4128616130395E-06  2.1079998202003E-05
   144  1.43  0.  0.
   145  1.44  0.  0.
   146  1.45  0.  0.
   147  1.46  0.  0.
   148  1.47  0.  0.
   149  1.48  0.  0.
   150  1.49  0.  0.
   151  1.50  0.  0.
   152  1.51  0.  0.
   153  1.52  0.  0.
   154  1.53  0.  0.
   155  1.54  0.  0.
   156  1.55  0.  0.
   157  1.56  0.  0.
   158  1.57  0.  0.
   159  1.58  0.  0.
   160  1.59  0.  0.
   161  1.60  0.  0.
   162  1.61  0.  0.
   163  1.62  0.  0.
   164  1.63  0.  0.
   165  1.64  0.  0.
   166  1.65  0.  0.
   167  1.66  0.  0.
   168  1.67  0.  0.
   169  1.68  0.  0.
   170  1.69  0.  0.
   171  1.70  0.  0.
   172  1.71  0.  0.
   173  1.72  0.  0.
   174  1.73  0.  0.
   175  1.74  0.  0.
   176  1.75  0.  0.
   177  1.76  0.  0.
   178  1.77  0.  0.
   179  1.78  0.  0.
   180  1.79  0.  0.
   181  1.80  0.  0.
   182  1.81  0.  0.
   183  1.82  0.  0.
   184  1.83  0.  0.
   185  1.84  0.  0.
   186  1.85  0.  0.
   187  1.86  0.  0.
   188  1.87  0.  0.
   189  1.88  0.  0.
   190  1.89  0.  0.
   191  1.90  0.  0.
   192  1.91  0.  0.
   193  1.92  0.  0.
   194  1.93  0.  0.
   195  1.94  0.  0.
   196  1.95  0.  0.
   197  1.96  0.  0.
   198  1.97  0.  0.
   199  1.98  0.  0.
   200  1.99  0.  0.
   201  2.00  0.  0.
   202  2.01  0.  0.
   203  2.02  0.  0.
   204  2.03  0.  0.
   205  2.04  0.  0.
   206  2.05  0.  0.
   207  2.06  0.  0.
   208  2.07  0.  0.
   209  2.08  0.  0.
   210  2.09  0.  0.
   211  2.10  0.  0.
   212  2.11  0.  0.
   213  2.12  0.  0.
   214  2.13  0.  0.
   215  2.14  0.  0.
   216  2.15  0.  0.
   217  2.16  0.  0.
   218  2.17  0.  0.
   219  2.18  0.  0.
   220  2.19  0.  0.
   221  2.20  0.  0.
   222  2.21  0.  0.
   223  2.22  0.  0.
   224  2.23  0.  0.
   225  2.24  0.  0.
   226  2.25  0.  0.
   227  2.26  0.  0.
   228  2.27  0.  0.
   229  2.28  0.  0.
   230  2.29  0.  0.
   231  2.30  0.  0.
   232  2.31  0.  0.
   233  2.32  0.  0.
   234  2.33  0.  0.
   235  2.34  0.  0.
   236  2.35  0.  0.
   237  2.36  0.  0.
   238  2.37  0.  0.
   239  2.38  0.  0.
   240  2.39  0.  0.
   241  2.40  0.  0.
   242  2.41  0.  0.
   243  2.42  0.  0.
   244  2.43  0.  0.
   245  2.44  0.  0.
   246  2.45  0.  0.
   247  2.46  0.  0.
   248  2.47  0.  0.
   249  2.48  0.  0.
   250  2.49  0.  0.
   251  2.50  0.  0.
   252  2.51  0.  0.
   253  2.52  0.  0.
   254  2.53  0.  0.
   255  2.54  0.  0.
   256  2.55  0.  0.
   257  2.56  0.  0.
   258  2.57  0.  0.
   259  2.58  0.  0.
   260  2.59  0.  0.
   261  2.60  0.  0.
   262  2.61  0.  0.
   263  2.62  0.  0.
   264  2.63  0.  0.
   265  2.64  0.  0.
   266  2.65  0.  0.
   267  2.66  0.  0.
   268  2.67  0.  0.
   269  2.68  0.  0.
   270  2.69  0.  0.
   271  2.70  0.  0.
   272  2.71  0.  0.
   273  2.72  0.  0.
   274  2.73  0.  0.
   275  2.74  0.  0.
   276  2.75  0.  0.
   277  2.76  0.  0.
   278  2.77  0.  0.
   279  2.78  0.  0.
   280  2.79  0.  0.
   281  2.80  0.  0.
   282  2.81  0.  0.
   283  2.82  0.  0.
   284  2.83  0.  0.
   285  2.84  0.  0.
   286  2.85  0.  0.
   287  2.86  0.  0.
   288  2.87  0.  0.
   289  2.88  0.  0.
   290  2.89  0.  0.
   291  2.90  0.  0.
   292  2.91  0.  0.
   293  2.92  0.  0.
   294  2.93  0.  0.
   295  2.94  0.  0.
   296  2.95  0.  0.
   297  2.96  0.  0.
   298  2.97  0.  0.
   299  2.98  0.  0.
   300  2.99  0.  0.
   301  3.00  0.  0.
   302  3.01  0.  0.
   303  3.02  0.  0.
   304  3.03  0.  0.
   305  3.04  0.  0.
   306  3.05  0.  0.
   307  3.06  0.  0.
   308  3.07  0.  0.
   309  3.08  0.  0.
   310  3.09  0.  0.
   311  3.10  0.  0.
   312  3.11  0.  0.
   313  3.12  0.  0.
   314  3.13  0.  0.
   315  3.14  0.  0.
   316  3.15  0.  0.
   317  3.16  0.  0.
   318  3.17  0.  0.
   319  3.18  0.  0.
   320  3.19  0.  0.
   321  3.20  0.  0.
   322  3.21  0.  0.
   323  3.22  0.  0.
   324  3.23  0.  0.
   325  3.24  0.  0.
   326  3.25  0.  0.
   327  3.26  0.  0.
   328  3.27  0.  0.
   329  3.28  0.  0.
   330  3.29  0.  0.
   331  3.30  0.  0.
   332  3.31  0.  0.
   333  3.32  0.  0.
   334  3.33  0.  0.
   335  3.34  0.  0.
   336  3.35  0.  0.
   337  3.36  0.  0.
   338  3.37  0.  0.
   339  3.38  0.  0.
   340  3.39  0.  0.
   341  3.40  0.  0.
   342  3.41  0.  0.
   343  3.42  0.  0.
   344  3.43  0.  0.
   345  3.44  0.  0.
   346  3.45  0.  0.
   347  3.46  0.  0.
   348  3.47  0.  0.
   349  3.48  0.  0.
   350  3.49  0.  0.
   351  3.50  0.  0.
   352  3.51  0.  0.
   353  3.52  0.  0.
   354  3.53  0.  0.
   355  3.54  0.  0.
   356  3.55  0.  0.
   357  3.56  0.  0.
   358  3.57  0.  0.
   359  3.58  0.  0.
   360  3.59  0.  0.
   361  3.60  0.  0.
   362  3.61  0.  0.
   363  3.62  0.  0.
   364  3.63  0.  0.
   365  3.64  0.  0.
   366  3.65  0.  0.
   367  3.66  0.  0.
   368  3.67  0.  0.
   369  3.68  0.  0.
   370  3.69  0.  0.
   371  3.70  0.  0.
   372  3.71  0.  0.
   373  3.72  0.  0.
   374  3.73  0.  0.
   375  3.74  0.  0.
   376  3.75  0.  0.
   377  3.76  0.  0.
   378  3.77  0.  0.
   379  3.78  0.  0.
   380  3.79  0.  0.
   381  3.80  0.  0.
   382  3.81  0.  0.
   383  3.82  0.  0.
   384  3.83  0.  0.
   385  3.84  0.  0.
   386  3.85  0.  0.
   387  3.86  0.  0.
   388  3.87  0.  0.
   389  3.88  0.  0.
   390  3.89  0.  0.
   391  3.90  0.  0.
   392  3.91  0.  0.
   393  3.92  0.  0.
   394  3.93  0.  0.
   395  3.94  0.  0.
   396  3.95  0.  0.
   397  3.96  0.  0.
   398  3.97  0.  0.
   399  3.98  0.  0.
   400  3.99  0.  0.
   401  4.00  0.  0.
   402  4.01  0.  0.
   403  4.02  0.  0.
   404  4.03  0.  0.
   405  4.04  0.  0.
   406  4.05  0.  0.
   407  4.06  0.  0.
   408  4.07  0.  0.
   409  4.08  0.  0.
   410  4.09  0.  0.
   411  4.10  0.  0.
   412  4.11  0.  0.
   413  4.12  0.  0.
   414  4.13  0.  0.
   415  4.14  0.  0.
   416  4.15  0.  0.
   417  4.16  0.  0.
   418  4.17  0.  0.
   419  4.18  0.  0.
   420  4.19  0.  0.
   421  4.20  0.  0.
   422  4.21  0.  0.
   423  4.22  0.  0.
   424  4.23  0.  0.
   425  4.24  0.  0.
   426  4.25  0.  0.
   427  4.26  0.  0.
   428  4.27  0.  0.
   429  4.28  0.  0.
   430  4.29  0.  0.
   431  4.30  0.  0.
   432  4.31  0.  0.
   433  4.32  0.  0.
   434  4.33  0.  0.
   435  4.34  0.  0.
   436  4.35  0.  0.
   437  4.36  0.  0.
   438  4.37  0.  0.
   439  4.38  0.  0.
   440  4.39  0.  0.
   441  4.40  0.  0.
   442  4.41  0.  0.
   443  4.42  0.  0.
   444  4.43  0.  0.
   445  4.44  0.  0.
   446  4.45  0.  0.
   447  4.46  0.  0.
   448  4.47  0.  0.
   449  4.48  0.  0.
   450  4.49  0.  0.
   451  4.50  0.  0.
   452  4.51  0.  0.
   453  4.52  0.  0.
   454  4.53  0.  0.
   455  4.54  0.  0.
   456  4.55  0.  0.
   457  4.56  0.  0.
   458  4.57  0.  0.
   459  4.58  0.  0.
   460  4.59  0.  0.
   461  4.60  0.  0.
   462  4.61  0.  0.
   463  4.62  0.  0.
   464  4.63  0.  0.
   465  4.64  0.  0.
   466  4.65  0.  0.
   467  4.66  0.  0.
   468  4.67  0.  0.
   469  4.68  0.  0.
   470  4.69  0.  0.
   471  4.70  0.  0.
   472  4.71  0.  0.
   473  4.72  0.  0.
   474  4.73  0.  0.
   475  4.74  0.  0.
   476  4.75  0.  0.
   477  4.76  0.  0.
   478  4.77  0.  0.
   479  4.78  0.  0.
   480  4.79  0.  0.
   481  4.80  0.  0.
   482  4.81  0.  0.
   483  4.82  0.  0.
   484  4.83  0.  0.
   485  4.84  0.  0.
   486  4.85  0.  0.
   487  4.86  0.  0.
   488  4.87  0.  0.
   489  4.88  0.  0.
   490  4.89  0.  0.
   491  4.90  0.  0.
   492  4.91  0.  0.
   493  4.92  0.  0.
   494  4.93  0.  0.
   495  4.94  0.  0.
   496  4.95  0.  0.
   497  4.96  0.  0.
   498  4.97  0.  0.
   499  4.98  0.  0.
   500  4.99  0.  0.
   501  5.00  0.  0.
   502  5.01  0.  0.
   503  5.02  0.  0.
   504  5.03  0.  0.
   505  5.04  0.  0.
   506  5.05  0.  0.
   507  5.06  0.  0.
   508  5.07  0.  0.
   509  5.08  0.  0.
   510  5.09  0.  0.
   511  5.10  0.  0.
   512  5.11  0.  0.
   513  5.12  0.  0.
   514  5.13  0.  0.
   515  5.14  0.  0.
   516  5.15  0.  0.
   517  5.16  0.  0.
   518  5.17  0.  0.
   519  5.18  0.  0.
   520  5.19  0.  0.
   521  5.20  0.  0.
   522  5.21  0.  0.
   523  5.22  0.  0.
   524  5.23  0.  0.
   525  5.24  0.  0.
   526  5.25  0.  0.
   527  5.26  0.  0.
   528  5.27  0.  0.
   529  5.28  0.  0.
   530  5.29  0.  0.
   531  5.30  0.  0.
   532  5.31  0.  0.
   533  5.32  0.  0.
   534  5.33  0.  0.
   535  5.34  0.  0.
   536  5.35  0.  0.
   537  5.36  0.  0.
   538  5.37  0.  0.
   539  5.38  0.  0.
   540  5.39  0.  0.
   541  5.40  0.  0.
   542  5.41  0.  0.
   543  5.42  0.  0.
   544  5.43  0.  0.
   545  5.44  0.  0.
   546  5.45  0.  0.
   547  5.46  0.  0.
   548  5.47  0.  0.
   549  5.48  0.  0.
   550  5.49  0.  0.
   551  5.50  0.  0.
   552  5.51  0.  0.
   553  5.52  0.  0.
   554  5.53  0.  0.
   555  5.54  0.  0.
   556  5.55  0.  0.
   557  5.56  0.  0.
   558  5.57  0.  0.
   559  5.58  0.  0.
   560  5.59  0.  0.
   561  5.60  0.  0.
   562  5.61  0.  0.
   563  5.62  0.  0.
   564  5.63  0.  0.
   565  5.64  0.  0.
   566  5.65  0.  0.
   567  5.66  0.  0.
   568  5.67  0.  0.
   569  5.68  0.  0.
   570  5.69  0.  0.
   571  5.70  0.  0.
   572  5.71  0.  0.
   573  5.72  0.  0.
   574  5.73  0.  0.
   575  5.74  0.  0.
   576  5.75  0.  0.
   577  5.76  0.  0.
   578  5.77  0.  0.
   579  5.78  0.  0.
   580  5.79  0.  0.
   581  5.80  0.  0.
   582  5.81  0.  0.
   583  5.82  0.  0.
   584  5.83  0.  0.
   585  5.84  0.  0.
   586  5.85  0.  0.
   587  5.86  0.  0.
   588  5.87  0.  0.
   589  5.88  0.  0.
   590  5.89  0.  0.
   591  5.90  0.  0.
   592  5.91  0.  0.
   593  5.92  0.  0.
   594  5.93  0.  0.
   595  5.94  0.  0.
   596  5.95  0.  0.
   597  5.96  0.  0.
   598  5.97  0.  0.
   599  5.98  0.  0.
   600  5.99  0.  0.
   1                         3.4246199698118E+00 -1.2220231073488E-01 -6.2631835299793E-03
     1  0.0000000000000E+00 -3.2088402351915E-09 -2.4413474215314E-08  1.7981139591172E-08
     2  1.0000000000000E-02  1.9063337655974E-03 -3.0501813538330E-05 -3.6509320792319E-04
     3  2.0000000000000E-02  7.6189459339265E-03 -1.0457651064632E-04 -1.4684295241246E-03
     4  3.0000000000000E-02  1.7118626537500E-02 -1.7049764075101E-04 -3.3337892162065E-03
     5  4.0000000000000E-02  3.0373219044728E-02 -1.4392523832478E-04 -5.9995179142671E-03
     6  5.0000000000000E-02  4.7337417501807E-02  8.9340637758654E-05 -9.5166333685912E-03
     7  6.0000000000000E-02  6.7952496380464E-02  6.6960887124441E-04 -1.3946251842645E-02
     8  7.0000000000000E-02  9.2145986537178E-02  1.7586495545618E-03 -1.9356408693381E-02
     9  8.0000000000000E-02  1.1983131389836E-01  3.5342747600782E-03 -2.5818365671986E-02
    10  9.0000000000000E-02  1.5090742024939E-01  6.1842942911788E-03 -3.3402513051963E-02
    11  1.0000000000000E-01  1.8525838774731E-01  9.9000104761021E-03 -4.2173987495812E-02
    12  1.1000000000000E-01  2.2275309043281E-01  1.4869429519160E-02 -5.2188136228516E-02
    13  1.2000000000000E-01  2.6324489703869E-01  2.1270375893802E-02 -6.3485964352961E-02
    14  1.3000000000000E-01  3.0657144974314E-01  2.9263700501846E-02 -7.6089704833084E-02
    15  1.4000000000000E-01  3.5255454318151E-01  3.8986772712396E-02 -8.9998649701621E-02
    16  1.5000000000000E-01  4.0100012700671E-01  5.0547440918786E-02 -1.0518537640632E-01
    17  1.6000000000000E-01  4.5169845359382E-01  6.4018636026411E-02 -1.2159249500747E-01
    18  1.7000000000000E-01  5.0442439015027E-01  7.9433777533275E-02 -1.3913003032455E-01
    19  1.8000000000000E-01  5.5893791156861E-01  9.6783122929716E-02 -1.5767353841563E-01
    20  1.9000000000000E-01  6.1498478690777E-01  1.1601117846555E-01 -1.7706303925211E-01
    21  2.0000000000000E-01  6.7229746848727E-01  1.3701526345084E-01 -1.9710282758947E-01
    22  2.1000000000000E-01  7.3059618831706E-01  1.5964529178710E-01 -2.1756220227124E-01
    23  2.2000000000000E-01  7.8959026205999E-01  1.8370480405669E-01 -2.3817713109748E-01
    24  2.3000000000000E-01  8.4897959604223E-01  2.0895325196536E-01 -2.5865284448615E-01
    25  2.4000000000000E-01  9.0845638809801E-01  2.3510950500541E-01 -2.7866732706095E-01
    26  2.5000000000000E-01  9.6770700837291E-01  2.6185651767147E-01 -2.9787565260667E-01
    27  2.6000000000000E-01  1.0264140417269E+00  2.8884706519865E-01 -3.1591508514282E-01
    28  2.7000000000000E-01  1.0842584691835E+00  3.1571042736144E-01 -3.3241084775778E-01
    29  2.8000000000000E-01  1.1409219620704E+00  3.4205987409247E-01 -3.4698244185771E-01
    30  2.9000000000000E-01  1.1960892591816E+00  3.6750078421002E-01 -3.5925038312463E-01
    31  3.0000000000000E-01  1.2494505945536E+00  3.9163920996952E-01 -3.6884320717864E-01
    32  3.1000000000000E-01  1.3007041413526E+00  4.1409068597226E-01 -3.7540458806898E-01
    33  3.2000000000000E-01  1.3495584359821E+00  4.3448907156912E-01 -3.7860040657665E-01
    34  3.3000000000000E-01  1.3957347458801E+00  4.5249521156869E-01 -3.7812560307957E-01
    35  3.4000000000000E-01  1.4389693446034E+00  4.6780520096302E-01 -3.7371065154247E-01
    36  3.5000000000000E-01  1.4790156587137E+00  4.8015804555413E-01 -3.6512749703472E-01
    37  3.6000000000000E-01  1.5156462526568E+00  4.8934252171399E-01 -3.5219480898295E-01
    38  3.7000000000000E-01  1.5486546202554E+00  4.9520305482237E-01 -3.3478241592886E-01
    39  3.8000000000000E-01  1.5778567545537E+00  4.9764445686587E-01 -3.1281480462712E-01
    40  3.9000000000000E-01  1.6030924715049E+00  4.9663538879239E-01 -2.8627358649665E-01
    41  4.0000000000000E-01  1.6242264673058E+00  4.9221044194446E-01 -2.5519885729964E-01
    42  4.1000000000000E-01  1.6411490939520E+00  4.8447076458780E-01 -2.1968940094224E-01
    43  4.2000000000000E-01  1.6537768427290E+00  4.7358319348204E-01 -1.7990171488980E-01
    44  4.3000000000000E-01  1.6620525307339E+00  4.5977788581553E-01 -1.3604786224966E-01
    45  4.4000000000000E-01  1.6659451910447E+00  4.4334448281158E-01 -8.8392183440597E-02
    46  4.5000000000000E-01  1.6654496726745E+00  4.2462687204999E-01 -3.7246927867332E-02
    47  4.6000000000000E-01  1.6605859618592E+00  4.0401665017015E-01  1.7033107518504E-02
    48  4.7000000000000E-01  1.6513982413947E+00  3.8194542028568E-01  7.4056821117233E-02
    49  4.8000000000000E-01  1.6379537095578E+00  3.5887608833187E-01  1.3340379692948E-01
    50  4.9000000000000E-01  1.6203411844873E+00  3.3529334893326E-01  1.9463188848073E-01
    51  5.0000000000000E-01  1.5986695236869E+00  3.1169357353915E-01  2.5728522659214E-01
    52  5.1000000000000E-01  1.5730658914333E+00  2.8857433094200E-01  3.2090246886300E-01
    53  5.2000000000000E-01  1.5436739092727E+00  2.6642378238530E-01  3.8502510062954E-01
    54  5.3000000000000E-01  1.5106517263986E+00  2.4571019992431E-01  4.4920559352880E-01
    55  5.4000000000000E-01  1.4741700474900E+00  2.2687185728881E-01  5.1301522878588E-01
    56  5.5000000000000E-01  1.4344101555317E+00  2.1030753712180E-01  5.7605139799869E-01
    57  5.6000000000000E-01  1.3915619662353E+00  1.9636788716989E-01  6.3794420446653E-01
    58  5.7000000000000E-01  1.3458221489446E+00  1.8534784097369E-01  6.9836220280460E-01
    59  5.8000000000000E-01  1.2973923463972E+00  1.7748029616662E-01  7.5701713345251E-01
    60  5.9000000000000E-01  1.2464775224583E+00  1.7293121610369E-01  8.1366753130130E-01
    61  6.0000000000000E-01  1.1932844630429E+00  1.7179628878187E-01  8.6812111358253E-01
    62  6.1000000000000E-01  1.1380204509698E+00  1.7409924157755E-01  9.2023588078760E-01
    63  6.2000000000000E-01  1.0808921305631E+00  1.7979187200321E-01  9.6991989510393E-01
    64  6.3000000000000E-01  1.0221045725428E+00  1.8875581433993E-01  1.0171297329338E+00
    65  6.4000000000000E-01  9.6186054425555E-01  2.0080602056776E-01  1.0618676407840E+00
    66  6.5000000000000E-01  9.0035998471624E-01  2.1569589245554E-01  1.1041774564026E+00
    67  6.6000000000000E-01  8.3779967840641E-01  2.3312396097281E-01  1.1441393886817E+00
    68  6.7000000000000E-01  7.7437311642232E-01  2.5274197032368E-01  1.1818637798204E+00
    69  6.8000000000000E-01  7.1027052853615E-01  2.7416418782584E-01  1.2174840007644E+00
    70  6.9000000000000E-01  6.4567906513744E-01  2.9697772846642E-01  1.2511486553071E+00
    71  7.0000000000000E-01  5.8078310398131E-01  3.2075365507718E-01  1.2830132888543E+00
    72  7.1000000000000E-01  5.1576465328710E-01  3.4505859242047E-01  1.3132318140956E+00
    73  7.2000000000000E-01  4.5080382009295E-01  3.6946657667647E-01  1.3419478772914E+00
    74  7.3000000000000E-01  3.8607931095167E-01  3.9357085136370E-01  1.3692863951496E+00
    75  7.4000000000000E-01  3.2176893110184E-01  4.1699531695352E-01  1.3953454931333E+00
    76  7.5000000000000E-01  2.5805004819804E-01  4.3940534455224E-01  1.4201890713536E+00
    77  7.6000000000000E-01  1.9509998754674E-01  4.6051767406170E-01  1.4438402139704E+00
    78  7.7000000000000E-01  1.3309632755646E-01  4.8010913406164E-01  1.4662756424022E+00
    79  7.8000000000000E-01  7.2217066741812E-02  4.9802394400772E-01  1.4874213918528E+00
    80  7.9000000000000E-01  1.2640637063794E-02  5.1417938876318E-01  1.5071498651338E+00
    81  8.0000000000000E-01 -4.5454257429097E-02  5.2856969039131E-01  1.5252783879629E+00
    82  8.1000000000000E-01 -1.0188899286856E-01  5.4126794180880E-01  1.5415693564867E+00
    83  8.2000000000000E-01 -1.5648557959148E-01  5.5242601048554E-01  1.5557320314030E+00
    84  8.3000000000000E-01 -2.0906742300073E-01  5.6227236692721E-01  1.5674259945539E+00
    85  8.4000000000000E-01 -2.5946029029686E-01  5.7110784115831E-01  1.5762662440481E+00
    86  8.5000000000000E-01 -3.0749347594375E-01  5.7929935974063E-01  1.5818298637904E+00
    87  8.6000000000000E-01 -3.5300115258212E-01  5.8727176488698E-01  1.5836641636291E+00
    88  8.7000000000000E-01 -3.9582388812855E-01  5.9549786481932E-01  1.5812961481377E+00
    89  8.8000000000000E-01 -4.3581030414625E-01  6.0448690955281E-01  1.5742431362247E+00
    90  8.9000000000000E-01 -4.7281884539123E-01  6.1477172767558E-01  1.5620243211976E+00
    91  9.0000000000000E-01 -5.0671962585959E-01  6.2689479642861E-01  1.5441730323912E+00
    92  9.1000000000000E-01 -5.3739631281294E-01  6.4139354854087E-01  1.5202494357701E+00
    93  9.2000000000000E-01 -5.6474800724736E-01  6.5878524403771E-01  1.4898533926525E+00
    94  9.3000000000000E-01 -5.8869107718797E-01  6.7955175293674E-01  1.4526371834054E+00
    95  9.4000000000000E-01 -6.0916089910598E-01  7.0412460485323E-01  1.4083177970578E+00
    96  9.5000000000000E-01 -6.2611346271645E-01  7.3287066369872E-01  1.3566884884793E+00
    97  9.6000000000000E-01 -6.3952679544623E-01  7.6607877968749E-01  1.2976293122743E+00
    98  9.7000000000000E-01 -6.4940216496328E-01  8.0394775677501E-01  1.2311163567229E+00
    99  9.8000000000000E-01 -6.5576502130461E-01  8.4657595161193E-01  1.1572294218587E+00
   100  9.9000000000000E-01 -6.5866564428098E-01  8.9395279048823E-01  1.0761579127219E+00
   101  1.0000000000000E+00 -6.5817946689602E-01  9.4595245411141E-01  9.8820475149352E-01
   102  1.0100000000000E+00 -6.5440705140138E-01  1.0023299371170E+00  8.9378815000613E-01
   103  1.0200000000000E+00 -6.4747370120037E-01  1.0627196408044E+00  7.9344112627883E-01
   104  1.0300000000000E+00 -6.3752869897105E-01  1.1266366047615E+00  6.8780869438753E-01
   105  1.0400000000000E+00 -6.2474416895587E-01  1.1934804268912E+00  5.7764270519507E-01
   106  1.0500000000000E+00 -6.0931356920479E-01  1.2625418630199E+00  4.6379436529470E-01
   107  1.0600000000000E+00 -5.9144982746877E-01  1.3330120381793E+00  3.4720451173996E-01
   108  1.0700000000000E+00 -5.7138314226780E-01  1.4039941429446E+00  2.2889176981345E-01