Ag    ONCVPSP-4.0.1  r_core=   1.40440   1.45573   1.60195
     47.0000     19.0000      250925    zatom,zion,pspd
     8   -1012   2     4   600     0    pspcod,pspxc,lmax,lloc,mmax,r2well
  5.99000000  7.00000000  0.00000000    rchrg fchrg qchrg
     2     3     2     0    nproj
     3     1           extension_switch
     4     3     0    nprojso
   0                         9.5487313847020E+00 -3.5229915203212E-01
     1  0.0000000000000E+00  1.3654921637851E-10  1.3521468500421E-08
     2  1.0000000000000E-02  7.8101630748887E-02  4.7353567309420E-02
     3  2.0000000000000E-02  1.5602486607870E-01  9.4685108780129E-02
     4  3.0000000000000E-02  2.3359173985799E-01  1.4196714953380E-01
     5  4.0000000000000E-02  3.1062514495732E-01  1.8916146997880E-01
     6  5.0000000000000E-02  3.8694926378082E-01  2.3621411329227E-01
     7  6.0000000000000E-02  4.6238999993416E-01  2.8305083877487E-01
     8  7.0000000000000E-02  5.3677541124284E-01  3.2957315338282E-01
     9  8.0000000000000E-02  6.0993614419802E-01  3.7565504022033E-01
    10  9.0000000000000E-02  6.8170586974264E-01  4.2114048644700E-01
    11  1.0000000000000E-01  7.5192172012075E-01  4.6584189428099E-01
    12  1.1000000000000E-01  8.2042472630352E-01  5.0953943797824E-01
    13  1.2000000000000E-01  8.8706025528020E-01  5.5198140730546E-01
    14  1.3000000000000E-01  9.5167844626642E-01  5.9288555459868E-01
    15  1.4000000000000E-01  1.0141346446421E+00  6.3194143853452E-01
    16  1.5000000000000E-01  1.0742898321913E+00  6.6881373377678E-01
    17  1.6000000000000E-01  1.1320110519820E+00  7.0314645223511E-01
    18  1.7000000000000E-01  1.1871718260039E+00  7.3456799931514E-01
    19  1.8000000000000E-01  1.2396525634760E+00  7.6269696775908E-01
    20  1.9000000000000E-01  1.2893409575541E+00  7.8714855294644E-01
    21  2.0000000000000E-01  1.3361323680159E+00  8.0754145727737E-01
    22  2.1000000000000E-01  1.3799301873720E+00  8.2350513787621E-01
    23  2.2000000000000E-01  1.4206461877690E+00  8.3468724164490E-01
    24  2.3000000000000E-01  1.4582008459946E+00  8.4076106491441E-01
    25  2.4000000000000E-01  1.4925236438862E+00  8.4143287176115E-01
    26  2.5000000000000E-01  1.5235533414737E+00  8.3644890556782E-01
    27  2.6000000000000E-01  1.5512382202605E+00  8.2560193263097E-01
    28  2.7000000000000E-01  1.5755362941612E+00  8.0873716448072E-01
    29  2.8000000000000E-01  1.5964154857691E+00  7.8575741693388E-01
    30  2.9000000000000E-01  1.6138537658221E+00  7.5662737852420E-01
    31  3.0000000000000E-01  1.6278392539681E+00  7.2137687854323E-01
    32  3.1000000000000E-01  1.6383702791921E+00  6.8010306511250E-01
    33  3.2000000000000E-01  1.6454553985667E+00  6.3297142607080E-01
    34  3.3000000000000E-01  1.6491133733029E+00  5.8021560951669E-01
    35  3.4000000000000E-01  1.6493731014208E+00  5.2213602608134E-01
    36  3.5000000000000E-01  1.6462735067115E+00  4.5909724087242E-01
    37  3.6000000000000E-01  1.6398633840289E+00  3.9152418896009E-01
    38  3.7000000000000E-01  1.6302012013138E+00  3.1989727370062E-01
    39  3.8000000000000E-01  1.6173548591219E+00  2.4474643155039E-01
    40  3.9000000000000E-01  1.6014014087803E+00  1.6664426976347E-01
    41  4.0000000000000E-01  1.5824267306466E+00  8.6198403983901E-02
    42  4.1000000000000E-01  1.5605251742644E+00  4.0431407611627E-03
    43  4.2000000000000E-01  1.5357991625165E+00 -7.9169334976253E-02
    44  4.3000000000000E-01  1.5083587621472E+00 -1.6277809581686E-01
    45  4.4000000000000E-01  1.4783212232727E+00 -2.4612275147185E-01
    46  4.5000000000000E-01  1.4458104907017E+00 -3.2855268829761E-01
    47  4.6000000000000E-01  1.4109566900668E+00 -4.0943608478755E-01
    48  4.7000000000000E-01  1.3738955918941E+00 -4.8816852294194E-01
    49  4.8000000000000E-01  1.3347680568377E+00 -5.6418102324163E-01
    50  4.9000000000000E-01  1.2937194653575E+00 -6.3694734258827E-01
    51  5.0000000000000E-01  1.2508991351347E+00 -7.0599038980607E-01
    52  5.1000000000000E-01  1.2064597295001E+00 -7.7088763181971E-01
    53  5.2000000000000E-01  1.1605566600905E+00 -8.3127538505309E-01
    54  5.3000000000000E-01  1.1133474868634E+00 -8.8685191047990E-01
    55  5.4000000000000E-01  1.0649913184768E+00 -9.3737925659879E-01
    56  5.5000000000000E-01  1.0156482159038E+00 -9.8268382184339E-01
    57  5.6000000000000E-01  9.6547860198070E-01 -1.0226556359861E+00
    58  5.7000000000000E-01  9.1464267941135E-01 -1.0572463883345E+00
    59  5.8000000000000E-01  8.6329985955440E-01 -1.0864662583341E+00
    60  5.9000000000000E-01  8.1160820412064E-01 -1.1103796309520E+00
    61  6.0000000000000E-01  7.5972388170520E-01 -1.1290998043309E+00
    62  6.1000000000000E-01  7.0780064087815E-01 -1.1427828200843E+00
    63  6.2000000000000E-01  6.5598930136299E-01 -1.1516205667396E+00
    64  6.3000000000000E-01  6.0443726464802E-01 -1.1558333237345E+00
    65  6.4000000000000E-01  5.5328804520534E-01 -1.1556619266404E+00
    66  6.5000000000000E-01  5.0268082333809E-01 -1.1513597435838E+00
    67  6.6000000000000E-01  4.5275002054150E-01 -1.1431846579147E+00
    68  6.7000000000000E-01  4.0362489814892E-01 -1.1313912528834E+00
    69  6.8000000000000E-01  3.5542917994055E-01 -1.1162233903531E+00
    70  6.9000000000000E-01  3.0828069932154E-01 -1.0979073674462E+00
    71  7.0000000000000E-01  2.6229107162556E-01 -1.0766458226221E+00
    72  7.1000000000000E-01  2.1756539206980E-01 -1.0526125462398E+00
    73  7.2000000000000E-01  1.7420195987506E-01 -1.0259483304946E+00
    74  7.3000000000000E-01  1.3229202906793E-01 -9.9675797013529E-01
    75  7.4000000000000E-01  9.1919586497945E-02 -9.6510849905793E-01
    76  7.5000000000000E-01  5.3161157627485E-02 -9.3102871927297E-01
    77  7.6000000000000E-01  1.6085640681823E-02 -8.9451004848163E-01
    78  7.7000000000000E-01 -1.9245830222266E-02 -8.5550868121297E-01
    79  7.8000000000000E-01 -5.2779992324002E-02 -8.1394902685934E-01
    80  7.9000000000000E-01 -8.4471531177546E-02 -7.6972835669921E-01
    81  8.0000000000000E-01 -1.1428312665086E-01 -7.2272256182315E-01
    82  8.1000000000000E-01 -1.4218546730251E-01 -6.7279289545640E-01
    83  8.2000000000000E-01 -1.6815723250419E-01 -6.1979354717058E-01
    84  8.3000000000000E-01 -1.9218504173034E-01 -5.6357987350317E-01
    85  8.4000000000000E-01 -2.1426337051614E-01 -5.0401709011604E-01
    86  8.5000000000000E-01 -2.3439443269393E-01 -4.4098921530928E-01
    87  8.6000000000000E-01 -2.5258802865722E-01 -3.7440804386335E-01
    88  8.7000000000000E-01 -2.6886135957123E-01 -3.0422192412700E-01
    89  8.8000000000000E-01 -2.8323880764967E-01 -2.3042411020595E-01
    90  8.9000000000000E-01 -2.9575168284814E-01 -1.5306046514679E-01
    91  9.0000000000000E-01 -3.0643793658307E-01 -7.2236300144938E-02
    92  9.1000000000000E-01 -3.1534184336838E-01  1.1877851079016E-02
    93  9.2000000000000E-01 -3.2251365156792E-01  9.9041704721451E-02
    94  9.3000000000000E-01 -3.2800920478359E-01  1.8894210484879E-01
    95  9.4000000000000E-01 -3.3188953573388E-01  2.8119143826983E-01
    96  9.5000000000000E-01 -3.3422043481818E-01  3.7532768698419E-01
    97  9.6000000000000E-01 -3.3507199590318E-01  4.7081618525282E-01
    98  9.7000000000000E-01 -3.3451814220168E-01  5.6705311254465E-01
    99  9.8000000000000E-01 -3.3263613543492E-01  6.6337071636890E-01
   100  9.9000000000000E-01 -3.2950607176946E-01  7.5904422108921E-01
   101  1.0000000000000E+00 -3.2521036829148E-01  8.5330034103514E-01
   102  1.0100000000000E+00 -3.1983324401961E-01  9.4532727938076E-01
   103  1.0200000000000E+00 -3.1346019965318E-01  1.0342860591513E+00
   104  1.0300000000000E+00 -3.0617750040276E-01  1.1193230001422E+00
   105  1.0400000000000E+00 -2.9807166634600E-01  1.1995831262061E+00
   106  1.0500000000000E+00 -2.8922897479200E-01  1.2742242619451E+00
   107  1.0600000000000E+00 -2.7973497911550E-01  1.3424315569922E+00
   108  1.0700000000000E+00 -2.6967404843795E-01  1.4034321602251E+00
   109  1.0800000000000E+00 -2.5912893238156E-01  1.4565097558944E+00
   110  1.0900000000000E+00 -2.4818035490791E-01  1.5010186690478E+00
   111  1.1000000000000E+00 -2.3690664097070E-01  1.5363972489976E+00
   112  1.1100000000000E+00 -2.2538337937026E-01  1.5621802469470E+00
   113  1.1200000000000E+00 -2.1368312479346E-01  1.5780099172707E+00
   114  1.1300000000000E+00 -2.0187514156575E-01  1.5836455910485E+00
   115  1.1400000000000E+00 -1.9002519113396E-01  1.5789714951148E+00
   116  1.1500000000000E+00 -1.7819536474971E-01  1.5640026195141E+00
   117  1.1600000000000E+00 -1.6644396223724E-01  1.5388884705303E+00
   118  1.1700000000000E+00 -1.5482541712048E-01  1.5039145844593E+00
   119  1.1800000000000E+00 -1.4339026775361E-01  1.4595017187226E+00
   120  1.1900000000000E+00 -1.3218517346756E-01  1.4062026803813E+00
   121  1.2000000000000E+00 -1.2125297410958E-01  1.3446967975448E+00
   122  1.2100000000000E+00 -1.1063279073764E-01  1.2757820847738E+00
   123  1.2200000000000E+00 -1.0036016463522E-01  1.2003651993180E+00
   124  1.2300000000000E+00 -9.0467231252180E-02  1.1194493293499E+00
   125  1.2400000000000E+00 -8.0982925162740E-02  1.0341201975820E+00
   126  1.2500000000000E+00 -7.1933211666659E-02  9.4553040314251E-01
   127  1.2600000000000E+00 -6.3341340260898E-02  8.5488235999894E-01
   128  1.2700000000000E+00 -5.5228114876494E-02  7.6341012135253E-01
   129  1.2800000000000E+00 -4.7612175519845E-02  6.7236040530709E-01
   130  1.2900000000000E+00 -4.0510285783487E-02  5.8297315720017E-01
   131  1.3000000000000E+00 -3.3937620601364E-02  4.9646199799249E-01
   132  1.3100000000000E+00 -2.7908047315427E-02  4.1399495079996E-01
   133  1.3200000000000E+00 -2.2434408983455E-02  3.3667542307678E-01
   134  1.3300000000000E+00 -1.7528735159314E-02  2.6552557105566E-01
   135  1.3400000000000E+00 -1.3203567163007E-02  2.0144036502173E-01
   136  1.3500000000000E+00 -9.4731617728075E-03  1.4513647393540E-01
   137  1.3600000000000E+00 -6.3461941662729E-03  9.7347690258282E-02
   138  1.3700000000000E+00 -3.8316434152905E-03  5.8673859624153E-02
   139  1.3800000000000E+00 -1.9393922515449E-03  2.9559855414602E-02
   140  1.3900000000000E+00 -6.7743151986513E-04  1.0248302096258E-02
   141  1.4000000000000E+00 -7.4221946295463E-05  1.1108081840169E-03
   142  1.4100000000000E+00  8.0502171676412E-06 -1.1970292433072E-04
   143  1.4200000000000E+00 -1.4117782244111E-06  2.1101138187155E-05
   144  1.43  0.  0.
   145  1.44  0.  0.
   146  1.45  0.  0.
   147  1.46  0.  0.
   148  1.47  0.  0.
   149  1.48  0.  0.
   150  1.49  0.  0.
   151  1.50  0.  0.
   152  1.51  0.  0.
   153  1.52  0.  0.
   154  1.53  0.  0.
   155  1.54  0.  0.
   156  1.55  0.  0.
   157  1.56  0.  0.
   158  1.57  0.  0.
   159  1.58  0.  0.
   160  1.59  0.  0.
   161  1.60  0.  0.
   162  1.61  0.  0.
   163  1.62  0.  0.
   164  1.63  0.  0.
   165  1.64  0.  0.
   166  1.65  0.  0.
   167  1.66  0.  0.
   168  1.67  0.  0.
   169  1.68  0.  0.
   170  1.69  0.  0.
   171  1.70  0.  0.
   172  1.71  0.  0.
   173  1.72  0.  0.
   174  1.73  0.  0.
   175  1.74  0.  0.
   176  1.75  0.  0.
   177  1.76  0.  0.
   178  1.77  0.  0.
   179  1.78  0.  0.
   180  1.79  0.  0.
   181  1.80  0.  0.
   182  1.81  0.  0.
   183  1.82  0.  0.
   184  1.83  0.  0.
   185  1.84  0.  0.
   186  1.85  0.  0.
   187  1.86  0.  0.
   188  1.87  0.  0.
   189  1.88  0.  0.
   190  1.89  0.  0.
   191  1.90  0.  0.
   192  1.91  0.  0.
   193  1.92  0.  0.
   194  1.93  0.  0.
   195  1.94  0.  0.
   196  1.95  0.  0.
   197  1.96  0.  0.
   198  1.97  0.  0.
   199  1.98  0.  0.
   200  1.99  0.  0.
   201  2.00  0.  0.
   202  2.01  0.  0.
   203  2.02  0.  0.
   204  2.03  0.  0.
   205  2.04  0.  0.
   206  2.05  0.  0.
   207  2.06  0.  0.
   208  2.07  0.  0.
   209  2.08  0.  0.
   210  2.09  0.  0.
   211  2.10  0.  0.
   212  2.11  0.  0.
   213  2.12  0.  0.
   214  2.13  0.  0.
   215  2.14  0.  0.
   216  2.15  0.  0.
   217  2.16  0.  0.
   218  2.17  0.  0.
   219  2.18  0.  0.
   220  2.19  0.  0.
   221  2.20  0.  0.
   222  2.21  0.  0.
   223  2.22  0.  0.
   224  2.23  0.  0.
   225  2.24  0.  0.
   226  2.25  0.  0.
   227  2.26  0.  0.
   228  2.27  0.  0.
   229  2.28  0.  0.
   230  2.29  0.  0.
   231  2.30  0.  0.
   232  2.31  0.  0.
   233  2.32  0.  0.
   234  2.33  0.  0.
   235  2.34  0.  0.
   236  2.35  0.  0.
   237  2.36  0.  0.
   238  2.37  0.  0.
   239  2.38  0.  0.
   240  2.39  0.  0.
   241  2.40  0.  0.
   242  2.41  0.  0.
   243  2.42  0.  0.
   244  2.43  0.  0.
   245  2.44  0.  0.
   246  2.45  0.  0.
   247  2.46  0.  0.
   248  2.47  0.  0.
   249  2.48  0.  0.
   250  2.49  0.  0.
   251  2.50  0.  0.
   252  2.51  0.  0.
   253  2.52  0.  0.
   254  2.53  0.  0.
   255  2.54  0.  0.
   256  2.55  0.  0.
   257  2.56  0.  0.
   258  2.57  0.  0.
   259  2.58  0.  0.
   260  2.59  0.  0.
   261  2.60  0.  0.
   262  2.61  0.  0.
   263  2.62  0.  0.
   264  2.63  0.  0.
   265  2.64  0.  0.
   266  2.65  0.  0.
   267  2.66  0.  0.
   268  2.67  0.  0.
   269  2.68  0.  0.
   270  2.69  0.  0.
   271  2.70  0.  0.
   272  2.71  0.  0.
   273  2.72  0.  0.
   274  2.73  0.  0.
   275  2.74  0.  0.
   276  2.75  0.  0.
   277  2.76  0.  0.
   278  2.77  0.  0.
   279  2.78  0.  0.
   280  2.79  0.  0.
   281  2.80  0.  0.
   282  2.81  0.  0.
   283  2.82  0.  0.
   284  2.83  0.  0.
   285  2.84  0.  0.
   286  2.85  0.  0.
   287  2.86  0.  0.
   288  2.87  0.  0.
   289  2.88  0.  0.
   290  2.89  0.  0.
   291  2.90  0.  0.
   292  2.91  0.  0.
   293  2.92  0.  0.
   294  2.93  0.  0.
   295  2.94  0.  0.
   296  2.95  0.  0.
   297  2.96  0.  0.
   298  2.97  0.  0.
   299  2.98  0.  0.
   300  2.99  0.  0.
   301  3.00  0.  0.
   302  3.01  0.  0.
   303  3.02  0.  0.
   304  3.03  0.  0.
   305  3.04  0.  0.
   306  3.05  0.  0.
   307  3.06  0.  0.
   308  3.07  0.  0.
   309  3.08  0.  0.
   310  3.09  0.  0.
   311  3.10  0.  0.
   312  3.11  0.  0.
   313  3.12  0.  0.
   314  3.13  0.  0.
   315  3.14  0.  0.
   316  3.15  0.  0.
   317  3.16  0.  0.
   318  3.17  0.  0.
   319  3.18  0.  0.
   320  3.19  0.  0.
   321  3.20  0.  0.
   322  3.21  0.  0.
   323  3.22  0.  0.
   324  3.23  0.  0.
   325  3.24  0.  0.
   326  3.25  0.  0.
   327  3.26  0.  0.
   328  3.27  0.  0.
   329  3.28  0.  0.
   330  3.29  0.  0.
   331  3.30  0.  0.
   332  3.31  0.  0.
   333  3.32  0.  0.
   334  3.33  0.  0.
   335  3.34  0.  0.
   336  3.35  0.  0.
   337  3.36  0.  0.
   338  3.37  0.  0.
   339  3.38  0.  0.
   340  3.39  0.  0.
   341  3.40  0.  0.
   342  3.41  0.  0.
   343  3.42  0.  0.
   344  3.43  0.  0.
   345  3.44  0.  0.
   346  3.45  0.  0.
   347  3.46  0.  0.
   348  3.47  0.  0.
   349  3.48  0.  0.
   350  3.49  0.  0.
   351  3.50  0.  0.
   352  3.51  0.  0.
   353  3.52  0.  0.
   354  3.53  0.  0.
   355  3.54  0.  0.
   356  3.55  0.  0.
   357  3.56  0.  0.
   358  3.57  0.  0.
   359  3.58  0.  0.
   360  3.59  0.  0.
   361  3.60  0.  0.
   362  3.61  0.  0.
   363  3.62  0.  0.
   364  3.63  0.  0.
   365  3.64  0.  0.
   366  3.65  0.  0.
   367  3.66  0.  0.
   368  3.67  0.  0.
   369  3.68  0.  0.
   370  3.69  0.  0.
   371  3.70  0.  0.
   372  3.71  0.  0.
   373  3.72  0.  0.
   374  3.73  0.  0.
   375  3.74  0.  0.
   376  3.75  0.  0.
   377  3.76  0.  0.
   378  3.77  0.  0.
   379  3.78  0.  0.
   380  3.79  0.  0.
   381  3.80  0.  0.
   382  3.81  0.  0.
   383  3.82  0.  0.
   384  3.83  0.  0.
   385  3.84  0.  0.
   386  3.85  0.  0.
   387  3.86  0.  0.
   388  3.87  0.  0.
   389  3.88  0.  0.
   390  3.89  0.  0.
   391  3.90  0.  0.
   392  3.91  0.  0.
   393  3.92  0.  0.
   394  3.93  0.  0.
   395  3.94  0.  0.
   396  3.95  0.  0.
   397  3.96  0.  0.
   398  3.97  0.  0.
   399  3.98  0.  0.
   400  3.99  0.  0.
   401  4.00  0.  0.
   402  4.01  0.  0.
   403  4.02  0.  0.
   404  4.03  0.  0.
   405  4.04  0.  0.
   406  4.05  0.  0.
   407  4.06  0.  0.
   408  4.07  0.  0.
   409  4.08  0.  0.
   410  4.09  0.  0.
   411  4.10  0.  0.
   412  4.11  0.  0.
   413  4.12  0.  0.
   414  4.13  0.  0.
   415  4.14  0.  0.
   416  4.15  0.  0.
   417  4.16  0.  0.
   418  4.17  0.  0.
   419  4.18  0.  0.
   420  4.19  0.  0.
   421  4.20  0.  0.
   422  4.21  0.  0.
   423  4.22  0.  0.
   424  4.23  0.  0.
   425  4.24  0.  0.
   426  4.25  0.  0.
   427  4.26  0.  0.
   428  4.27  0.  0.
   429  4.28  0.  0.
   430  4.29  0.  0.
   431  4.30  0.  0.
   432  4.31  0.  0.
   433  4.32  0.  0.
   434  4.33  0.  0.
   435  4.34  0.  0.
   436  4.35  0.  0.
   437  4.36  0.  0.
   438  4.37  0.  0.
   439  4.38  0.  0.
   440  4.39  0.  0.
   441  4.40  0.  0.
   442  4.41  0.  0.
   443  4.42  0.  0.
   444  4.43  0.  0.
   445  4.44  0.  0.
   446  4.45  0.  0.
   447  4.46  0.  0.
   448  4.47  0.  0.
   449  4.48  0.  0.
   450  4.49  0.  0.
   451  4.50  0.  0.
   452  4.51  0.  0.
   453  4.52  0.  0.
   454  4.53  0.  0.
   455  4.54  0.  0.
   456  4.55  0.  0.
   457  4.56  0.  0.
   458  4.57  0.  0.
   459  4.58  0.  0.
   460  4.59  0.  0.
   461  4.60  0.  0.
   462  4.61  0.  0.
   463  4.62  0.  0.
   464  4.63  0.  0.
   465  4.64  0.  0.
   466  4.65  0.  0.
   467  4.66  0.  0.
   468  4.67  0.  0.
   469  4.68  0.  0.
   470  4.69  0.  0.
   471  4.70  0.  0.
   472  4.71  0.  0.
   473  4.72  0.  0.
   474  4.73  0.  0.
   475  4.74  0.  0.
   476  4.75  0.  0.
   477  4.76  0.  0.
   478  4.77  0.  0.
   479  4.78  0.  0.
   480  4.79  0.  0.
   481  4.80  0.  0.
   482  4.81  0.  0.
   483  4.82  0.  0.
   484  4.83  0.  0.
   485  4.84  0.  0.
   486  4.85  0.  0.
   487  4.86  0.  0.
   488  4.87  0.  0.
   489  4.88  0.  0.
   490  4.89  0.  0.
   491  4.90  0.  0.
   492  4.91  0.  0.
   493  4.92  0.  0.
   494  4.93  0.  0.
   495  4.94  0.  0.
   496  4.95  0.  0.
   497  4.96  0.  0.
   498  4.97  0.  0.
   499  4.98  0.  0.
   500  4.99  0.  0.
   501  5.00  0.  0.
   502  5.01  0.  0.
   503  5.02  0.  0.
   504  5.03  0.  0.
   505  5.04  0.  0.
   506  5.05  0.  0.
   507  5.06  0.  0.
   508  5.07  0.  0.
   509  5.08  0.  0.
   510  5.09  0.  0.
   511  5.10  0.  0.
   512  5.11  0.  0.
   513  5.12  0.  0.
   514  5.13  0.  0.
   515  5.14  0.  0.
   516  5.15  0.  0.
   517  5.16  0.  0.
   518  5.17  0.  0.
   519  5.18  0.  0.
   520  5.19  0.  0.
   521  5.20  0.  0.
   522  5.21  0.  0.
   523  5.22  0.  0.
   524  5.23  0.  0.
   525  5.24  0.  0.
   526  5.25  0.  0.
   527  5.26  0.  0.
   528  5.27  0.  0.
   529  5.28  0.  0.
   530  5.29  0.  0.
   531  5.30  0.  0.
   532  5.31  0.  0.
   533  5.32  0.  0.
   534  5.33  0.  0.
   535  5.34  0.  0.
   536  5.35  0.  0.
   537  5.36  0.  0.
   538  5.37  0.  0.
   539  5.38  0.  0.
   540  5.39  0.  0.
   541  5.40  0.  0.
   542  5.41  0.  0.
   543  5.42  0.  0.
   544  5.43  0.  0.
   545  5.44  0.  0.
   546  5.45  0.  0.
   547  5.46  0.  0.
   548  5.47  0.  0.
   549  5.48  0.  0.
   550  5.49  0.  0.
   551  5.50  0.  0.
   552  5.51  0.  0.
   553  5.52  0.  0.
   554  5.53  0.  0.
   555  5.54  0.  0.
   556  5.55  0.  0.
   557  5.56  0.  0.
   558  5.57  0.  0.
   559  5.58  0.  0.
   560  5.59  0.  0.
   561  5.60  0.  0.
   562  5.61  0.  0.
   563  5.62  0.  0.
   564  5.63  0.  0.
   565  5.64  0.  0.
   566  5.65  0.  0.
   567  5.66  0.  0.
   568  5.67  0.  0.
   569  5.68  0.  0.
   570  5.69  0.  0.
   571  5.70  0.  0.
   572  5.71  0.  0.
   573  5.72  0.  0.
   574  5.73  0.  0.
   575  5.74  0.  0.
   576  5.75  0.  0.
   577  5.76  0.  0.
   578  5.77  0.  0.
   579  5.78  0.  0.
   580  5.79  0.  0.
   581  5.80  0.  0.
   582  5.81  0.  0.
   583  5.82  0.  0.
   584  5.83  0.  0.
   585  5.84  0.  0.
   586  5.85  0.  0.
   587  5.86  0.  0.
   588  5.87  0.  0.
   589  5.88  0.  0.
   590  5.89  0.  0.
   591  5.90  0.  0.
   592  5.91  0.  0.
   593  5.92  0.  0.
   594  5.93  0.  0.
   595  5.94  0.  0.
   596  5.95  0.  0.
   597  5.96  0.  0.
   598  5.97  0.  0.
   599  5.98  0.  0.
   600  5.99  0.  0.
   1                         3.4243640034359E+00 -1.2219680224849E-01 -6.2604082385027E-03
     1  0.0000000000000E+00 -3.2100360841669E-09 -2.4410569971194E-08  1.7983927021181E-08
     2  1.0000000000000E-02  1.9061859034390E-03 -3.1248899454724E-05 -3.6463520805720E-04
     3  2.0000000000000E-02  7.6183564571933E-03 -1.0756194590788E-04 -1.4666026464554E-03
     4  3.0000000000000E-02  1.7117307575106E-02 -1.7720390754518E-04 -3.3296978495877E-03
     5  4.0000000000000E-02  3.0370892414075E-02 -1.5581999760076E-04 -5.9922915708790E-03
     6  5.0000000000000E-02  4.7333818348003E-02  7.0810858546190E-05 -9.5054360669596E-03
     7  6.0000000000000E-02  6.7947376585735E-02  6.4302536018008E-04 -1.3930290850245E-02
     8  7.0000000000000E-02  9.2139117843744E-02  1.7226285526838E-03 -1.9334942481285E-02
     9  8.0000000000000E-02  1.1982249069440E-01  3.4874751248905E-03 -2.5790710956174E-02
    10  9.0000000000000E-02  1.5089646197527E-01  6.1254257406240E-03 -3.3368050828048E-02
    11  1.0000000000000E-01  1.8524514088756E-01  9.8278424467753E-03 -4.2132168005422E-02
    12  1.1000000000000E-01  2.2273743006853E-01  1.4782800652078E-02 -5.2138482823862E-02
    13  1.2000000000000E-01  2.6322672794451E-01  2.1168204136761E-02 -6.3428076267307E-02
    14  1.3000000000000E-01  3.0655070702291E-01  2.9144993793946E-02 -7.6023258894502E-02
    15  1.4000000000000E-01  3.5253119244648E-01  3.8850640190960E-02 -8.9923401060565E-02
    16  1.5000000000000E-01  4.0097416410982E-01  5.0393104563710E-02 -1.0510115838014E-01
    17  1.6000000000000E-01  4.5166990394267E-01  6.3845442632368E-02 -1.2149921816686E-01
    18  1.7000000000000E-01  5.0439330762990E-01  7.9241210875674E-02 -1.3902768097446E-01
    19  1.8000000000000E-01  5.5890437711283E-01  9.6570815968341E-02 -1.5756217663527E-01
    20  1.9000000000000E-01  6.1494890676417E-01  1.1577892540845E-01 -1.7694279667181E-01
    21  2.0000000000000E-01  6.7225937222642E-01  1.3676303148288E-01 -1.9697390508548E-01
    22  2.1000000000000E-01  7.3055602664017E-01  1.5937323225169E-01 -2.1742486775708E-01
    23  2.2000000000000E-01  7.8954820446196E-01  1.8341326286723E-01 -2.3803171758076E-01
    24  2.3000000000000E-01  8.4893582838788E-01  2.0864277901388E-01 -2.5849974854338E-01
    25  2.4000000000000E-01  9.0841111016864E-01  2.3478086233083E-01 -2.7850700785928E-01
    26  2.5000000000000E-01  9.6766043143859E-01  2.6151068615016E-01 -2.9770863157355E-01
    27  2.6000000000000E-01  1.0263663861960E+00  2.8848524952296E-01 -3.1574194634903E-01
    28  2.7000000000000E-01  1.0842099623768E+00  3.1533405908102E-01 -3.3223223904183E-01
    29  2.8000000000000E-01  1.1408728361601E+00  3.4167061250596E-01 -3.4679907667649E-01
    30  2.9000000000000E-01  1.1960397493299E+00  3.6710051491290E-01 -3.5906304307264E-01
    31  3.0000000000000E-01  1.2494009372760E+00  3.9123004088604E-01 -3.6865274507132E-01
    32  3.1000000000000E-01  1.3006545731244E+00  4.1367494072635E-01 -3.7521193144432E-01
    33  3.2000000000000E-01  1.3495091920961E+00  4.3406928008004E-01 -3.7840656142527E-01
    34  3.3000000000000E-01  1.3956860595546E+00  4.5207409779219E-01 -3.7793165757594E-01
    35  3.4000000000000E-01  1.4389214463326E+00  4.6738566773658E-01 -3.7351777951586E-01
    36  3.5000000000000E-01  1.4789687758401E+00  4.7974315654654E-01 -3.6493696089412E-01
    37  3.6000000000000E-01  1.5156006091420E+00  4.8893548052217E-01 -3.5200796178590E-01
    38  3.7000000000000E-01  1.5486104366142E+00  4.9480718130426E-01 -3.3460070227807E-01
    39  3.8000000000000E-01  1.5778142479124E+00  4.9726316084389E-01 -3.1263976007334E-01
    40  3.9000000000000E-01  1.6030518557399E+00  4.9627214130880E-01 -2.8610683513716E-01
    41  4.0000000000000E-01  1.6241879532134E+00  4.9186874429577E-01 -2.5504210727933E-01
    42  4.1000000000000E-01  1.6411128894004E+00  4.8415411541033E-01 -2.1954443759305E-01
    43  4.2000000000000E-01  1.6537431527402E+00  4.7329505420359E-01 -1.7977039128513E-01
    44  4.3000000000000E-01  1.6620215574473E+00  4.5952164482797E-01 -1.3593208699895E-01
    45  4.4000000000000E-01  1.6659171335145E+00  4.4312341875573E-01 -8.8293905608495E-02
    46  4.5000000000000E-01  1.6654247264587E+00  4.2444411663589E-01 -3.7168118967444E-02
    47  4.6000000000000E-01  1.6605643183628E+00  4.0387515098327E-01  1.7090474430787E-02
    48  4.7000000000000E-01  1.6513800869388E+00  3.8184790405042E-01  7.4090795149015E-02
    49  4.8000000000000E-01  1.6379392241513E+00  3.5882502511899E-01  1.3341247566773E-01
    50  4.9000000000000E-01  1.6203305402913E+00  3.3529091780607E-01  1.9461344665285E-01
    51  5.0000000000000E-01  1.5986628831688E+00  3.1174163013419E-01  2.5723794671673E-01
    52  5.1000000000000E-01  1.5730634052207E+00  2.8867437747365E-01  3.2082477345726E-01
    53  5.2000000000000E-01  1.5436757137277E+00  2.6657694054977E-01  3.8491558546286E-01
    54  5.3000000000000E-01  1.5106579409417E+00  2.4591718715608E-01  4.4906306134414E-01
    55  5.4000000000000E-01  1.4741807717184E+00  2.2713296679403E-01  5.1283872284753E-01
    56  5.5000000000000E-01  1.4344254661820E+00  2.1062262207530E-01  5.7584023477891E-01
    57  5.6000000000000E-01  1.3915819140525E+00  1.9673634941918E-01  6.3769800474407E-01
    58  5.7000000000000E-01  1.3458467555276E+00  1.8576862454154E-01  6.9808092042856E-01
    59  5.8000000000000E-01  1.2974216010952E+00  1.7795188578830E-01  7.5670108101496E-01
    60  5.9000000000000E-01  1.2465113794003E+00  1.7345164097114E-01  8.1331740197689E-01
    61  6.0000000000000E-01  1.1933228383841E+00  1.7236313160135E-01  8.6773799841582E-01
    62  6.1000000000000E-01  1.1380632204401E+00  1.7470965297598E-01  9.1982128075886E-01
    63  6.2000000000000E-01  1.0809391274026E+00  1.8044259024562E-01  9.6947572736067E-01
    64  6.3000000000000E-01  1.0221555859052E+00  1.8944319024491E-01  1.0166583306613E+00
    65  6.4000000000000E-01  9.6191531815586E-01  2.0152604743313E-01  1.0613717462815E+00
    66  6.5000000000000E-01  9.0041821759288E-01  2.1644424073124E-01  1.1036602070347E+00
    67  6.6000000000000E-01  8.3786102335599E-01  2.3389601734558E-01  1.1436042955125E+00
    68  6.7000000000000E-01  7.7443718215701E-01  2.5353288080765E-01  1.1813146988582E+00
    69  6.8000000000000E-01  7.1033688109927E-01  2.7496890438915E-01  1.2169250968924E+00
    70  6.9000000000000E-01  6.4574723039901E-01  2.9779105866240E-01  1.2505843591265E+00
    71  7.0000000000000E-01  5.8085257092032E-01  3.2157031409641E-01  1.2824482468091E+00
    72  7.1000000000000E-01  5.1583487805062E-01  3.4587325693293E-01  1.3126708324097E+00
    73  7.2000000000000E-01  4.5087423080609E-01  3.7027393979672E-01  1.3413958603833E+00
    74  7.3000000000000E-01  3.8614931323515E-01  3.9436567804243E-01  1.3687482793403E+00
    75  7.4000000000000E-01  3.2183791423774E-01  4.1777249908110E-01  1.3948261765865E+00
    76  7.5000000000000E-01  2.5811739186829E-01  4.4015995505146E-01  1.4196933413059E+00
    77  7.6000000000000E-01  1.9516506905394E-01  4.6124501924961E-01  1.4433726724098E+00
    78  7.7000000000000E-01  1.3315852942318E-01  4.8080480357345E-01  1.4658406314340E+00
    79  7.8000000000000E-01  7.2275784572572E-02  4.9868385760073E-01  1.4870229200529E+00
    80  7.9000000000000E-01  1.2695287544165E-02  5.1479983935320E-01  1.5067915362224E+00
    81  8.0000000000000E-01 -4.5404228529573E-02  5.2914738271945E-01  1.5249633331506E+00
    82  8.1000000000000E-01 -1.0184410282781E-01  5.4180002619206E-01  1.5413001718214E+00
    83  8.2000000000000E-01 -1.5644630114143E-01  5.5291011116817E-01  1.5555107214123E+00
    84  8.3000000000000E-01 -2.0903417714924E-01  5.6270660462338E-01  1.5672539234037E+00
    85  8.4000000000000E-01 -2.5943343970191E-01  5.7149084945482E-01  1.5761440953492E+00
    86  8.5000000000000E-01 -3.0747331897092E-01  5.7963029511542E-01  1.5817576100600E+00
    87  8.6000000000000E-01 -3.5298791816707E-01  5.8755031018866E-01  1.5836410462733E+00
    88  8.7000000000000E-01 -3.9581773155479E-01  5.9572422614701E-01  1.5813206686571E+00
    89  8.8000000000000E-01 -4.3581130383428E-01  6.0466180657100E-01  1.5743130591596E+00
    90  8.9000000000000E-01 -4.7282700077864E-01  6.1489637749492E-01  1.5621366891307E+00
    91  9.0000000000000E-01 -5.0673485643336E-01  6.2697089127816E-01  1.5443241931118E+00
    92  9.1000000000000E-01 -5.3741845833512E-01  6.4142322754917E-01  1.5204350814918E+00
    93  9.2000000000000E-01 -5.6477682919399E-01  6.5877105952833E-01  1.4900686109398E+00
    94  9.3000000000000E-01 -5.8872626139913E-01  6.7949663172580E-01  1.4528765192535E+00
    95  9.4000000000000E-01 -6.0920205962216E-01  7.0403180511148E-01  1.4085753253404E+00
    96  9.5000000000000E-01 -6.2616014675420E-01  7.3274372800709E-01  1.3569578957786E+00
    97  9.6000000000000E-01 -6.3957848944396E-01  7.6592148497308E-01  1.2979039869020E+00
    98  9.7000000000000E-01 -6.4945830160741E-01  8.0376406186000E-01  1.2313894855688E+00
    99  9.8000000000000E-01 -6.5582498742666E-01  8.4636994314389E-01  1.1574940925443E+00
   100  9.9000000000000E-01 -6.5872878949851E-01  8.9372862804327E-01  1.0764072194025E+00
   101  1.0000000000000E+00 -6.5824511285539E-01  9.4571431527233E-01  9.8843190255296E-01
   102  1.0100000000000E+00 -6.5447450146706E-01  1.0020819633266E+00  8.9398657581242E-01
   103  1.0200000000000E+00 -6.4754225042602E-01  1.0624658847795E+00  7.9360458513167E-01
   104  1.0300000000000E+00 -6.3759764418076E-01  1.1263809802260E+00  6.8793137478213E-01
   105  1.0400000000000E+00 -6.2481281876054E-01  1.1932266613463E+00  5.7771932256125E-01
   106  1.0500000000000E+00 -6.0938125377872E-01  1.2622934542197E+00  4.6382025143020E-01
   107  1.0600000000000E+00 -5.9151590791475E-01  1.3327722149169E+00  3.4717569526370E-01
   108  1.0700000000000E+00 -5.7144701940618E-01  1.4037658306833E+00  2.2880504609605E-01