Ag    ONCVPSP-4.0.1  r_core=   1.40440   1.45573   1.60195
     47.0000     19.0000      231019    zatom,zion,pspd
     8       2   2     4   600     0    pspcod,pspxc,lmax,lloc,mmax,r2well
  5.99000000  7.00000000  0.00000000    rchrg fchrg qchrg
     2     2     2     0     0    nproj
     1     1           extension_switch
   0                         9.5453183777096E+00 -3.5022319105400E-01
     1  0.0000000000000E+00  1.4165391082344E-10  1.3505822904492E-08
     2  1.0000000000000E-02  7.8150596208060E-02  4.7329312933642E-02
     3  2.0000000000000E-02  1.5612260896240E-01  9.4636232996937E-02
     4  3.0000000000000E-02  2.3373788280725E-01  1.4189292803665E-01
     5  4.0000000000000E-02  3.1081911876445E-01  1.8906084050676E-01
     6  5.0000000000000E-02  3.8719030373922E-01  2.3608570413241E-01
     7  6.0000000000000E-02  4.6267714122210E-01  2.8289300588367E-01
     8  7.0000000000000E-02  5.3710748354811E-01  3.2938402539401E-01
     9  8.0000000000000E-02  6.1031176583245E-01  3.7543257045266E-01
    10  9.0000000000000E-02  6.8212344153127E-01  4.2088251088916E-01
    11  1.0000000000000E-01  7.5237941937910E-01  4.6554619441599E-01
    12  1.1000000000000E-01  8.2092050123753E-01  5.0920380721810E-01
    13  1.2000000000000E-01  8.8759182015560E-01  5.5160371974077E-01
    14  1.3000000000000E-01  9.5224327769828E-01  5.9246383472770E-01
    15  1.4000000000000E-01  1.0147299793496E+00  6.3147393062430E-01
    16  1.5000000000000E-01  1.0749126665487E+00  6.6829896952366E-01
    17  1.6000000000000E-01  1.1326581436735E+00  7.0258331543390E-01
    18  1.7000000000000E-01  1.1878396980586E+00  7.3395578631463E-01
    19  1.8000000000000E-01  1.2403375109199E+00  7.6203544257398E-01
    20  1.9000000000000E-01  1.2900390568704E+00  7.8643799601075E-01
    21  2.0000000000000E-01  1.3368394895508E+00  8.0678270695931E-01
    22  2.1000000000000E-01  1.3806420107692E+00  8.2269962402653E-01
    23  2.2000000000000E-01  1.4213582204526E+00  8.3383701061590E-01
    24  2.3000000000000E-01  1.4589084446579E+00  8.3986879566237E-01
    25  2.4000000000000E-01  1.4932220388805E+00  8.4050188282641E-01
    26  2.5000000000000E-01  1.5242376639262E+00  8.3548315291107E-01
    27  2.6000000000000E-01  1.5519035316902E+00  8.2460599848570E-01
    28  2.7000000000000E-01  1.5761776183013E+00  8.0771623755898E-01
    29  2.8000000000000E-01  1.5970278422518E+00  7.8471726448873E-01
    30  2.9000000000000E-01  1.6144322053342E+00  7.5557431092708E-01
    31  3.0000000000000E-01  1.6283788944416E+00  7.2031770717079E-01
    32  3.1000000000000E-01  1.6388663425649E+00  6.7904505445676E-01
    33  3.2000000000000E-01  1.6459032476209E+00  6.3192224108183E-01
    34  3.3000000000000E-01  1.6495085480752E+00  5.7918325926049E-01
    35  3.4000000000000E-01  1.6497113546725E+00  5.2112880484171E-01
    36  3.5000000000000E-01  1.6465508379534E+00  4.5812366784746E-01
    37  3.6000000000000E-01  1.6400760716081E+00  3.9059294769702E-01
    38  3.7000000000000E-01  1.6303458320978E+00  3.1901715238179E-01
    39  3.8000000000000E-01  1.6174283553467E+00  2.4392626518456E-01
    40  3.9000000000000E-01  1.6014010516758E+00  1.6589288525515E-01
    41  4.0000000000000E-01  1.5823501805016E+00  8.5524568949795E-02
    42  4.1000000000000E-01  1.5603704866529E+00  3.4555168386563E-03
    43  4.2000000000000E-01  1.5355648004710E+00 -7.9662233723141E-02
    44  4.3000000000000E-01  1.5080436041352E+00 -1.6316793894304E-01
    45  4.4000000000000E-01  1.4779245669011E+00 -2.4640142235989E-01
    46  4.5000000000000E-01  1.4453320521519E+00 -3.2871230841089E-01
    47  4.6000000000000E-01  1.4103965993331E+00 -4.0946903201995E-01
    48  4.7000000000000E-01  1.3732543839736E+00 -4.8806744428518E-01
    49  4.8000000000000E-01  1.3340466590870E+00 -5.6393884215285E-01
    50  4.9000000000000E-01  1.2929191812976E+00 -6.3655726159367E-01
    51  5.0000000000000E-01  1.2500216250450E+00 -7.0544588901281E-01
    52  5.1000000000000E-01  1.2055069881935E+00 -7.7018246412979E-01
    53  5.2000000000000E-01  1.1595309923060E+00 -8.3040356897146E-01
    54  5.3000000000000E-01  1.1122514807465E+00 -8.8580772148606E-01
    55  5.4000000000000E-01  1.0638278176448E+00 -9.3615721810140E-01
    56  5.5000000000000E-01  1.0144202906045E+00 -9.8127869676118E-01
    57  5.6000000000000E-01  9.6418951985784E-01 -1.0210624199942E+00
    58  5.7000000000000E-01  9.1329587638340E-01 -1.0554603057833E+00
    59  5.8000000000000E-01  8.6189891129270E-01 -1.0844827617850E+00
    60  5.9000000000000E-01  8.1015679858648E-01 -1.1081944051905E+00
    61  6.0000000000000E-01  7.5822579316571E-01 -1.1267087755994E+00
    62  6.1000000000000E-01  7.0625970577387E-01 -1.1401821711462E+00
    63  6.2000000000000E-01  6.5440939634476E-01 -1.1488067582240E+00
    64  6.3000000000000E-01  6.0282228703896E-01 -1.1528031220415E+00
    65  6.4000000000000E-01  5.5164189607635E-01 -1.1524124384971E+00
    66  6.5000000000000E-01  5.0100739331463E-01 -1.1478884571443E+00
    67  6.6000000000000E-01  4.5105317838606E-01 -1.1394894900988E+00
    68  6.7000000000000E-01  4.0190848209013E-01 -1.1274706024436E+00
    69  6.8000000000000E-01  3.5369699164746E-01 -1.1120761959636E+00
    70  6.9000000000000E-01  3.0653650035192E-01 -1.0935331699213E+00
    71  7.0000000000000E-01  2.6053858211219E-01 -1.0720448301936E+00
    72  7.1000000000000E-01  2.1580829134952E-01 -1.0477857016692E+00
    73  7.2000000000000E-01  1.7244388871383E-01 -1.0208973786611E+00
    74  7.3000000000000E-01  1.3053659309228E-01 -9.9148552463167E-01
    75  7.4000000000000E-01  9.0170360410158E-02 -9.5961810624672E-01
    76  7.5000000000000E-01  5.1421689759191E-02 -9.2532491820853E-01
    77  7.6000000000000E-01  1.4359457429971E-02 -8.8859842508767E-01
    78  7.7000000000000E-01 -2.0955220532882E-02 -8.4939591512623E-01
    79  7.8000000000000E-01 -5.4469096594876E-02 -8.0764292940420E-01
    80  7.9000000000000E-01 -8.6136870126443E-02 -7.6323789855089E-01
    81  8.0000000000000E-01 -1.1592123522144E-01 -7.1605788903821E-01
    82  8.1000000000000E-01 -1.4379289723135E-01 -6.6596533270879E-01
    83  8.2000000000000E-01 -1.6973055732736E-01 -6.1281558721692E-01
    84  8.3000000000000E-01 -1.9372086444720E-01 -5.5646515211438E-01
    85  8.4000000000000E-01 -2.1575833405670E-01 -4.9678034594902E-01
    86  8.5000000000000E-01 -2.3584523325903E-01 -4.3364623444714E-01
    87  8.6000000000000E-01 -2.5399143191934E-01 -3.6697558902203E-01
    88  8.7000000000000E-01 -2.7021421964077E-01 -2.9671764880289E-01
    89  8.8000000000000E-01 -2.8453808862785E-01 -2.2286645832042E-01
    90  8.9000000000000E-01 -2.9699448270580E-01 -1.4546855702190E-01
    91  9.0000000000000E-01 -3.0762151302612E-01 -6.4629805914353E-02
    92  9.1000000000000E-01 -3.1646364127808E-01  1.9478849263401E-02
    93  9.2000000000000E-01 -3.2357133153834E-01  1.0661686008895E-01
    94  9.3000000000000E-01 -3.2900067222186E-01  1.9647096120475E-01
    95  9.4000000000000E-01 -3.3281296994264E-01  2.8865359099155E-01
    96  9.5000000000000E-01 -3.3507431744492E-01  3.8270294767215E-01
    97  9.6000000000000E-01 -3.3585513811936E-01  4.7808474777891E-01
    98  9.7000000000000E-01 -3.3522970996628E-01  5.7419571816417E-01
    99  9.8000000000000E-01 -3.3327567220280E-01  6.7036881553174E-01
   100  9.9000000000000E-01 -3.3007351802505E-01  7.6588012959652E-01
   101  1.0000000000000E+00 -3.2570607732287E-01  8.5995738824288E-01
   102  1.0100000000000E+00 -3.2025799339613E-01  9.5178994624974E-01
   103  1.0200000000000E+00 -3.1381519793118E-01  1.0405401040834E+00
   104  1.0300000000000E+00 -3.0646438865762E-01  1.1253555707229E+00
   105  1.0400000000000E+00 -2.9829251421335E-01  1.2053828551899E+00
   106  1.0500000000000E+00 -2.8938627079447E-01  1.2797813460706E+00
   107  1.0600000000000E+00 -2.7983161515339E-01  1.3477378174927E+00
   108  1.0700000000000E+00 -2.6971329842907E-01  1.4084810842011E+00
   109  1.0800000000000E+00 -2.5911442514670E-01  1.4612965180370E+00
   110  1.0900000000000E+00 -2.4811604151025E-01  1.5055401335306E+00
   111  1.1000000000000E+00 -2.3679675682913E-01  1.5406519516946E+00
   112  1.1100000000000E+00 -2.2523240157469E-01  1.5661683584681E+00
   113  1.1200000000000E+00 -2.1349572515278E-01  1.5817331876361E+00
   114  1.1300000000000E+00 -2.0165613601423E-01  1.5871072771371E+00
   115  1.1400000000000E+00 -1.8977948620706E-01  1.5821762723152E+00
   116  1.1500000000000E+00 -1.7792790191391E-01  1.5669564792757E+00
   117  1.1600000000000E+00 -1.6615966091862E-01  1.5415986057455E+00
   118  1.1700000000000E+00 -1.5452911732214E-01  1.5063892648097E+00
   119  1.1800000000000E+00 -1.4308667318125E-01  1.4617501582793E+00
   120  1.1900000000000E+00 -1.3187879609497E-01  1.4082348998635E+00
   121  1.2000000000000E+00 -1.2094808111040E-01  1.3465234837100E+00
   122  1.2100000000000E+00 -1.1033335468723E-01  1.2774144494317E+00
   123  1.2200000000000E+00 -1.0006981784567E-01  1.2018148404324E+00
   124  1.2300000000000E+00 -9.0189225046298E-02  1.1207280966142E+00
   125  1.2400000000000E+00 -8.0720094818908E-02  1.0352400647294E+00
   126  1.2500000000000E+00 -7.1687947677703E-02  9.4650334908443E-01
   127  1.2600000000000E+00 -6.3115566447665E-02  8.5572026067121E-01
   128  1.2700000000000E+00 -5.5023273782606E-02  7.6412465390238E-01
   129  1.2800000000000E+00 -4.7429221389986E-02  6.7296296597079E-01
   130  1.2900000000000E+00 -4.0349685295976E-02  5.8347479391237E-01
   131  1.3000000000000E+00 -3.3799361388867E-02  4.9687335843782E-01
   132  1.3100000000000E+00 -2.7791654156113E-02  4.1432624624022E-01
   133  1.3200000000000E+00 -2.2338967535864E-02  3.3693640826145E-01
   134  1.3300000000000E+00 -1.7452922365074E-02  2.6572553866607E-01
   135  1.3400000000000E+00 -1.3145698274995E-02  2.0158818073612E-01
   136  1.3500000000000E+00 -9.4312552621685E-03  1.4524066230916E-01
   137  1.3600000000000E+00 -6.3179708061639E-03  9.7416346755571E-02
   138  1.3700000000000E+00 -3.8145783365256E-03  5.8714688073039E-02
   139  1.3800000000000E+00 -1.9307745399168E-03  2.9580229771155E-02
   140  1.3900000000000E+00 -6.7443815454296E-04  1.0255309921538E-02
   141  1.4000000000000E+00 -7.3894759792524E-05  1.1115230818086E-03
   142  1.4100000000000E+00  8.0160923526699E-06 -1.1980005461050E-04
   143  1.4200000000000E+00 -1.4057165832108E-06  2.1117433197121E-05
   144  1.43 -0.  0.
   145  1.44  0.  0.
   146  1.45  0.  0.
   147  1.46  0.  0.
   148  1.47  0.  0.
   149  1.48  0.  0.
   150  1.49  0.  0.
   151  1.50  0.  0.
   152  1.51  0.  0.
   153  1.52  0.  0.
   154  1.53  0.  0.
   155  1.54  0.  0.
   156  1.55  0.  0.
   157  1.56  0.  0.
   158  1.57  0.  0.
   159  1.58  0.  0.
   160  1.59  0.  0.
   161  1.60  0.  0.
   162  1.61  0.  0.
   163  1.62  0.  0.
   164  1.63  0.  0.
   165  1.64  0.  0.
   166  1.65  0.  0.
   167  1.66  0.  0.
   168  1.67  0.  0.
   169  1.68  0.  0.
   170  1.69  0.  0.
   171  1.70  0.  0.
   172  1.71  0.  0.
   173  1.72  0.  0.
   174  1.73  0.  0.
   175  1.74  0.  0.
   176  1.75  0.  0.
   177  1.76  0.  0.
   178  1.77  0.  0.
   179  1.78  0.  0.
   180  1.79  0.  0.
   181  1.80  0.  0.
   182  1.81  0.  0.
   183  1.82  0.  0.
   184  1.83  0.  0.
   185  1.84  0.  0.
   186  1.85  0.  0.
   187  1.86  0.  0.
   188  1.87  0.  0.
   189  1.88  0.  0.
   190  1.89  0.  0.
   191  1.90  0.  0.
   192  1.91  0.  0.
   193  1.92  0.  0.
   194  1.93  0.  0.
   195  1.94  0.  0.
   196  1.95  0.  0.
   197  1.96  0.  0.
   198  1.97  0.  0.
   199  1.98  0.  0.
   200  1.99  0.  0.
   201  2.00  0.  0.
   202  2.01  0.  0.
   203  2.02  0.  0.
   204  2.03  0.  0.
   205  2.04  0.  0.
   206  2.05  0.  0.
   207  2.06  0.  0.
   208  2.07  0.  0.
   209  2.08  0.  0.
   210  2.09  0.  0.
   211  2.10  0.  0.
   212  2.11  0.  0.
   213  2.12  0.  0.
   214  2.13  0.  0.
   215  2.14  0.  0.
   216  2.15  0.  0.
   217  2.16  0.  0.
   218  2.17  0.  0.
   219  2.18  0.  0.
   220  2.19  0.  0.
   221  2.20  0.  0.
   222  2.21  0.  0.
   223  2.22  0.  0.
   224  2.23  0.  0.
   225  2.24  0.  0.
   226  2.25  0.  0.
   227  2.26  0.  0.
   228  2.27  0.  0.
   229  2.28  0.  0.
   230  2.29  0.  0.
   231  2.30  0.  0.
   232  2.31  0.  0.
   233  2.32  0.  0.
   234  2.33  0.  0.
   235  2.34  0.  0.
   236  2.35  0.  0.
   237  2.36  0.  0.
   238  2.37  0.  0.
   239  2.38  0.  0.
   240  2.39  0.  0.
   241  2.40  0.  0.
   242  2.41  0.  0.
   243  2.42  0.  0.
   244  2.43  0.  0.
   245  2.44  0.  0.
   246  2.45  0.  0.
   247  2.46  0.  0.
   248  2.47  0.  0.
   249  2.48  0.  0.
   250  2.49  0.  0.
   251  2.50  0.  0.
   252  2.51  0.  0.
   253  2.52  0.  0.
   254  2.53  0.  0.
   255  2.54  0.  0.
   256  2.55  0.  0.
   257  2.56  0.  0.
   258  2.57  0.  0.
   259  2.58  0.  0.
   260  2.59  0.  0.
   261  2.60  0.  0.
   262  2.61  0.  0.
   263  2.62  0.  0.
   264  2.63  0.  0.
   265  2.64  0.  0.
   266  2.65  0.  0.
   267  2.66  0.  0.
   268  2.67  0.  0.
   269  2.68  0.  0.
   270  2.69  0.  0.
   271  2.70  0.  0.
   272  2.71  0.  0.
   273  2.72  0.  0.
   274  2.73  0.  0.
   275  2.74  0.  0.
   276  2.75  0.  0.
   277  2.76  0.  0.
   278  2.77  0.  0.
   279  2.78  0.  0.
   280  2.79  0.  0.
   281  2.80  0.  0.
   282  2.81  0.  0.
   283  2.82  0.  0.
   284  2.83  0.  0.
   285  2.84  0.  0.
   286  2.85  0.  0.
   287  2.86  0.  0.
   288  2.87  0.  0.
   289  2.88  0.  0.
   290  2.89  0.  0.
   291  2.90  0.  0.
   292  2.91  0.  0.
   293  2.92  0.  0.
   294  2.93  0.  0.
   295  2.94  0.  0.
   296  2.95  0.  0.
   297  2.96  0.  0.
   298  2.97  0.  0.
   299  2.98  0.  0.
   300  2.99  0.  0.
   301  3.00  0.  0.
   302  3.01  0.  0.
   303  3.02  0.  0.
   304  3.03  0.  0.
   305  3.04  0.  0.
   306  3.05  0.  0.
   307  3.06  0.  0.
   308  3.07  0.  0.
   309  3.08  0.  0.
   310  3.09  0.  0.
   311  3.10  0.  0.
   312  3.11  0.  0.
   313  3.12  0.  0.
   314  3.13  0.  0.
   315  3.14  0.  0.
   316  3.15  0.  0.
   317  3.16  0.  0.
   318  3.17  0.  0.
   319  3.18  0.  0.
   320  3.19  0.  0.
   321  3.20  0.  0.
   322  3.21  0.  0.
   323  3.22  0.  0.
   324  3.23  0.  0.
   325  3.24  0.  0.
   326  3.25  0.  0.
   327  3.26  0.  0.
   328  3.27  0.  0.
   329  3.28  0.  0.
   330  3.29  0.  0.
   331  3.30  0.  0.
   332  3.31  0.  0.
   333  3.32  0.  0.
   334  3.33  0.  0.
   335  3.34  0.  0.
   336  3.35  0.  0.
   337  3.36  0.  0.
   338  3.37  0.  0.
   339  3.38  0.  0.
   340  3.39  0.  0.
   341  3.40  0.  0.
   342  3.41  0.  0.
   343  3.42  0.  0.
   344  3.43  0.  0.
   345  3.44  0.  0.
   346  3.45  0.  0.
   347  3.46  0.  0.
   348  3.47  0.  0.
   349  3.48  0.  0.
   350  3.49  0.  0.
   351  3.50  0.  0.
   352  3.51  0.  0.
   353  3.52  0.  0.
   354  3.53  0.  0.
   355  3.54  0.  0.
   356  3.55  0.  0.
   357  3.56  0.  0.
   358  3.57  0.  0.
   359  3.58  0.  0.
   360  3.59  0.  0.
   361  3.60  0.  0.
   362  3.61  0.  0.
   363  3.62  0.  0.
   364  3.63  0.  0.
   365  3.64  0.  0.
   366  3.65  0.  0.
   367  3.66  0.  0.
   368  3.67  0.  0.
   369  3.68  0.  0.
   370  3.69  0.  0.
   371  3.70  0.  0.
   372  3.71  0.  0.
   373  3.72  0.  0.
   374  3.73  0.  0.
   375  3.74  0.  0.
   376  3.75  0.  0.
   377  3.76  0.  0.
   378  3.77  0.  0.
   379  3.78  0.  0.
   380  3.79  0.  0.
   381  3.80  0.  0.
   382  3.81  0.  0.
   383  3.82  0.  0.
   384  3.83  0.  0.
   385  3.84  0.  0.
   386  3.85  0.  0.
   387  3.86  0.  0.
   388  3.87  0.  0.
   389  3.88  0.  0.
   390  3.89  0.  0.
   391  3.90  0.  0.
   392  3.91  0.  0.
   393  3.92  0.  0.
   394  3.93  0.  0.
   395  3.94  0.  0.
   396  3.95  0.  0.
   397  3.96  0.  0.
   398  3.97  0.  0.
   399  3.98  0.  0.
   400  3.99  0.  0.
   401  4.00  0.  0.
   402  4.01  0.  0.
   403  4.02  0.  0.
   404  4.03  0.  0.
   405  4.04  0.  0.
   406  4.05  0.  0.
   407  4.06  0.  0.
   408  4.07  0.  0.
   409  4.08  0.  0.
   410  4.09  0.  0.
   411  4.10  0.  0.
   412  4.11  0.  0.
   413  4.12  0.  0.
   414  4.13  0.  0.
   415  4.14  0.  0.
   416  4.15  0.  0.
   417  4.16  0.  0.
   418  4.17  0.  0.
   419  4.18  0.  0.
   420  4.19  0.  0.
   421  4.20  0.  0.
   422  4.21  0.  0.
   423  4.22  0.  0.
   424  4.23  0.  0.
   425  4.24  0.  0.
   426  4.25  0.  0.
   427  4.26  0.  0.
   428  4.27  0.  0.
   429  4.28  0.  0.
   430  4.29  0.  0.
   431  4.30  0.  0.
   432  4.31  0.  0.
   433  4.32  0.  0.
   434  4.33  0.  0.
   435  4.34  0.  0.
   436  4.35  0.  0.
   437  4.36  0.  0.
   438  4.37  0.  0.
   439  4.38  0.  0.
   440  4.39  0.  0.
   441  4.40  0.  0.
   442  4.41  0.  0.
   443  4.42  0.  0.
   444  4.43  0.  0.
   445  4.44  0.  0.
   446  4.45  0.  0.
   447  4.46  0.  0.
   448  4.47  0.  0.
   449  4.48  0.  0.
   450  4.49  0.  0.
   451  4.50  0.  0.
   452  4.51  0.  0.
   453  4.52  0.  0.
   454  4.53  0.  0.
   455  4.54  0.  0.
   456  4.55  0.  0.
   457  4.56  0.  0.
   458  4.57  0.  0.
   459  4.58  0.  0.
   460  4.59  0.  0.
   461  4.60  0.  0.
   462  4.61  0.  0.
   463  4.62  0.  0.
   464  4.63  0.  0.
   465  4.64  0.  0.
   466  4.65  0.  0.
   467  4.66  0.  0.
   468  4.67  0.  0.
   469  4.68  0.  0.
   470  4.69  0.  0.
   471  4.70  0.  0.
   472  4.71  0.  0.
   473  4.72  0.  0.
   474  4.73  0.  0.
   475  4.74  0.  0.
   476  4.75  0.  0.
   477  4.76  0.  0.
   478  4.77  0.  0.
   479  4.78  0.  0.
   480  4.79  0.  0.
   481  4.80  0.  0.
   482  4.81  0.  0.
   483  4.82  0.  0.
   484  4.83  0.  0.
   485  4.84  0.  0.
   486  4.85  0.  0.
   487  4.86  0.  0.
   488  4.87  0.  0.
   489  4.88  0.  0.
   490  4.89  0.  0.
   491  4.90  0.  0.
   492  4.91  0.  0.
   493  4.92  0.  0.
   494  4.93  0.  0.
   495  4.94  0.  0.
   496  4.95  0.  0.
   497  4.96  0.  0.
   498  4.97  0.  0.
   499  4.98  0.  0.
   500  4.99  0.  0.
   501  5.00  0.  0.
   502  5.01  0.  0.
   503  5.02  0.  0.
   504  5.03  0.  0.
   505  5.04  0.  0.
   506  5.05  0.  0.
   507  5.06  0.  0.
   508  5.07  0.  0.
   509  5.08  0.  0.
   510  5.09  0.  0.
   511  5.10  0.  0.
   512  5.11  0.  0.
   513  5.12  0.  0.
   514  5.13  0.  0.
   515  5.14  0.  0.
   516  5.15  0.  0.
   517  5.16  0.  0.
   518  5.17  0.  0.
   519  5.18  0.  0.
   520  5.19  0.  0.
   521  5.20  0.  0.
   522  5.21  0.  0.
   523  5.22  0.  0.
   524  5.23  0.  0.
   525  5.24  0.  0.
   526  5.25  0.  0.
   527  5.26  0.  0.
   528  5.27  0.  0.
   529  5.28  0.  0.
   530  5.29  0.  0.
   531  5.30  0.  0.
   532  5.31  0.  0.
   533  5.32  0.  0.
   534  5.33  0.  0.
   535  5.34  0.  0.
   536  5.35  0.  0.
   537  5.36  0.  0.
   538  5.37  0.  0.
   539  5.38  0.  0.
   540  5.39  0.  0.
   541  5.40  0.  0.
   542  5.41  0.  0.
   543  5.42  0.  0.
   544  5.43  0.  0.
   545  5.44  0.  0.
   546  5.45  0.  0.
   547  5.46  0.  0.
   548  5.47  0.  0.
   549  5.48  0.  0.
   550  5.49  0.  0.
   551  5.50  0.  0.
   552  5.51  0.  0.
   553  5.52  0.  0.
   554  5.53  0.  0.
   555  5.54  0.  0.
   556  5.55  0.  0.
   557  5.56  0.  0.
   558  5.57  0.  0.
   559  5.58  0.  0.
   560  5.59  0.  0.
   561  5.60  0.  0.
   562  5.61  0.  0.
   563  5.62  0.  0.
   564  5.63  0.  0.
   565  5.64  0.  0.
   566  5.65  0.  0.
   567  5.66  0.  0.
   568  5.67  0.  0.
   569  5.68  0.  0.
   570  5.69  0.  0.
   571  5.70  0.  0.
   572  5.71  0.  0.
   573  5.72  0.  0.
   574  5.73  0.  0.
   575  5.74  0.  0.
   576  5.75  0.  0.
   577  5.76  0.  0.
   578  5.77  0.  0.
   579  5.78  0.  0.
   580  5.79  0.  0.
   581  5.80  0.  0.
   582  5.81  0.  0.
   583  5.82  0.  0.
   584  5.83  0.  0.
   585  5.84  0.  0.
   586  5.85  0.  0.
   587  5.86  0.  0.
   588  5.87  0.  0.
   589  5.88  0.  0.
   590  5.89  0.  0.
   591  5.90  0.  0.
   592  5.91  0.  0.
   593  5.92  0.  0.
   594  5.93  0.  0.
   595  5.94  0.  0.
   596  5.95  0.  0.
   597  5.96  0.  0.
   598  5.97  0.  0.
   599  5.98  0.  0.
   600  5.99  0.  0.
   1                         3.4484785353432E+00 -1.2233400529739E-01
     1  0.0000000000000E+00 -3.3022466983113E-09 -2.4157890714770E-08
     2  1.0000000000000E-02  1.9077716291631E-03 -3.9038216558766E-05
     3  2.0000000000000E-02  7.6247458456542E-03 -1.3881007441373E-04
     4  3.0000000000000E-02  1.7131855977802E-02 -2.4784761051746E-04
     5  4.0000000000000E-02  3.0397177456568E-02 -2.8222393886146E-04
     6  5.0000000000000E-02  4.7375714863855E-02 -1.2828074235455E-04
     7  6.0000000000000E-02  6.8009118048150E-02  3.5365607092175E-04
     8  7.0000000000000E-02  9.2225341099996E-02  1.3246722846001E-03
     9  8.0000000000000E-02  1.1993826128201E-01  2.9618967594668E-03
    10  9.0000000000000E-02  1.5104727785310E-01  5.4525132332020E-03
    11  1.0000000000000E-01  1.8543691303512E-01  8.9873148864126E-03
    12  1.1000000000000E-01  2.2297643907760E-01  1.3753977344350E-02
    13  1.2000000000000E-01  2.6351955643066E-01  1.9930234665074E-02
    14  1.3000000000000E-01  3.0690414840330E-01  2.7677147069787E-02
    15  1.4000000000000E-01  3.5295213734566E-01  3.7132648575059E-02
    16  1.5000000000000E-01  4.0146946634835E-01  4.8405557280419E-02
    17  1.6000000000000E-01  4.5224622871620E-01  6.1570220957878E-02
    18  1.7000000000000E-01  5.0505696508186E-01  7.6661956006640E-02
    19  1.8000000000000E-01  5.5966114502559E-01  9.3673419112200E-02
    20  1.9000000000000E-01  6.1580384652778E-01  1.1255202852292E-01
    21  2.0000000000000E-01  6.7321664257828E-01  1.3319852625900E-01
    22  2.1000000000000E-01  7.3161869989329E-01  1.5546674441182E-01
    23  2.2000000000000E-01  7.9071809004717E-01  1.7916460865257E-01
    24  2.3000000000000E-01  8.5021330852166E-01  2.0405638087842E-01
    25  2.4000000000000E-01  9.0979499232207E-01  2.2986611134075E-01
    26  2.5000000000000E-01  9.6914782202547E-01  2.5628223940328E-01
    27  2.6000000000000E-01  1.0279525895251E+00  2.8296325203829E-01
    28  2.7000000000000E-01  1.0858884084305E+00  3.0954428103962E-01
    29  2.8000000000000E-01  1.1426350401813E+00  3.3564449442101E-01
    30  2.9000000000000E-01  1.1978753055333E+00  3.6087511523072E-01
    31  3.0000000000000E-01  1.2512975482620E+00  3.8484788262818E-01
    32  3.1000000000000E-01  1.3025981157848E+00  4.0718375602554E-01
    33  3.2000000000000E-01  1.3514838199757E+00  4.2752165378592E-01
    34  3.3000000000000E-01  1.3976743407915E+00  4.4552701367330E-01
    35  3.4000000000000E-01  1.4409045354649E+00  4.6089996312197E-01
    36  3.5000000000000E-01  1.4809266169563E+00  4.7338289347852E-01
    37  3.6000000000000E-01  1.5175121670863E+00  4.8276724357504E-01
    38  3.7000000000000E-01  1.5504539522573E+00  4.8889931410766E-01
    39  3.8000000000000E-01  1.5795675128781E+00  4.9168495498454E-01
    40  3.9000000000000E-01  1.6046925014581E+00  4.9109299262923E-01
    41  4.0000000000000E-01  1.6256937487589E+00  4.8715729262176E-01
    42  4.1000000000000E-01  1.6424620422925E+00  4.7997738439309E-01
    43  4.2000000000000E-01  1.6549146067231E+00  4.6971760823522E-01
    44  4.3000000000000E-01  1.6629952812550E+00  4.5660477986667E-01
    45  4.4000000000000E-01  1.6666743947463E+00  4.4092440337695E-01
    46  4.5000000000000E-01  1.6659483449533E+00  4.2301549871336E-01
    47  4.6000000000000E-01  1.6608388938554E+00  4.0326414411512E-01
    48  4.7000000000000E-01  1.6513921963058E+00  3.8209586620540E-01
    49  4.8000000000000E-01  1.6376775841885E+00  3.5996704001994E-01
    50  4.9000000000000E-01  1.6197861327091E+00  3.3735548733395E-01
    51  5.0000000000000E-01  1.5978290393160E+00  3.1475048357631E-01
    52  5.1000000000000E-01  1.5719358489413E+00  2.9264240080871E-01
    53  5.2000000000000E-01  1.5422525616940E+00  2.7151222622093E-01
    54  5.3000000000000E-01  1.5089396607776E+00  2.5182120199649E-01
    55  5.4000000000000E-01  1.4721700991874E+00  2.3400083300117E-01
    56  5.5000000000000E-01  1.4321272836695E+00  2.1844350345078E-01
    57  5.6000000000000E-01  1.3890030934696E+00  2.0549393256224E-01
    58  5.7000000000000E-01  1.3429959696067E+00  1.9544168237376E-01
    59  5.8000000000000E-01  1.2943091077970E+00  1.8851490874985E-01
    60  5.9000000000000E-01  1.2431487847991E+00  1.8487551952145E-01
    61  6.0000000000000E-01  1.1897228439225E+00  1.8461587232416E-01
    62  6.1000000000000E-01  1.1342393608318E+00  1.8775710966987E-01
    63  6.2000000000000E-01  1.0769055057018E+00  1.9424919090421E-01
    64  6.3000000000000E-01  1.0179266123455E+00  2.0397264081615E-01
    65  6.4000000000000E-01  9.5750545928726E-01  2.1674199370158E-01
    66  6.5000000000000E-01  8.9584176200993E-01  2.3231087058947E-01
    67  6.6000000000000E-01  8.3313186991923E-01  2.5037858709531E-01
    68  6.7000000000000E-01  7.6956865606881E-01  2.7059815093490E-01
    69  6.8000000000000E-01  7.0534158251593E-01  2.9258547245218E-01
    70  6.9000000000000E-01  6.4063691945737E-01  3.1592957947414E-01
    71  7.0000000000000E-01  5.7563809214643E-01  3.4020360021607E-01
    72  7.1000000000000E-01  5.1052612612140E-01  3.6497625554610E-01
    73  7.2000000000000E-01  4.4548015857351E-01  3.8982358528485E-01
    74  7.3000000000000E-01  3.8067798182253E-01  4.1434062285255E-01
    75  7.4000000000000E-01  3.1629658390331E-01  4.3815272882221E-01
    76  7.5000000000000E-01  2.5251265123078E-01  4.6092629698927E-01
    77  7.6000000000000E-01  1.8950299921324E-01  4.8237855646379E-01
    78  7.7000000000000E-01  1.2744489851416E-01  5.0228620990731E-01
    79  7.8000000000000E-01  6.6516267385718E-02  5.2049267109572E-01
    80  7.9000000000000E-01  6.8957040568353E-03  5.3691369405307E-01
    81  8.0000000000000E-01 -5.1237662521744E-02  5.5154122049269E-01
    82  8.1000000000000E-01 -1.0770452029066E-01  5.6444531150061E-01
    83  8.2000000000000E-01 -1.6232593123625E-01  5.7577407246899E-01
    84  8.3000000000000E-01 -2.1492410331626E-01  5.8575152629153E-01
    85  8.4000000000000E-01 -2.6532337615322E-01  5.9467343775071E-01
    86  8.5000000000000E-01 -3.1335141312753E-01  6.0290114077366E-01
    87  8.6000000000000E-01 -3.5884058616059E-01  6.1085346869532E-01
    88  8.7000000000000E-01 -4.0162953331705E-01  6.1899693471373E-01
    89  8.8000000000000E-01 -4.4156486352835E-01  6.2783435424436E-01
    90  8.9000000000000E-01 -4.7850297739644E-01  6.3789214180632E-01
    91  9.0000000000000E-01 -5.1231196831631E-01  6.4970655139931E-01
    92  9.1000000000000E-01 -5.4287356418817E-01  6.6380916014185E-01
    93  9.2000000000000E-01 -5.7008506688300E-01  6.8071191944308E-01
    94  9.3000000000000E-01 -5.9386124447654E-01  7.0089211549671E-01
    95  9.4000000000000E-01 -6.1413613014443E-01  7.2477759090668E-01
    96  9.5000000000000E-01 -6.3086468156818E-01  7.5273258142087E-01
    97  9.6000000000000E-01 -6.4402425576011E-01  7.8504451588139E-01
    98  9.7000000000000E-01 -6.5361585637625E-01  8.2191211360546E-01
    99  9.8000000000000E-01 -6.5966511382353E-01  8.6343509165939E-01
   100  9.9000000000000E-01 -6.6222296272842E-01  9.0960576525547E-01
   101  1.0000000000000E+00 -6.6136598654262E-01  9.6030278832823E-01
   102  1.0100000000000E+00 -6.5719640511792E-01  1.0152872389302E+00
   103  1.0200000000000E+00 -6.4984168786787E-01  1.0742012062744E+00
   104  1.0300000000000E+00 -6.3945378250423E-01  1.1365689840615E+00
   105  1.0400000000000E+00 -6.2620795713682E-01  1.2018009192571E+00
   106  1.0500000000000E+00 -6.1030126159831E-01  1.2691999078505E+00
   107  1.0600000000000E+00 -5.9195062200108E-01  1.3379704707468E+00
   108  1.0700000000000E+00 -5.7139059059454E-01  1.4072302849286E+00
   109  1.0800000000000E+00 -5.4887078077358E-01  1.4760239887623E+00
   110  1.0900000000000E+00 -5.2465302439937E-01  1.5433390271810E+00
   111  1.1000000000000E+00 -4.9900829530001E-01  1.6081232533948E+00
   112  1.1100000000000E+00 -4.7221344870266E-01  1.6693039603224E+00
   113  1.1200000000000E+00 -4.4454783132656E-01  1.7258079776944E+00
   114  1.1300000000000E+00 -4.1628982075640E-01  1.7765824410621E+00
   115  1.1400000000000E+00 -3.8771335545508E-01  1.8206158172027E+00
   116  1.1500000000000E+00 -3.5908451825438E-01  1.8569587574409E+00
   117  1.1600000000000E+00 -3.3065823634344E-01  1.8847443464938E+00
   118  1.1700000000000E+00 -3.0267515963009E-01  1.9032073198133E+00
   119  1.1800000000000E+00 -2.7535877686547E-01  1.9117018371584E+00
   120  1.1900000000000E+00 -2.4891282517306E-01  1.9097174237931E+00
   121  1.2000000000000E+00 -2.2351904359536E-01  1.8968927233611E+00
   122  1.2100000000000E+00 -1.9933531515703E-01  1.8730267468557E+00
   123  1.2200000000000E+00 -1.7649423474613E-01  1.8380873501362E+00
   124  1.2300000000000E+00 -1.5510213205793E-01  1.7922167266246E+00
   125  1.2400000000000E+00 -1.3523857007193E-01  1.7357337611609E+00
   126  1.2500000000000E+00 -1.1695633014972E-01  1.6691331547514E+00
   127  1.2600000000000E+00 -1.0028188517434E-01  1.5930812958756E+00
   128  1.2700000000000E+00 -8.5216352270111E-02  1.5084089216291E+00
   129  1.2800000000000E+00 -7.1736906813004E-02  1.4161006794265E+00
   130  1.2900000000000E+00 -5.9798629909983E-02  1.3172817655670E+00
   131  1.3000000000000E+00 -4.9336752404674E-02  1.2132018798837E+00
   132  1.3100000000000E+00 -4.0269250021093E-02  1.1052167941178E+00
   133  1.3200000000000E+00 -3.2499736664989E-02  9.9476788433334E-01
   134  1.3300000000000E+00 -2.5920596304707E-02  8.8336002363046E-01
   135  1.3400000000000E+00 -2.0416288396803E-02  7.7253826960209E-01
   136  1.3500000000000E+00 -1.5866757671641E-02  6.6386381025103E-01
   137  1.3600000000000E+00 -1.2150868574239E-02  5.5888967504047E-01
   138  1.3700000000000E+00 -9.1498610583959E-03  4.5913649914258E-01
   139  1.3800000000000E+00 -6.7504561861156E-03  3.6606971584725E-01
   140  1.3900000000000E+00 -4.8556811471856E-03  2.8105424445323E-01
   141  1.4000000000000E+00 -3.3877020614173E-03  2.0533045373848E-01