K     ONCVPSP-4.0.1  r_core=   1.35007   1.45055   1.60582
     19.0000      9.0000      250217    zatom,zion,pspd
     8       2   2     4   400     0    pspcod,pspxc,lmax,lloc,mmax,r2well
  3.99000000  5.00000000  0.00000000    rchrg fchrg qchrg
     2     2     2     0    nproj
     3     1           extension_switch
     3     4     0    nprojso
   0                         1.1084498457896E+01  8.4956857614729E-01
     1  0.0000000000000E+00 -2.4693097566697E-09  1.2661808657111E-08
     2  1.0000000000000E-02  6.0825216041039E-02 -4.6800809677573E-02
     3  2.0000000000000E-02  1.2151839669708E-01 -9.3186325994189E-02
     4  3.0000000000000E-02  1.8194880269957E-01 -1.3874830758152E-01
     5  4.0000000000000E-02  2.4198825854515E-01 -1.8309246486399E-01
     6  5.0000000000000E-02  3.0151236386218E-01 -2.2584505881906E-01
     7  6.0000000000000E-02  3.6040162197283E-01 -2.6665905646773E-01
     8  7.0000000000000E-02  4.1854246102993E-01 -3.0521971061097E-01
     9  8.0000000000000E-02  4.7582812557756E-01 -3.4124944398964E-01
    10  9.0000000000000E-02  5.3215941936555E-01 -3.7451193334719E-01
    11  1.0000000000000E-01  5.8744528367540E-01 -4.0481530648319E-01
    12  1.1000000000000E-01  6.4160319921092E-01 -4.3201438491728E-01
    13  1.2000000000000E-01  6.9455940368698E-01 -4.5601192581108E-01
    14  1.3000000000000E-01  7.4624892152149E-01 -4.7675883886149E-01
    15  1.4000000000000E-01  7.9661540640420E-01 -4.9425337649959E-01
    16  1.5000000000000E-01  8.4561080188187E-01 -5.0853931841046E-01
    17  1.6000000000000E-01  8.9319482936440E-01 -5.1970319363418E-01
    18  1.7000000000000E-01  9.3933431702422E-01 -5.2787060482796E-01
    19  1.8000000000000E-01  9.8400238683871E-01 -5.3320173919609E-01
    20  1.9000000000000E-01  1.0271775204262E+00 -5.3588616868868E-01
    21  2.0000000000000E-01  1.0688425272725E+00 -5.3613705793194E-01
    22  2.1000000000000E-01  1.1089834413678E+00 -5.3418491163075E-01
    23  2.2000000000000E-01  1.1475883741155E+00 -5.3027100358162E-01
    24  2.3000000000000E-01  1.1846463525934E+00 -5.2464063671795E-01
    25  2.4000000000000E-01  1.2201461728096E+00 -5.1753638761164E-01
    26  2.5000000000000E-01  1.2540752974850E+00 -5.0919148948335E-01
    27  2.6000000000000E-01  1.2864188271138E+00 -4.9982350500323E-01
    28  2.7000000000000E-01  1.3171585716110E+00 -4.8962843405013E-01
    29  2.8000000000000E-01  1.3462722477826E+00 -4.7877539226516E-01
    30  2.9000000000000E-01  1.3737328251944E+00 -4.6740198388065E-01
    31  3.0000000000000E-01  1.3995080398199E+00 -4.5561047719377E-01
    32  3.1000000000000E-01  1.4235600911918E+00 -4.4346487350654E-01
    33  3.2000000000000E-01  1.4458455347334E+00 -4.3098894075332E-01
    34  3.3000000000000E-01  1.4663153766051E+00 -4.1816526180213E-01
    35  3.4000000000000E-01  1.4849153738549E+00 -4.0493532501549E-01
    36  3.5000000000000E-01  1.5015865380058E+00 -3.9120066157173E-01
    37  3.6000000000000E-01  1.5162658355646E+00 -3.7682501078879E-01
    38  3.7000000000000E-01  1.5288870743816E+00 -3.6163747176547E-01
    39  3.8000000000000E-01  1.5393819604421E+00 -3.4543657756762E-01
    40  3.9000000000000E-01  1.5476813056215E+00 -3.2799520742132E-01
    41  4.0000000000000E-01  1.5537163632800E+00 -3.0906623339691E-01
    42  4.1000000000000E-01  1.5574202653884E+00 -2.8838878129129E-01
    43  4.2000000000000E-01  1.5587295322429E+00 -2.6569497122251E-01
    44  4.3000000000000E-01  1.5575856238032E+00 -2.4071699215211E-01
    45  4.4000000000000E-01  1.5539365003176E+00 -2.1319435640647E-01
    46  4.5000000000000E-01  1.5477381592261E+00 -1.8288117546454E-01
    47  4.6000000000000E-01  1.5389561153631E+00 -1.4955329692666E-01
    48  4.7000000000000E-01  1.5275667922320E+00 -1.1301514471989E-01
    49  4.8000000000000E-01  1.5135587935702E+00 -7.3106110185742E-02
    50  4.9000000000000E-01  1.4969340265439E+00 -2.9706350623391E-02
    51  5.0000000000000E-01  1.4777086506628E+00  1.7258136063631E-02
    52  5.1000000000000E-01  1.4559138298270E+00  6.7811277008247E-02
    53  5.2000000000000E-01  1.4315962687427E+00  1.2192362917372E-01
    54  5.3000000000000E-01  1.4048185191864E+00  1.7951010245781E-01
    55  5.4000000000000E-01  1.3756590461746E+00  2.4042875880363E-01
    56  5.5000000000000E-01  1.3442120488950E+00  3.0448072226938E-01
    57  5.6000000000000E-01  1.3105870361916E+00  3.7141121148110E-01
    58  5.7000000000000E-01  1.2749081613390E+00  4.4091168209502E-01
    59  5.8000000000000E-01  1.2373133257078E+00  5.1262304335691E-01
    60  5.9000000000000E-01  1.1979530655806E+00  5.8613989007649E-01
    61  6.0000000000000E-01  1.1569892407524E+00  6.6101566984461E-01
    62  6.1000000000000E-01  1.1145935475148E+00  7.3676868557450E-01
    63  6.2000000000000E-01  1.0709458821222E+00  8.1288881588794E-01
    64  6.3000000000000E-01  1.0262325837693E+00  8.8884482087228E-01
    65  6.4000000000000E-01  9.8064458842469E-01  9.6409208863663E-01
    66  6.5000000000000E-01  9.3437552650584E-01  1.0380806691579E+00
    67  6.6000000000000E-01  8.8761979831524E-01  1.1102634363200E+00
    68  6.7000000000000E-01  8.4057066136535E-01  1.1801042169328E+00
    69  6.8000000000000E-01  7.9341836319663E-01  1.2470857269065E+00
    70  6.9000000000000E-01  7.4634835205460E-01  1.3107171596134E+00
    71  7.0000000000000E-01  6.9953959586552E-01  1.3705412796735E+00
    72  7.1000000000000E-01  6.5316303738246E-01  1.4261408867588E+00
    73  7.2000000000000E-01  6.0738021022377E-01  1.4771445282569E+00
    74  7.3000000000000E-01  5.6234203686626E-01  1.5232313564356E+00
    75  7.4000000000000E-01  5.1818782557180E-01  1.5641350447267E+00
    76  7.5000000000000E-01  4.7504447881068E-01  1.5996466984429E+00
    77  7.6000000000000E-01  4.3302592110180E-01  1.6296167172068E+00
    78  7.7000000000000E-01  3.9223274942269E-01  1.6539555890752E+00
    79  7.8000000000000E-01  3.5275210456355E-01  1.6726336192860E+00
    80  7.9000000000000E-01  3.1465775711653E-01  1.6856796192041E+00
    81  8.0000000000000E-01  2.7801039731262E-01  1.6931786028803E+00
    82  8.1000000000000E-01  2.4285811374554E-01  1.6952685591776E+00
    83  8.2000000000000E-01  2.0923704225051E-01  1.6921363861838E+00
    84  8.3000000000000E-01  1.7717216292077E-01  1.6840130912050E+00
    85  8.4000000000000E-01  1.4667822052064E-01  1.6711683736519E+00
    86  8.5000000000000E-01  1.1776074145169E-01  1.6539047192694E+00
    87  8.6000000000000E-01  9.0417118993678E-02  1.6325511421931E+00
    88  8.7000000000000E-01  6.4637737806383E-02  1.6074567160628E+00
    89  8.8000000000000E-01  4.0407108653942E-02  1.5789840367960E+00
    90  8.9000000000000E-01  1.7704984999447E-02  1.5475027576164E+00
    91  9.0000000000000E-01 -3.4925655072017E-03  1.5133833316011E+00
    92  9.1000000000000E-01 -2.3212159595587E-02  1.4769910885090E+00
    93  9.2000000000000E-01 -4.1482189310291E-02  1.4386807611991E+00
    94  9.3000000000000E-01 -5.8332024461375E-02  1.3987915628226E+00
    95  9.4000000000000E-01 -7.3791342107075E-02  1.3576428995400E+00
    96  9.5000000000000E-01 -8.7889594587797E-02  1.3155307851632E+00
    97  9.6000000000000E-01 -1.0065562335960E-01  1.2727250043074E+00
    98  9.7000000000000E-01 -1.1211742143705E-01  1.2294670498420E+00
    99  9.8000000000000E-01 -1.2230204275571E-01  1.1859688391432E+00
   100  9.9000000000000E-01 -1.3123565231635E-01  1.1424121924053E+00
   101  1.0000000000000E+00 -1.3894370667853E-01  1.0989490355420E+00
   102  1.0100000000000E+00 -1.4545125034064E-01  1.0557022705295E+00
   103  1.0200000000000E+00 -1.5078330987159E-01  1.0127672378568E+00
   104  1.0300000000000E+00 -1.5496536443387E-01  9.7021367948373E-01
   105  1.0400000000000E+00 -1.5802386863931E-01  9.2808809675681E-01
   106  1.0500000000000E+00 -1.5998680157262E-01  8.8641638641844E-01
   107  1.0600000000000E+00 -1.6088421435217E-01  8.4520662941045E-01
   108  1.0700000000000E+00 -1.6074874781235E-01  8.0445190183393E-01
   109  1.0800000000000E+00 -1.5961609180136E-01  7.6413297527046E-01
   110  1.0900000000000E+00 -1.5752535804610E-01  7.2422077311761E-01
   111  1.1000000000000E+00 -1.5451934178742E-01  6.8467847501693E-01
   112  1.1100000000000E+00 -1.5064467956863E-01  6.4546350796267E-01
   113  1.1200000000000E+00 -1.4595260749117E-01  6.0653700751312E-01
   114  1.1300000000000E+00 -1.4050017203652E-01  5.6787743347019E-01
   115  1.1400000000000E+00 -1.3435064198359E-01  5.2948493302343E-01
   116  1.1500000000000E+00 -1.2757362362071E-01  4.9138344069062E-01
   117  1.1600000000000E+00 -1.2024500043490E-01  4.5362202575231E-01
   118  1.1700000000000E+00 -1.1244669329007E-01  4.1627545800682E-01
   119  1.1800000000000E+00 -1.0426624166708E-01  3.7944398214580E-01
   120  1.1900000000000E+00 -9.5796210973478E-02  3.4325231089015E-01
   121  1.2000000000000E+00 -8.7133435275923E-02  3.0784786683235E-01
   122  1.2100000000000E+00 -7.8378108947208E-02  2.7339832175794E-01
   123  1.2200000000000E+00 -6.9632744501342E-02  2.4008849954604E-01
   124  1.2300000000000E+00 -6.1001017297651E-02  2.0811672449068E-01
   125  1.2400000000000E+00 -5.2586520693507E-02  1.7769071042197E-01
   126  1.2500000000000E+00 -4.4491457570099E-02  1.4902309712421E-01
   127  1.2600000000000E+00 -3.6815295947057E-02  1.2232675229360E-01
   128  1.2700000000000E+00 -2.9653416530260E-02  9.7809925961426E-02
   129  1.2800000000000E+00 -2.3095784624165E-02  7.5671528313068E-02
   130  1.2900000000000E+00 -1.7225657877931E-02  5.6092572056909E-02
   131  1.3000000000000E+00 -1.2118959676417E-02  3.9235479699298E-02
   132  1.3100000000000E+00 -7.8427537420136E-03  2.5252253407283E-02
   133  1.3200000000000E+00 -4.4534402848533E-03  1.4264677063763E-02
   134  1.3300000000000E+00 -1.9969410052895E-03  6.3645710499968E-03
   135  1.3400000000000E+00 -5.0089121211624E-04  1.5889782674215E-03
   136  1.3500000000000E+00 -8.0303485981404E-07  2.6018813631530E-06
   137  1.3600000000000E+00 -3.6199161411809E-06  1.1437675602075E-05
   138  1.3700000000000E+00  8.4919766460811E-07 -2.6896480584568E-06
   139  1.38  0.  0.
   140  1.39  0.  0.
   141  1.40  0.  0.
   142  1.41  0.  0.
   143  1.42  0.  0.
   144  1.43  0.  0.
   145  1.44  0.  0.
   146  1.45  0.  0.
   147  1.46  0.  0.
   148  1.47  0.  0.
   149  1.48  0.  0.
   150  1.49  0.  0.
   151  1.50  0.  0.
   152  1.51  0.  0.
   153  1.52  0.  0.
   154  1.53  0.  0.
   155  1.54  0.  0.
   156  1.55  0.  0.
   157  1.56  0.  0.
   158  1.57  0.  0.
   159  1.58  0.  0.
   160  1.59  0.  0.
   161  1.60  0.  0.
   162  1.61  0.  0.
   163  1.62  0.  0.
   164  1.63  0.  0.
   165  1.64  0.  0.
   166  1.65  0.  0.
   167  1.66  0.  0.
   168  1.67  0.  0.
   169  1.68  0.  0.
   170  1.69  0.  0.
   171  1.70  0.  0.
   172  1.71  0.  0.
   173  1.72  0.  0.
   174  1.73  0.  0.
   175  1.74  0.  0.
   176  1.75  0.  0.
   177  1.76  0.  0.
   178  1.77  0.  0.
   179  1.78  0.  0.
   180  1.79  0.  0.
   181  1.80  0.  0.
   182  1.81  0.  0.
   183  1.82  0.  0.
   184  1.83  0.  0.
   185  1.84  0.  0.
   186  1.85  0.  0.
   187  1.86  0.  0.
   188  1.87  0.  0.
   189  1.88  0.  0.
   190  1.89  0.  0.
   191  1.90  0.  0.
   192  1.91  0.  0.
   193  1.92  0.  0.
   194  1.93  0.  0.
   195  1.94  0.  0.
   196  1.95  0.  0.
   197  1.96  0.  0.
   198  1.97  0.  0.
   199  1.98  0.  0.
   200  1.99  0.  0.
   201  2.00  0.  0.
   202  2.01  0.  0.
   203  2.02  0.  0.
   204  2.03  0.  0.
   205  2.04  0.  0.
   206  2.05  0.  0.
   207  2.06  0.  0.
   208  2.07  0.  0.
   209  2.08  0.  0.
   210  2.09  0.  0.
   211  2.10  0.  0.
   212  2.11  0.  0.
   213  2.12  0.  0.
   214  2.13  0.  0.
   215  2.14  0.  0.
   216  2.15  0.  0.
   217  2.16  0.  0.
   218  2.17  0.  0.
   219  2.18  0.  0.
   220  2.19  0.  0.
   221  2.20  0.  0.
   222  2.21  0.  0.
   223  2.22  0.  0.
   224  2.23  0.  0.
   225  2.24  0.  0.
   226  2.25  0.  0.
   227  2.26  0.  0.
   228  2.27  0.  0.
   229  2.28  0.  0.
   230  2.29  0.  0.
   231  2.30  0.  0.
   232  2.31  0.  0.
   233  2.32  0.  0.
   234  2.33  0.  0.
   235  2.34  0.  0.
   236  2.35  0.  0.
   237  2.36  0.  0.
   238  2.37  0.  0.
   239  2.38  0.  0.
   240  2.39  0.  0.
   241  2.40  0.  0.
   242  2.41  0.  0.
   243  2.42  0.  0.
   244  2.43  0.  0.
   245  2.44  0.  0.
   246  2.45  0.  0.
   247  2.46  0.  0.
   248  2.47  0.  0.
   249  2.48  0.  0.
   250  2.49  0.  0.
   251  2.50  0.  0.
   252  2.51  0.  0.
   253  2.52  0.  0.
   254  2.53  0.  0.
   255  2.54  0.  0.
   256  2.55  0.  0.
   257  2.56  0.  0.
   258  2.57  0.  0.
   259  2.58  0.  0.
   260  2.59  0.  0.
   261  2.60  0.  0.
   262  2.61  0.  0.
   263  2.62  0.  0.
   264  2.63  0.  0.
   265  2.64  0.  0.
   266  2.65  0.  0.
   267  2.66  0.  0.
   268  2.67  0.  0.
   269  2.68  0.  0.
   270  2.69  0.  0.
   271  2.70  0.  0.
   272  2.71  0.  0.
   273  2.72  0.  0.
   274  2.73  0.  0.
   275  2.74  0.  0.
   276  2.75  0.  0.
   277  2.76  0.  0.
   278  2.77  0.  0.
   279  2.78  0.  0.
   280  2.79  0.  0.
   281  2.80  0.  0.
   282  2.81  0.  0.
   283  2.82  0.  0.
   284  2.83  0.  0.
   285  2.84  0.  0.
   286  2.85  0.  0.
   287  2.86  0.  0.
   288  2.87  0.  0.
   289  2.88  0.  0.
   290  2.89  0.  0.
   291  2.90  0.  0.
   292  2.91  0.  0.
   293  2.92  0.  0.
   294  2.93  0.  0.
   295  2.94  0.  0.
   296  2.95  0.  0.
   297  2.96  0.  0.
   298  2.97  0.  0.
   299  2.98  0.  0.
   300  2.99  0.  0.
   301  3.00  0.  0.
   302  3.01  0.  0.
   303  3.02  0.  0.
   304  3.03  0.  0.
   305  3.04  0.  0.
   306  3.05  0.  0.
   307  3.06  0.  0.
   308  3.07  0.  0.
   309  3.08  0.  0.
   310  3.09  0.  0.
   311  3.10  0.  0.
   312  3.11  0.  0.
   313  3.12  0.  0.
   314  3.13  0.  0.
   315  3.14  0.  0.
   316  3.15  0.  0.
   317  3.16  0.  0.
   318  3.17  0.  0.
   319  3.18  0.  0.
   320  3.19  0.  0.
   321  3.20  0.  0.
   322  3.21  0.  0.
   323  3.22  0.  0.
   324  3.23  0.  0.
   325  3.24  0.  0.
   326  3.25  0.  0.
   327  3.26  0.  0.
   328  3.27  0.  0.
   329  3.28  0.  0.
   330  3.29  0.  0.
   331  3.30  0.  0.
   332  3.31  0.  0.
   333  3.32  0.  0.
   334  3.33  0.  0.
   335  3.34  0.  0.
   336  3.35  0.  0.
   337  3.36  0.  0.
   338  3.37  0.  0.
   339  3.38  0.  0.
   340  3.39  0.  0.
   341  3.40  0.  0.
   342  3.41  0.  0.
   343  3.42  0.  0.
   344  3.43  0.  0.
   345  3.44  0.  0.
   346  3.45  0.  0.
   347  3.46  0.  0.
   348  3.47  0.  0.
   349  3.48  0.  0.
   350  3.49  0.  0.
   351  3.50  0.  0.
   352  3.51  0.  0.
   353  3.52  0.  0.
   354  3.53  0.  0.
   355  3.54  0.  0.
   356  3.55  0.  0.
   357  3.56  0.  0.
   358  3.57  0.  0.
   359  3.58  0.  0.
   360  3.59  0.  0.
   361  3.60  0.  0.
   362  3.61  0.  0.
   363  3.62  0.  0.
   364  3.63  0.  0.
   365  3.64  0.  0.
   366  3.65  0.  0.
   367  3.66  0.  0.
   368  3.67  0.  0.
   369  3.68  0.  0.
   370  3.69  0.  0.
   371  3.70  0.  0.
   372  3.71  0.  0.
   373  3.72  0.  0.
   374  3.73  0.  0.
   375  3.74  0.  0.
   376  3.75  0.  0.
   377  3.76  0.  0.
   378  3.77  0.  0.
   379  3.78  0.  0.
   380  3.79  0.  0.
   381  3.80  0.  0.
   382  3.81  0.  0.
   383  3.82  0.  0.
   384  3.83  0.  0.
   385  3.84  0.  0.
   386  3.85  0.  0.
   387  3.86  0.  0.
   388  3.87  0.  0.
   389  3.88  0.  0.
   390  3.89  0.  0.
   391  3.90  0.  0.
   392  3.91  0.  0.
   393  3.92  0.  0.
   394  3.93  0.  0.
   395  3.94  0.  0.
   396  3.95  0.  0.
   397  3.96  0.  0.
   398  3.97  0.  0.
   399  3.98  0.  0.
   400  3.99  0.  0.
   1                         4.5435993147003E+00  5.7762635603359E-01
     1  0.0000000000000E+00  2.6496616428728E-09 -9.9257144031695E-09
     2  1.0000000000000E-02  1.7235735949239E-03 -1.5689203493869E-03
     3  2.0000000000000E-02  6.8850350730691E-03 -6.2566060614012E-03
     4  3.0000000000000E-02  1.5456698100927E-02 -1.4006132224213E-02
     5  4.0000000000000E-02  2.7392722495582E-02 -2.4723621701572E-02
     6  5.0000000000000E-02  4.2629564280359E-02 -3.8279721044616E-02
     7  6.0000000000000E-02  6.1086594873674E-02 -5.4511625891463E-02
     8  7.0000000000000E-02  8.2666878794888E-02 -7.3225616014086E-02
     9  8.0000000000000E-02  1.0725809662128E-01 -9.4200050246262E-02
    10  9.0000000000000E-02  1.3473359755671E-01 -1.1718876264993E-01
    11  1.0000000000000E-01  1.6495356392414E-01 -1.4192479363723E-01
    12  1.1000000000000E-01  1.9776626821295E-01 -1.6812438352268E-01
    13  1.2000000000000E-01  2.3300940203213E-01 -1.9549115126448E-01
    14  1.3000000000000E-01  2.7051145546734E-01 -2.2372037806379E-01
    15  1.4000000000000E-01  3.1009312492959E-01 -2.5250331409023E-01
    16  1.5000000000000E-01  3.5156872762303E-01 -2.8153142691694E-01
    17  1.6000000000000E-01  3.9474760124555E-01 -3.1050051227052E-01
    18  1.7000000000000E-01  4.3943546845632E-01 -3.3911459138428E-01
    19  1.8000000000000E-01  4.8543574697678E-01 -3.6708952450524E-01
    20  1.9000000000000E-01  5.3255078790526E-01 -3.9415627683159E-01
    21  2.0000000000000E-01  5.8058302688064E-01 -4.2006378120119E-01
    22  2.1000000000000E-01  6.2933603508140E-01 -4.4458135103657E-01
    23  2.2000000000000E-01  6.7861545963963E-01 -4.6750060718079E-01
    24  2.3000000000000E-01  7.2822984582674E-01 -4.8863689310849E-01
    25  2.4000000000000E-01  7.7799133626695E-01 -5.0783016433402E-01
    26  2.5000000000000E-01  8.2771624539078E-01 -5.2494534941677E-01
    27  2.6000000000000E-01  8.7722551028841E-01 -5.3987219153022E-01
    28  2.7000000000000E-01  9.2634502199483E-01 -5.5252459086689E-01
    29  2.8000000000000E-01  9.7490584397248E-01 -5.6283947894681E-01
    30  2.9000000000000E-01  1.0227443270904E+00 -5.7077526595147E-01
    31  3.0000000000000E-01  1.0697021326756E+00 -5.7630991129534E-01
    32  3.1000000000000E-01  1.1156261771805E+00 -5.7943867557831E-01
    33  3.2000000000000E-01  1.1603685136296E+00 -5.8017161865876E-01
    34  3.3000000000000E-01  1.2037861662342E+00 -5.7853091370559E-01
    35  3.4000000000000E-01  1.2457409353798E+00 -5.7454805061615E-01
    36  3.5000000000000E-01  1.2860991905688E+00 -5.6826100404732E-01
    37  3.6000000000000E-01  1.3247316688373E+00 -5.5971144145840E-01
    38  3.7000000000000E-01  1.3615132956588E+00 -5.4894204500241E-01
    39  3.8000000000000E-01  1.3963230444135E+00 -5.3599401786215E-01
    40  3.9000000000000E-01  1.4290438491553E+00 -5.2090484077712E-01
    41  4.0000000000000E-01  1.4595625836864E+00 -5.0370633815586E-01
    42  4.1000000000000E-01  1.4877701178846E+00 -4.8442310545277E-01
    43  4.2000000000000E-01  1.5135614598728E+00 -4.6307134058040E-01
    44  4.3000000000000E-01  1.5368359900234E+00 -4.3965811222231E-01
    45  4.4000000000000E-01  1.5574977900151E+00 -4.1418108722868E-01
    46  4.5000000000000E-01  1.5754560672669E+00 -3.8662872805133E-01
    47  4.6000000000000E-01  1.5906256721345E+00 -3.5698095965798E-01
    48  4.7000000000000E-01  1.6029277023287E+00 -3.2521029381268E-01
    49  4.8000000000000E-01  1.6122901861833E+00 -2.9128338727776E-01
    50  4.9000000000000E-01  1.6186488337147E+00 -2.5516299963783E-01
    51  5.0000000000000E-01  1.6219478419542E+00 -2.1681030631122E-01
    52  5.1000000000000E-01  1.6221407388436E+00 -1.7618751312712E-01
    53  5.2000000000000E-01  1.6191912481274E+00 -1.3326071081845E-01
    54  5.3000000000000E-01  1.6130741561927E+00 -8.8002901092517E-02
    55  5.4000000000000E-01  1.6037761607397E+00 -4.0397120750244E-02
    56  5.5000000000000E-01  1.5912966805424E+00  9.5604132477564E-03
    57  5.6000000000000E-01  1.5756486053945E+00  6.1857216738011E-02
    58  5.7000000000000E-01  1.5568589656498E+00  1.1646158841493E-01
    59  5.8000000000000E-01  1.5349695015421E+00  1.7331987442344E-01
    60  5.9000000000000E-01  1.5100371137155E+00  2.3235402151829E-01
    61  6.0000000000000E-01  1.4821341780660E+00  2.9345948776025E-01
    62  6.1000000000000E-01  1.4513487100825E+00  3.5650357308570E-01
    63  6.2000000000000E-01  1.4177843663173E+00  4.2132422402082E-01
    64  6.3000000000000E-01  1.3815602733776E+00  4.8772935748463E-01
    65  6.4000000000000E-01  1.3428106778468E+00  5.5549673823539E-01
    66  6.5000000000000E-01  1.3016844137583E+00  6.2437443328225E-01
    67  6.6000000000000E-01  1.2583441875835E+00  6.9408185475008E-01
    68  6.7000000000000E-01  1.2129656840966E+00  7.6431139050376E-01
    69  6.8000000000000E-01  1.1657364998619E+00  8.3473060957163E-01
    70  6.9000000000000E-01  1.1168549143855E+00  9.0498501731830E-01
    71  7.0000000000000E-01  1.0665285121167E+00  9.7470132366707E-01
    72  7.1000000000000E-01  1.0149726713983E+00  1.0434911767116E+00
    73  7.2000000000000E-01  9.6240893909714E-01  1.1109553040199E+00
    74  7.3000000000000E-01  9.0906331193212E-01  1.1766879950357E+00
    75  7.4000000000000E-01  8.5516444741380E-01  1.2402818504189E+00
    76  7.5000000000000E-01  8.0094182877138E-01  1.3013327180838E+00
    77  7.6000000000000E-01  7.4662390924412E-01  1.3594447312372E+00
    78  7.7000000000000E-01  6.9243626162960E-01  1.4142353609635E+00
    79  7.8000000000000E-01  6.3859975900268E-01  1.4653403949141E+00
    80  7.9000000000000E-01  5.8532881204675E-01  1.5124187544426E+00
    81  8.0000000000000E-01  5.3282968748416E-01  1.5551570650615E+00
    82  8.1000000000000E-01  4.8129893067695E-01  1.5932738993242E+00
    83  8.2000000000000E-01  4.3092191362611E-01  1.6265236170416E+00
    84  8.3000000000000E-01  3.8187152736594E-01  1.6546997350081E+00
    85  8.4000000000000E-01  3.3430703518316E-01  1.6776377669590E+00
    86  8.5000000000000E-01  2.8837310024138E-01  1.6952174841176E+00
    87  8.6000000000000E-01  2.4419899812679E-01  1.7073645572026E+00
    88  8.7000000000000E-01  2.0189802161588E-01  1.7140515519128E+00
    89  8.8000000000000E-01  1.6156708167126E-01  1.7152982614433E+00
    90  8.9000000000000E-01  1.2328650537060E-01  1.7111713712561E+00
    91  9.0000000000000E-01  8.7120028235328E-02  1.7017834628750E+00
    92  9.1000000000000E-01  5.3114975321880E-02  1.6872913746468E+00
    93  9.2000000000000E-01  2.1302622534028E-02  1.6678939479634E+00
    94  9.3000000000000E-01 -8.3012730299504E-03  1.6438291971609E+00
    95  9.4000000000000E-01 -3.5695787209078E-02  1.6153709499734E+00
    96  9.5000000000000E-01 -6.0894002871553E-02  1.5828250128733E+00
    97  9.6000000000000E-01 -8.3922061013437E-02  1.5465249217016E+00
    98  9.7000000000000E-01 -1.0481810704745E-01  1.5068273425804E+00
    99  9.8000000000000E-01 -1.2363115115368E-01  1.4641071911184E+00
   100  9.9000000000000E-01 -1.4041986179674E-01  1.4187525393296E+00
   101  1.0000000000000E+00 -1.5525131129240E-01  1.3711593794742E+00
   102  1.0100000000000E+00 -1.6819969164440E-01  1.3217263122347E+00
   103  1.0200000000000E+00 -1.7934501779279E-01  1.2708492233236E+00
   104  1.0300000000000E+00 -1.8877183395010E-01  1.2189160078926E+00
   105  1.0400000000000E+00 -1.9656793689150E-01  1.1663013960880E+00
   106  1.0500000000000E+00 -2.0282312796290E-01  1.1133619259769E+00
   107  1.0600000000000E+00 -2.0762800322525E-01  1.0604311019872E+00
   108  1.0700000000000E+00 -2.1107278862894E-01  1.0078147682098E+00
   109  1.0800000000000E+00 -2.1324622447583E-01  9.5578671661629E-01
   110  1.0900000000000E+00 -2.1423450054621E-01  9.0458453863655E-01
   111  1.1000000000000E+00 -2.1412024291105E-01  8.5440574483594E-01
   112  1.1100000000000E+00 -2.1298158579378E-01  8.0540458300185E-01
   113  1.1200000000000E+00 -2.1089218935071E-01  7.5769895453237E-01
   114  1.1300000000000E+00 -2.0792215324336E-01  7.1138348216729E-01
   115  1.1400000000000E+00 -2.0413835805097E-01  6.6653239860034E-01
   116  1.1500000000000E+00 -1.9960474149139E-01  6.2320084571377E-01
   117  1.1600000000000E+00 -1.9438263877831E-01  5.8142644598870E-01
   118  1.1700000000000E+00 -1.8853117186709E-01  5.4123109578915E-01
   119  1.1800000000000E+00 -1.8210767185215E-01  5.0262292663511E-01
   120  1.1900000000000E+00 -1.7516811844162E-01  4.6559837861848E-01
   121  1.2000000000000E+00 -1.6776758057142E-01  4.3014433012301E-01
   122  1.2100000000000E+00 -1.5996064273030E-01  3.9624022905415E-01
   123  1.2200000000000E+00 -1.5180180244637E-01  3.6386017311729E-01
   124  1.2300000000000E+00 -1.4334582562036E-01  3.3297489025239E-01
   125  1.2400000000000E+00 -1.3464804793384E-01  3.0355357499871E-01
   126  1.2500000000000E+00 -1.2576461236751E-01  2.7556554217525E-01
   127  1.2600000000000E+00 -1.1675263490504E-01  2.4898166572533E-01
   128  1.2700000000000E+00 -1.0767029268867E-01  2.2377557761137E-01
   129  1.2800000000000E+00 -9.8576831198617E-02  1.9992460914262E-01
   130  1.2900000000000E+00 -8.9532489388707E-02  1.7741046486852E-01
   131  1.3000000000000E+00 -8.0598344048380E-02  1.5621962691700E-01
   132  1.3100000000000E+00 -7.1836076933147E-02  1.3634349525230E-01
   133  1.3200000000000E+00 -6.3307670357064E-02  1.1777827658346E-01
   134  1.3300000000000E+00 -5.5075038901458E-02  1.0052464133581E-01
   135  1.3400000000000E+00 -4.7199606627283E-02  8.4587174071925E-02
   136  1.3500000000000E+00 -3.9741840650443E-02  6.9973647903508E-02
   137  1.3600000000000E+00 -3.2760672309717E-02  5.6693711889270E-02
   138  1.3700000000000E+00 -2.6314464407563E-02  4.4766120681003E-02
   139  1.3800000000000E+00 -2.0449179124195E-02  3.4155125505683E-02
   140  1.3900000000000E+00 -1.5283748513256E-02  2.5243708033445E-02
   141  1.4000000000000E+00 -1.0784452891845E-02  1.7581049865413E-02
   142  1.4100000000000E+00 -7.0155984744751E-03  1.1286374183761E-02
   143  1.4200000000000E+00 -4.0205388247265E-03  6.3837030256573E-03
   144  1.4300000000000E+00 -1.8351803870054E-03  2.8755340302804E-03
   145  1.4400000000000E+00 -4.8317734067632E-04  7.4539277333558E-04
   146  1.4500000000000E+00 -6.2390647453097E-06  6.1127900128742E-06
   147  1.4600000000000E+00 -1.6871662450780E-06  2.7207812135884E-06
   148  1.4700000000000E+00  6.2603921877368E-07 -1.0234254066643E-06
   149  1.48  0.  0.
   150  1.49  0.  0.
   151  1.50  0.  0.
   152  1.51  0.  0.
   153  1.52  0.  0.
   154  1.53  0.  0.
   155  1.54  0.  0.
   156  1.55  0.  0.
   157  1.56  0.  0.
   158  1.57  0.  0.
   159  1.58  0.  0.
   160  1.59  0.  0.
   161  1.60  0.  0.
   162  1.61  0.  0.
   163  1.62  0.  0.
   164  1.63  0.  0.
   165  1.64  0.  0.
   166  1.65  0.  0.
   167  1.66  0.  0.
   168  1.67  0.  0.
   169  1.68  0.  0.
   170  1.69  0.  0.
   171  1.70  0.  0.
   172  1.71  0.  0.
   173  1.72  0.  0.
   174  1.73  0.  0.
   175  1.74  0.  0.
   176  1.75  0.  0.
   177  1.76  0.  0.
   178  1.77  0.  0.
   179  1.78  0.  0.
   180  1.79  0.  0.
   181  1.80  0.  0.
   182  1.81  0.  0.
   183  1.82  0.  0.
   184  1.83  0.  0.
   185  1.84  0.  0.
   186  1.85  0.  0.
   187  1.86  0.  0.
   188  1.87  0.  0.
   189  1.88  0.  0.
   190  1.89  0.  0.
   191  1.90  0.  0.
   192  1.91  0.  0.
   193  1.92  0.  0.
   194  1.93  0.  0.
   195  1.94  0.  0.
   196  1.95  0.  0.
   197  1.96  0.  0.
   198  1.97  0.  0.
   199  1.98  0.  0.
   200  1.99  0.  0.
   201  2.00  0.  0.
   202  2.01  0.  0.
   203  2.02  0.  0.
   204  2.03  0.  0.
   205  2.04  0.  0.
   206  2.05  0.  0.
   207  2.06  0.  0.
   208  2.07  0.  0.
   209  2.08  0.  0.
   210  2.09  0.  0.
   211  2.10  0.  0.
   212  2.11  0.  0.
   213  2.12  0.  0.
   214  2.13  0.  0.
   215  2.14  0.  0.
   216  2.15  0.  0.
   217  2.16  0.  0.
   218  2.17  0.  0.
   219  2.18  0.  0.
   220  2.19  0.  0.
   221  2.20  0.  0.
   222  2.21  0.  0.
   223  2.22  0.  0.
   224  2.23  0.  0.
   225  2.24  0.  0.
   226  2.25  0.  0.
   227  2.26  0.  0.
   228  2.27  0.  0.
   229  2.28  0.  0.
   230  2.29  0.  0.
   231  2.30  0.  0.
   232  2.31  0.  0.
   233  2.32  0.  0.
   234  2.33  0.  0.
   235  2.34  0.  0.
   236  2.35  0.  0.
   237  2.36  0.  0.
   238  2.37  0.  0.
   239  2.38  0.  0.
   240  2.39  0.  0.
   241  2.40  0.  0.
   242  2.41  0.  0.
   243  2.42  0.  0.
   244  2.43  0.  0.
   245  2.44  0.  0.
   246  2.45  0.  0.
   247  2.46  0.  0.
   248  2.47  0.  0.
   249  2.48  0.  0.
   250  2.49  0.  0.
   251  2.50  0.  0.
   252  2.51  0.  0.
   253  2.52  0.  0.
   254  2.53  0.  0.
   255  2.54  0.  0.
   256  2.55  0.  0.
   257  2.56  0.  0.
   258  2.57  0.  0.
   259  2.58  0.  0.
   260  2.59  0.  0.
   261  2.60  0.  0.
   262  2.61  0.  0.
   263  2.62  0.  0.
   264  2.63  0.  0.
   265  2.64  0.  0.
   266  2.65  0.  0.
   267  2.66  0.  0.
   268  2.67  0.  0.
   269  2.68  0.  0.
   270  2.69  0.  0.
   271  2.70  0.  0.
   272  2.71  0.  0.
   273  2.72  0.  0.
   274  2.73  0.  0.
   275  2.74  0.  0.
   276  2.75  0.  0.
   277  2.76  0.  0.
   278  2.77  0.  0.
   279  2.78  0.  0.
   280  2.79  0.  0.
   281  2.80  0.  0.
   282  2.81  0.  0.
   283  2.82  0.  0.
   284  2.83  0.  0.
   285  2.84  0.  0.
   286  2.85  0.  0.
   287  2.86  0.  0.
   288  2.87  0.  0.
   289  2.88  0.  0.
   290  2.89  0.  0.
   291  2.90  0.  0.
   292  2.91  0.  0.
   293  2.92  0.  0.
   294  2.93  0.  0.
   295  2.94  0.  0.
   296  2.95  0.  0.
   297  2.96  0.  0.
   298  2.97  0.  0.
   299  2.98  0.  0.
   300  2.99  0.  0.
   301  3.00  0.  0.
   302  3.01  0.  0.
   303  3.02  0.  0.
   304  3.03  0.  0.
   305  3.04  0.  0.
   306  3.05  0.  0.
   307  3.06  0.  0.
   308  3.07  0.  0.
   309  3.08  0.  0.
   310  3.09  0.  0.
   311  3.10  0.  0.
   312  3.11  0.  0.
   313  3.12  0.  0.
   314  3.13  0.  0.
   315  3.14  0.  0.
   316  3.15  0.  0.
   317  3.16  0.  0.
   318  3.17  0.  0.
   319  3.18  0.  0.
   320  3.19  0.  0.
   321  3.20  0.  0.
   322  3.21  0.  0.
   323  3.22  0.  0.
   324  3.23  0.  0.
   325  3.24  0.  0.
   326  3.25  0.  0.
   327  3.26  0.  0.
   328  3.27  0.  0.
   329  3.28  0.  0.
   330  3.29  0.  0.
   331  3.30  0.  0.
   332  3.31  0.  0.
   333  3.32  0.  0.
   334  3.33  0.  0.
   335  3.34  0.  0.
   336  3.35  0.  0.
   337  3.36  0.  0.