K     ONCVPSP-4.0.1  r_core=   1.35007   1.45055   1.60582
     19.0000      9.0000      250925    zatom,zion,pspd
     8   -1012   2     4   400     0    pspcod,pspxc,lmax,lloc,mmax,r2well
  3.99000000  5.00000000  0.00000000    rchrg fchrg qchrg
     2     2     2     0    nproj
     3     1           extension_switch
     3     4     0    nprojso
   0                         1.1084458284753E+01  8.4972146461038E-01
     1  0.0000000000000E+00 -2.4721272806616E-09  1.2673758764681E-08
     2  1.0000000000000E-02  6.0826352600692E-02 -4.6812485853741E-02
     3  2.0000000000000E-02  1.2152061882997E-01 -9.3209433191118E-02
     4  3.0000000000000E-02  1.8195200977554E-01 -1.3878236128400E-01
     5  4.0000000000000E-02  2.4199230294352E-01 -1.8313675265222E-01
     6  5.0000000000000E-02  3.0151705487220E-01 -2.2589865721450E-01
     7  6.0000000000000E-02  3.6040673084799E-01 -2.6672085277407E-01
     8  7.0000000000000E-02  4.1854772707526E-01 -3.0528842923682E-01
     9  8.0000000000000E-02  4.7583326312383E-01 -3.4132367663406E-01
    10  9.0000000000000E-02  5.3216412546312E-01 -3.7459017233730E-01
    11  1.0000000000000E-01  5.8744924632239E-01 -4.0489598047815E-01
    12  1.1000000000000E-01  6.4160610591735E-01 -4.3209589613573E-01
    13  1.2000000000000E-01  6.9456095016743E-01 -4.5609268790162E-01
    14  1.3000000000000E-01  7.4624882030513E-01 -4.7683731451856E-01
    15  1.4000000000000E-01  7.9661339515182E-01 -4.9432811393061E-01
    16  1.5000000000000E-01  8.4560665120551E-01 -5.0860898578463E-01
    17  1.6000000000000E-01  8.9318834995582E-01 -5.1976661068776E-01
    18  1.7000000000000E-01  9.3932536591366E-01 -5.2792677086521E-01
    19  1.8000000000000E-01  9.8399087262481E-01 -5.3324985680635E-01
    20  1.9000000000000E-01  1.0271634073413E+00 -5.3592566259842E-01
    21  2.0000000000000E-01  1.0688258379739E+00 -5.3616758852235E-01
    22  2.1000000000000E-01  1.1089642583748E+00 -5.3420638277442E-01
    23  2.2000000000000E-01  1.1475668398432E+00 -5.3028356458387E-01
    24  2.3000000000000E-01  1.1846226679671E+00 -5.2464467828525E-01
    25  2.4000000000000E-01  1.2201205944758E+00 -5.1753253191011E-01
    26  2.5000000000000E-01  1.2540481336689E+00 -5.0918057448838E-01
    27  2.6000000000000E-01  1.2863904322046E+00 -4.9980656347715E-01
    28  2.7000000000000E-01  1.3171293395859E+00 -4.8960666761267E-01
    29  2.8000000000000E-01  1.3462426046102E+00 -4.7875014113910E-01
    30  2.9000000000000E-01  1.3737032203801E+00 -4.6737469300079E-01
    31  3.0000000000000E-01  1.3994789372801E+00 -4.5558265945675E-01
    32  3.1000000000000E-01  1.4235319596579E+00 -4.4343807101227E-01
    33  3.2000000000000E-01  1.4458188379014E+00 -4.3096468494096E-01
    34  3.3000000000000E-01  1.4662905632530E+00 -4.1814503341789E-01
    35  3.4000000000000E-01  1.4848928681523E+00 -4.0492051485921E-01
    36  3.5000000000000E-01  1.5015667302391E+00 -3.9119253296048E-01
    37  3.6000000000000E-01  1.5162490734916E+00 -3.7682466464238E-01
    38  3.7000000000000E-01  1.5288736554183E+00 -3.6164581516652E-01
    39  3.8000000000000E-01  1.5393721248651E+00 -3.4545429657512E-01
    40  3.9000000000000E-01  1.5476752309508E+00 -3.2802274482544E-01
    41  4.0000000000000E-01  1.5537141599775E+00 -3.0910377199412E-01
    42  4.1000000000000E-01  1.5574219739814E+00 -2.8843623313776E-01
    43  4.2000000000000E-01  1.5587351219497E+00 -2.6575197318855E-01
    44  4.3000000000000E-01  1.5575949927031E+00 -2.4078290795968E-01
    45  4.4000000000000E-01  1.5539494770745E+00 -2.1326828518357E-01
    46  4.5000000000000E-01  1.5477545063382E+00 -1.8296196670114E-01
    47  4.6000000000000E-01  1.5389755338782E+00 -1.4963957156879E-01
    48  4.7000000000000E-01  1.5275889278321E+00 -1.1310532199586E-01
    49  4.8000000000000E-01  1.5135832438992E+00 -7.3198439622330E-02
    50  4.9000000000000E-01  1.4969603496221E+00 -2.9798948587392E-02
    51  5.0000000000000E-01  1.4777363742070E+00  1.7167246073676E-02
    52  5.1000000000000E-01  1.4559424612732E+00  6.7724121188192E-02
    53  5.2000000000000E-01  1.4316253057505E+00  1.2184223829972E-01
    54  5.3000000000000E-01  1.4048474603929E+00  1.7943646582703E-01
    55  5.4000000000000E-01  1.3756874019580E+00  2.4036477825632E-01
    56  5.5000000000000E-01  1.3442393519071E+00  3.0442816732666E-01
    57  5.6000000000000E-01  1.3106128514208E+00  3.7137167661816E-01
    58  5.7000000000000E-01  1.2749320954772E+00  4.4088654713057E-01
    59  5.8000000000000E-01  1.2373350356058E+00  5.1261343787963E-01
    60  5.9000000000000E-01  1.1979722656000E+00  5.8614666274712E-01
    61  6.0000000000000E-01  1.1570057088417E+00  6.6103936331066E-01
    62  6.1000000000000E-01  1.1146071298692E+00  7.3680951761686E-01
    63  6.2000000000000E-01  1.0709564963160E+00  8.1294666728409E-01
    64  6.3000000000000E-01  1.0262402202842E+00  8.8891923031668E-01
    65  6.4000000000000E-01  9.8064931053310E-01  9.6418225490441E-01
    66  6.5000000000000E-01  9.3437746850610E-01  1.0381854605392E+00
    67  6.6000000000000E-01  8.8761916215279E-01  1.1103814071922E+00
    68  6.7000000000000E-01  8.4056771171012E-01  1.1802336311780E+00
    69  6.8000000000000E-01  7.9341342108298E-01  1.2472245877306E+00
    70  6.9000000000000E-01  7.4634178722289E-01  1.3108632451770E+00
    71  7.0000000000000E-01  6.9953181797452E-01  1.3706921838152E+00
    72  7.1000000000000E-01  6.5315448628833E-01  1.4262940639740E+00
    73  7.2000000000000E-01  6.0737134554307E-01  1.4772973419972E+00
    74  7.3000000000000E-01  5.6233332705795E-01  1.5233811297176E+00
    75  7.4000000000000E-01  5.1817973678451E-01  1.5642791119811E+00
    76  7.5000000000000E-01  4.7503746374849E-01  1.5997824575052E+00
    77  7.6000000000000E-01  4.3302040816155E-01  1.6297416803411E+00
    78  7.7000000000000E-01  3.9222913235099E-01  1.6540674319416E+00
    79  7.8000000000000E-01  3.5275073287066E-01  1.6727302268030E+00
    80  7.9000000000000E-01  3.1465892746753E-01  1.6857591273198E+00
    81  8.0000000000000E-01  2.7801434609502E-01  1.6932394353577E+00
    82  8.1000000000000E-01  2.4286501098615E-01  1.6953094586023E+00
    83  8.2000000000000E-01  2.0924698702405E-01  1.6921564385286E+00
    84  8.3000000000000E-01  1.7718518035924E-01  1.6840117434280E+00
    85  8.4000000000000E-01  1.4669426049618E-01  1.6711454439517E+00
    86  8.5000000000000E-01  1.1777967896744E-01  1.6538603997870E+00
    87  8.6000000000000E-01  9.0438756278684E-02  1.6324859941114E+00
    88  8.7000000000000E-01  6.4661808071033E-02  1.6073716572215E+00
    89  8.8000000000000E-01  4.0433281424922E-02  1.5788803221060E+00
    90  8.9000000000000E-01  1.7732872916585E-02  1.5473819527119E+00
    91  9.0000000000000E-01 -3.4633985835075E-03  1.5132472803172E+00
    92  9.1000000000000E-01 -2.3182189347756E-02  1.4768418749075E+00
    93  9.2000000000000E-01 -4.1451920805652E-02  1.4385206669811E+00
    94  9.3000000000000E-01 -5.8301981302048E-02  1.3986230210681E+00
    95  9.4000000000000E-01 -7.3762055133121E-02  1.3574684457915E+00
    96  9.5000000000000E-01 -8.7861590389742E-02  1.3153530069255E+00
    97  9.6000000000000E-01 -1.0062941286109E-01  1.2725464900680E+00
    98  9.7000000000000E-01 -1.1209348880721E-01  1.2292903387211E+00
    99  9.8000000000000E-01 -1.2228083490349E-01  1.1857963722656E+00
   100  9.9000000000000E-01 -1.3121756920614E-01  1.1422462670419E+00
   101  1.0000000000000E+00 -1.3892909268759E-01  1.0987917630044E+00
   102  1.0100000000000E+00 -1.4544038685525E-01  1.0555555387116E+00
   103  1.0200000000000E+00 -1.5077640929049E-01  1.0126326792106E+00
   104  1.0300000000000E+00 -1.5496256571539E-01  9.7009264509287E-01
   105  1.0400000000000E+00 -1.5802523449299E-01  9.2798163703144E-01
   106  1.0500000000000E+00 -1.5999231735862E-01  8.8632523878704E-01
   107  1.0600000000000E+00 -1.6089378871234E-01  8.4513121322712E-01
   108  1.0700000000000E+00 -1.6076221501699E-01  8.0439232055964E-01
   109  1.0800000000000E+00 -1.5963321575634E-01  7.6408902582718E-01
   110  1.0900000000000E+00 -1.5754583786676E-01  7.2419196215844E-01
   111  1.1000000000000E+00 -1.5454281880964E-01  6.8466404170467E-01
   112  1.1100000000000E+00 -1.5067074563412E-01  6.4546245265813E-01
   113  1.1200000000000E+00 -1.4598081430773E-01  6.0654812450548E-01
   114  1.1300000000000E+00 -1.4053004139001E-01  5.6789934623724E-01
   115  1.1400000000000E+00 -1.3438167657069E-01  5.2951613240007E-01
   116  1.1500000000000E+00 -1.2760531825167E-01  4.9142232521330E-01
   117  1.1600000000000E+00 -1.2027685334549E-01  4.5366694317169E-01
   118  1.1700000000000E+00 -1.1247821729893E-01  4.1632474694115E-01
   119  1.1800000000000E+00 -1.0429697491798E-01  3.7949601285141E-01
   120  1.1900000000000E+00 -9.5825727010912E-02  3.4330552415419E-01
   121  1.2000000000000E+00 -8.7161352217678E-02  3.0790081004408E-01
   122  1.2100000000000E+00 -7.8404097537771E-02  2.7344968128877E-01
   123  1.2200000000000E+00 -6.9656534855371E-02  2.4013712866193E-01
   124  1.2300000000000E+00 -6.1022404172542E-02  2.0816166613254E-01
   125  1.2400000000000E+00 -5.2605367163513E-02  1.7773121431638E-01
   126  1.2500000000000E+00 -4.4507697010906E-02  1.4905863082636E-01
   127  1.2600000000000E+00 -3.6828932278976E-02  1.2235700591434E-01
   128  1.2700000000000E+00 -2.9664522700624E-02  9.7834810462386E-02
   129  1.2800000000000E+00 -2.3104499382588E-02  7.5691167508424E-02
   130  1.2900000000000E+00 -1.7232179972495E-02  5.6107285645190E-02
   131  1.3000000000000E+00 -1.2123540964891E-02  3.9245761593085E-02
   132  1.3100000000000E+00 -7.8456941531132E-03  2.5258755149816E-02
   133  1.3200000000000E+00 -4.4550782779380E-03  1.4268177073083E-02
   134  1.3300000000000E+00 -1.9976433175627E-03  6.3659406701820E-03
   135  1.3400000000000E+00 -5.0103883091966E-04  1.5891366213742E-03
   136  1.3500000000000E+00 -7.8743302282277E-07  2.4977705817260E-06
   137  1.3600000000000E+00 -3.6222471359758E-06  1.1447160433411E-05
   138  1.3700000000000E+00  8.4981970765146E-07 -2.6923667312012E-06
   139  1.38  0.  0.
   140  1.39  0.  0.
   141  1.40  0.  0.
   142  1.41  0.  0.
   143  1.42  0.  0.
   144  1.43  0.  0.
   145  1.44  0.  0.
   146  1.45  0.  0.
   147  1.46  0.  0.
   148  1.47  0.  0.
   149  1.48  0.  0.
   150  1.49  0.  0.
   151  1.50  0.  0.
   152  1.51  0.  0.
   153  1.52  0.  0.
   154  1.53  0.  0.
   155  1.54  0.  0.
   156  1.55  0.  0.
   157  1.56  0.  0.
   158  1.57  0.  0.
   159  1.58  0.  0.
   160  1.59  0.  0.
   161  1.60  0.  0.
   162  1.61  0.  0.
   163  1.62  0.  0.
   164  1.63  0.  0.
   165  1.64  0.  0.
   166  1.65  0.  0.
   167  1.66  0.  0.
   168  1.67  0.  0.
   169  1.68  0.  0.
   170  1.69  0.  0.
   171  1.70  0.  0.
   172  1.71  0.  0.
   173  1.72  0.  0.
   174  1.73  0.  0.
   175  1.74  0.  0.
   176  1.75  0.  0.
   177  1.76  0.  0.
   178  1.77  0.  0.
   179  1.78  0.  0.
   180  1.79  0.  0.
   181  1.80  0.  0.
   182  1.81  0.  0.
   183  1.82  0.  0.
   184  1.83  0.  0.
   185  1.84  0.  0.
   186  1.85  0.  0.
   187  1.86  0.  0.
   188  1.87  0.  0.
   189  1.88  0.  0.
   190  1.89  0.  0.
   191  1.90  0.  0.
   192  1.91  0.  0.
   193  1.92  0.  0.
   194  1.93  0.  0.
   195  1.94  0.  0.
   196  1.95  0.  0.
   197  1.96  0.  0.
   198  1.97  0.  0.
   199  1.98  0.  0.
   200  1.99  0.  0.
   201  2.00  0.  0.
   202  2.01  0.  0.
   203  2.02  0.  0.
   204  2.03  0.  0.
   205  2.04  0.  0.
   206  2.05  0.  0.
   207  2.06  0.  0.
   208  2.07  0.  0.
   209  2.08  0.  0.
   210  2.09  0.  0.
   211  2.10  0.  0.
   212  2.11  0.  0.
   213  2.12  0.  0.
   214  2.13  0.  0.
   215  2.14  0.  0.
   216  2.15  0.  0.
   217  2.16  0.  0.
   218  2.17  0.  0.
   219  2.18  0.  0.
   220  2.19  0.  0.
   221  2.20  0.  0.
   222  2.21  0.  0.
   223  2.22  0.  0.
   224  2.23  0.  0.
   225  2.24  0.  0.
   226  2.25  0.  0.
   227  2.26  0.  0.
   228  2.27  0.  0.
   229  2.28  0.  0.
   230  2.29  0.  0.
   231  2.30  0.  0.
   232  2.31  0.  0.
   233  2.32  0.  0.
   234  2.33  0.  0.
   235  2.34  0.  0.
   236  2.35  0.  0.
   237  2.36  0.  0.
   238  2.37  0.  0.
   239  2.38  0.  0.
   240  2.39  0.  0.
   241  2.40  0.  0.
   242  2.41  0.  0.
   243  2.42  0.  0.
   244  2.43  0.  0.
   245  2.44  0.  0.
   246  2.45  0.  0.
   247  2.46  0.  0.
   248  2.47  0.  0.
   249  2.48  0.  0.
   250  2.49  0.  0.
   251  2.50  0.  0.
   252  2.51  0.  0.
   253  2.52  0.  0.
   254  2.53  0.  0.
   255  2.54  0.  0.
   256  2.55  0.  0.
   257  2.56  0.  0.
   258  2.57  0.  0.
   259  2.58  0.  0.
   260  2.59  0.  0.
   261  2.60  0.  0.
   262  2.61  0.  0.
   263  2.62  0.  0.
   264  2.63  0.  0.
   265  2.64  0.  0.
   266  2.65  0.  0.
   267  2.66  0.  0.
   268  2.67  0.  0.
   269  2.68  0.  0.
   270  2.69  0.  0.
   271  2.70  0.  0.
   272  2.71  0.  0.
   273  2.72  0.  0.
   274  2.73  0.  0.
   275  2.74  0.  0.
   276  2.75  0.  0.
   277  2.76  0.  0.
   278  2.77  0.  0.
   279  2.78  0.  0.
   280  2.79  0.  0.
   281  2.80  0.  0.
   282  2.81  0.  0.
   283  2.82  0.  0.
   284  2.83  0.  0.
   285  2.84  0.  0.
   286  2.85  0.  0.
   287  2.86  0.  0.
   288  2.87  0.  0.
   289  2.88  0.  0.
   290  2.89  0.  0.
   291  2.90  0.  0.
   292  2.91  0.  0.
   293  2.92  0.  0.
   294  2.93  0.  0.
   295  2.94  0.  0.
   296  2.95  0.  0.
   297  2.96  0.  0.
   298  2.97  0.  0.
   299  2.98  0.  0.
   300  2.99  0.  0.
   301  3.00  0.  0.
   302  3.01  0.  0.
   303  3.02  0.  0.
   304  3.03  0.  0.
   305  3.04  0.  0.
   306  3.05  0.  0.
   307  3.06  0.  0.
   308  3.07  0.  0.
   309  3.08  0.  0.
   310  3.09  0.  0.
   311  3.10  0.  0.
   312  3.11  0.  0.
   313  3.12  0.  0.
   314  3.13  0.  0.
   315  3.14  0.  0.
   316  3.15  0.  0.
   317  3.16  0.  0.
   318  3.17  0.  0.
   319  3.18  0.  0.
   320  3.19  0.  0.
   321  3.20  0.  0.
   322  3.21  0.  0.
   323  3.22  0.  0.
   324  3.23  0.  0.
   325  3.24  0.  0.
   326  3.25  0.  0.
   327  3.26  0.  0.
   328  3.27  0.  0.
   329  3.28  0.  0.
   330  3.29  0.  0.
   331  3.30  0.  0.
   332  3.31  0.  0.
   333  3.32  0.  0.
   334  3.33  0.  0.
   335  3.34  0.  0.
   336  3.35  0.  0.
   337  3.36  0.  0.
   338  3.37  0.  0.
   339  3.38  0.  0.
   340  3.39  0.  0.
   341  3.40  0.  0.
   342  3.41  0.  0.
   343  3.42  0.  0.
   344  3.43  0.  0.
   345  3.44  0.  0.
   346  3.45  0.  0.
   347  3.46  0.  0.
   348  3.47  0.  0.
   349  3.48  0.  0.
   350  3.49  0.  0.
   351  3.50  0.  0.
   352  3.51  0.  0.
   353  3.52  0.  0.
   354  3.53  0.  0.
   355  3.54  0.  0.
   356  3.55  0.  0.
   357  3.56  0.  0.
   358  3.57  0.  0.
   359  3.58  0.  0.
   360  3.59  0.  0.
   361  3.60  0.  0.
   362  3.61  0.  0.
   363  3.62  0.  0.
   364  3.63  0.  0.
   365  3.64  0.  0.
   366  3.65  0.  0.
   367  3.66  0.  0.
   368  3.67  0.  0.
   369  3.68  0.  0.
   370  3.69  0.  0.
   371  3.70  0.  0.
   372  3.71  0.  0.
   373  3.72  0.  0.
   374  3.73  0.  0.
   375  3.74  0.  0.
   376  3.75  0.  0.
   377  3.76  0.  0.
   378  3.77  0.  0.
   379  3.78  0.  0.
   380  3.79  0.  0.
   381  3.80  0.  0.
   382  3.81  0.  0.
   383  3.82  0.  0.
   384  3.83  0.  0.
   385  3.84  0.  0.
   386  3.85  0.  0.
   387  3.86  0.  0.
   388  3.87  0.  0.
   389  3.88  0.  0.
   390  3.89  0.  0.
   391  3.90  0.  0.
   392  3.91  0.  0.
   393  3.92  0.  0.
   394  3.93  0.  0.
   395  3.94  0.  0.
   396  3.95  0.  0.
   397  3.96  0.  0.
   398  3.97  0.  0.
   399  3.98  0.  0.
   400  3.99  0.  0.
   1                         4.5437800964642E+00  5.7773682212334E-01
     1  0.0000000000000E+00  2.6505153072343E-09 -9.9269554659775E-09
     2  1.0000000000000E-02  1.7235355215020E-03 -1.5687925104172E-03
     3  2.0000000000000E-02  6.8848834835053E-03 -6.2560993024926E-03
     4  3.0000000000000E-02  1.5456359662210E-02 -1.4005009187431E-02
     5  4.0000000000000E-02  2.7392127381315E-02 -2.4721667673138E-02
     6  5.0000000000000E-02  4.2628647552671E-02 -3.8276752536802E-02
     7  6.0000000000000E-02  6.1085297842183E-02 -5.4507498751030E-02
     8  7.0000000000000E-02  8.2665150343425E-02 -7.3220232926905E-02
     9  8.0000000000000E-02  1.0725589449095E-01 -9.4193367510384E-02
    10  9.0000000000000E-02  1.3473088957186E-01 -1.1718079609469E-01
    11  1.0000000000000E-01  1.6495032914524E-01 -1.4191562357103E-01
    12  1.1000000000000E-01  1.9776249799836E-01 -1.6811415860003E-01
    13  1.2000000000000E-01  2.3300510098840E-01 -1.9548009117115E-01
    14  1.3000000000000E-01  2.7050664226590E-01 -2.2370877492978E-01
    15  1.4000000000000E-01  3.1008783296610E-01 -2.5249153255224E-01
    16  1.5000000000000E-01  3.5156300549473E-01 -2.8151990276669E-01
    17  1.6000000000000E-01  3.9474151302171E-01 -3.1048974964124E-01
    18  1.7000000000000E-01  4.3942909371721E-01 -3.3910515844605E-01
    19  1.8000000000000E-01  4.8542918059792E-01 -3.6708204766002E-01
    20  1.9000000000000E-01  5.3254413956576E-01 -3.9415143342109E-01
    21  2.0000000000000E-01  5.8057642027752E-01 -4.2006229076400E-01
    22  2.1000000000000E-01  6.2932960683584E-01 -4.4458396517655E-01
    23  2.2000000000000E-01  6.7860935788583E-01 -4.6750809813457E-01
    24  2.3000000000000E-01  7.2822422847979E-01 -4.8865004112695E-01
    25  2.4000000000000E-01  7.7798636897267E-01 -5.0784974401999E-01
    26  2.5000000000000E-01  8.2771209916756E-01 -5.2497211518755E-01
    27  2.6000000000000E-01  8.7722235887853E-01 -5.3990686240030E-01
    28  2.7000000000000E-01  9.2634303895088E-01 -5.5256783477012E-01
    29  2.8000000000000E-01  9.7490519951247E-01 -5.6289189684044E-01
    30  2.9000000000000E-01  1.0227451847631E+00 -5.7083737596397E-01
    31  3.0000000000000E-01  1.0697046458855E+00 -5.7638213319689E-01
    32  3.1000000000000E-01  1.1156304856292E+00 -5.7952131586503E-01
    33  3.2000000000000E-01  1.1603747397358E+00 -5.8026485655033E-01
    34  3.3000000000000E-01  1.2037944116024E+00 -5.7863478835863E-01
    35  3.4000000000000E-01  1.2457512773894E+00 -5.7466244985381E-01
    36  3.5000000000000E-01  1.2861116791602E+00 -5.6838565489703E-01
    37  3.6000000000000E-01  1.3247463235726E+00 -5.5984590277547E-01
    38  3.7000000000000E-01  1.3615301031346E+00 -5.4908570243705E-01
    39  3.8000000000000E-01  1.3963419561009E+00 -5.3614608140033E-01
    40  3.9000000000000E-01  1.4290647797396E+00 -5.2106434505330E-01
    41  4.0000000000000E-01  1.4595854099721E+00 -5.0387214569664E-01
    42  4.1000000000000E-01  1.4877946783252E+00 -4.8459391296680E-01
    43  4.2000000000000E-01  1.5135875547741E+00 -4.6324568836070E-01
    44  4.3000000000000E-01  1.5368633824596E+00 -4.3983439667448E-01
    45  4.4000000000000E-01  1.5575262074835E+00 -4.1435757648158E-01
    46  4.5000000000000E-01  1.5754852040950E+00 -3.8680358054878E-01
    47  4.6000000000000E-01  1.5906551926355E+00 -3.5715224556935E-01
    48  4.7000000000000E-01  1.6029572446894E+00 -3.2537601904047E-01
    49  4.8000000000000E-01  1.6123193670489E+00 -2.9144151978088E-01
    50  4.9000000000000E-01  1.6186772534228E+00 -2.5531149773289E-01
    51  5.0000000000000E-01  1.6219750903498E+00 -2.1694714856031E-01
    52  5.1000000000000E-01  1.6221664015955E+00 -1.7631072937266E-01
    53  5.2000000000000E-01  1.6192149134497E+00 -1.3336841388340E-01
    54  5.3000000000000E-01  1.6130954218626E+00 -8.8093318628931E-02
    55  5.4000000000000E-01  1.6037946412922E+00 -4.0468626692717E-02
    56  5.5000000000000E-01  1.5913120145114E+00  9.5092681850233E-03
    57  5.6000000000000E-01  1.5756604624654E+00  6.1827676088740E-02
    58  5.7000000000000E-01  1.5568670535804E+00  1.1645466307856E-01
    59  5.8000000000000E-01  1.5349735727117E+00  1.7333631842413E-01
    60  5.9000000000000E-01  1.5100369711586E+00  2.3239431093063E-01
    61  6.0000000000000E-01  1.4821296808543E+00  2.9352380329102E-01
    62  6.1000000000000E-01  1.4513397779259E+00  3.5659178675246E-01
    63  6.2000000000000E-01  1.4177709832632E+00  4.2143589031077E-01
    64  6.3000000000000E-01  1.3815424905032E+00  4.8786370930882E-01
    65  6.4000000000000E-01  1.3427886148538E+00  5.5565268791714E-01
    66  6.5000000000000E-01  1.3016582593985E+00  6.2455057873425E-01
    67  6.6000000000000E-01  1.2583141988641E+00  6.9427649090447E-01
    68  6.7000000000000E-01  1.2129321842379E+00  7.6452252596499E-01
    69  6.8000000000000E-01  1.1656998750015E+00  8.3495598836363E-01
    70  6.9000000000000E-01  1.1168156090512E+00  9.0522214549962E-01
    71  7.0000000000000E-01  1.0664870235131E+00  9.7494750048993E-01
    72  7.1000000000000E-01  1.0149295425792E+00  1.0437435299060E+00
    73  7.2000000000000E-01  9.6236475111963E-01  1.1112108286940E+00
    74  7.3000000000000E-01  9.0901867511180E-01  1.1769435956038E+00
    75  7.4000000000000E-01  8.5511999182296E-01  1.2405343848898E+00
    76  7.5000000000000E-01  8.0089819414094E-01  1.3015790439846E+00
    77  7.6000000000000E-01  7.4658173444740E-01  1.3596817523933E+00
    78  7.7000000000000E-01  6.9239617393925E-01  1.4144600743211E+00
    79  7.8000000000000E-01  6.3856236332265E-01  1.4655499365668E+00
    80  7.9000000000000E-01  5.8529468032695E-01  1.5126104440198E+00
    81  8.0000000000000E-01  5.3279934852777E-01  1.5553284476461E+00
    82  8.1000000000000E-01  4.8127286054799E-01  1.5934227840919E+00
    83  8.2000000000000E-01  4.3090052685822E-01  1.6266481118602E+00
    84  8.3000000000000E-01  3.8185516916232E-01  1.6547982762940E+00
    85  8.4000000000000E-01  3.3429597478213E-01  1.6777091441624E+00
    86  8.5000000000000E-01  2.8836752560286E-01  1.6952608583000E+00
    87  8.6000000000000E-01  2.4419901207168E-01  1.7073794732701E+00
    88  8.7000000000000E-01  2.0190363952366E-01  1.7140379441865E+00
    89  8.8000000000000E-01  1.6157823081193E-01  1.7152564523678E+00
    90  8.9000000000000E-01  1.2330302591480E-01  1.7111020631820E+00
    91  9.0000000000000E-01  8.7141675953078E-02  1.7016877229835E+00
    92  9.1000000000000E-01  5.3141425945649E-02  1.6871706132237E+00
    93  9.2000000000000E-01  2.1333477726272E-02  1.6677498903676E+00
    94  9.3000000000000E-01 -8.2664781990684E-03  1.6436638499644E+00
    95  9.4000000000000E-01 -3.5657575402146E-02  1.6151865618797E+00
    96  9.5000000000000E-01 -6.0852944403038E-02  1.5826240311387E+00
    97  9.6000000000000E-01 -8.3878762737277E-02  1.5463099448921E+00
    98  9.7000000000000E-01 -1.0477320042945E-01  1.5066010705909E+00
    99  9.8000000000000E-01 -1.2358527976758E-01  1.4638723734585E+00
   100  9.9000000000000E-01 -1.4037366850101E-01  1.4185119227419E+00
   101  1.0000000000000E+00 -1.5520542535814E-01  1.3709156559898E+00
   102  1.0100000000000E+00 -1.6815471611302E-01  1.3214820687922E+00
   103  1.0200000000000E+00 -1.7930151734447E-01  1.2706068940769E+00
   104  1.0300000000000E+00 -1.8873032356122E-01  1.2186778303079E+00
   105  1.0400000000000E+00 -1.9652887155028E-01  1.1660693718882E+00
   106  1.0500000000000E+00 -2.0278689369783E-01  1.1131377879220E+00
   107  1.0600000000000E+00 -2.0759490968108E-01  1.0602162873957E+00
   108  1.0700000000000E+00 -2.1104306339945E-01  1.0076104000180E+00
   109  1.0800000000000E+00 -2.1322000937269E-01  9.5559359264938E-01
   110  1.0900000000000E+00 -2.1421184994860E-01  9.0440312962809E-01
   111  1.1000000000000E+00 -2.1410112430282E-01  8.5423620157615E-01
   112  1.1100000000000E+00 -2.1296588255248E-01  8.0524675277162E-01
   113  1.1200000000000E+00 -2.1087970578297E-01  7.5755240546698E-01
   114  1.1300000000000E+00 -2.0791262182593E-01  7.1124753459077E-01
   115  1.1400000000000E+00 -2.0413144883697E-01  6.6640616451720E-01
   116  1.1500000000000E+00 -1.9960007357418E-01  6.2308327622429E-01
   117  1.1600000000000E+00 -1.9437979365581E-01  5.8131638595232E-01
   118  1.1700000000000E+00 -1.8852970850767E-01  5.4112734490318E-01
   119  1.1800000000000E+00 -1.8210714322379E-01  5.0252430595024E-01
   120  1.1900000000000E+00 -1.7516808923100E-01  4.6550380138283E-01
   121  1.2000000000000E+00 -1.6776764578858E-01  4.3005287573404E-01
   122  1.2100000000000E+00 -1.5996044686896E-01  3.9615121880645E-01
   123  1.2200000000000E+00 -1.5180105884994E-01  3.6377324636453E-01
   124  1.2300000000000E+00 -1.4334433569005E-01  3.3289007955681E-01
   125  1.2400000000000E+00 -1.3464571980825E-01  3.0347137882171E-01
   126  1.2500000000000E+00 -1.2576147870237E-01  2.7548699366792E-01
   127  1.2600000000000E+00 -1.1674886938885E-01  2.4890839621089E-01
   128  1.2700000000000E+00 -1.0766622494290E-01  2.2370987340890E-01
   129  1.2800000000000E+00 -9.8572959731698E-02  1.9986946046526E-01
   130  1.2900000000000E+00 -8.9529492299389E-02  1.7736960563666E-01
   131  1.3000000000000E+00 -8.0597087206545E-02  1.5619756445639E-01
   132  1.3100000000000E+00 -7.1837619404384E-02  1.3634552899747E-01
   133  1.3200000000000E+00 -6.3313266879892E-02  1.1781050507382E-01
   134  1.3300000000000E+00 -5.5086139273065E-02  1.0059395697446E-01
   135  1.3400000000000E+00 -4.7217851903684E-02  8.4701245311343E-02
   136  1.3500000000000E+00 -3.9769056119363E-02  7.0140888724191E-02
   137  1.3600000000000E+00 -3.2798936514511E-02  5.6923676892938E-02
   138  1.3700000000000E+00 -2.6364702278481E-02  4.5061735091266E-02
   139  1.3800000000000E+00 -2.0520942280992E-02  3.4566894972374E-02
   140  1.3900000000000E+00 -1.5318447151891E-02  2.5444747399667E-02
   141  1.4000000000000E+00 -1.0806215790176E-02  1.7707384693352E-02
   142  1.4100000000000E+00 -7.0295754433062E-03  1.1367361272152E-02
   143  1.4200000000000E+00 -4.0286260167240E-03  6.4304759580416E-03
   144  1.4300000000000E+00 -1.8389151279327E-03  2.8971072114198E-03
   145  1.4400000000000E+00 -4.8420428428524E-04  7.5131476062841E-04
   146  1.4500000000000E+00 -6.2494824118008E-06  6.1715173469843E-06
   147  1.4600000000000E+00 -1.6911472030148E-06  2.7437513197345E-06
   148  1.4700000000000E+00  6.2747841787413E-07 -1.0317400372788E-06
   149  1.48  0.  0.
   150  1.49  0.  0.
   151  1.50  0.  0.
   152  1.51  0.  0.
   153  1.52  0.  0.
   154  1.53  0.  0.
   155  1.54  0.  0.
   156  1.55  0.  0.
   157  1.56  0.  0.
   158  1.57  0.  0.
   159  1.58  0.  0.
   160  1.59  0.  0.
   161  1.60  0.  0.
   162  1.61  0.  0.
   163  1.62  0.  0.
   164  1.63  0.  0.
   165  1.64  0.  0.
   166  1.65  0.  0.
   167  1.66  0.  0.
   168  1.67  0.  0.
   169  1.68  0.  0.
   170  1.69  0.  0.
   171  1.70  0.  0.
   172  1.71  0.  0.
   173  1.72  0.  0.
   174  1.73  0.  0.
   175  1.74  0.  0.
   176  1.75  0.  0.
   177  1.76  0.  0.
   178  1.77  0.  0.
   179  1.78  0.  0.
   180  1.79  0.  0.
   181  1.80  0.  0.
   182  1.81  0.  0.
   183  1.82  0.  0.
   184  1.83  0.  0.
   185  1.84  0.  0.
   186  1.85  0.  0.
   187  1.86  0.  0.
   188  1.87  0.  0.
   189  1.88  0.  0.
   190  1.89  0.  0.
   191  1.90  0.  0.
   192  1.91  0.  0.
   193  1.92  0.  0.
   194  1.93  0.  0.
   195  1.94  0.  0.
   196  1.95  0.  0.
   197  1.96  0.  0.
   198  1.97  0.  0.
   199  1.98  0.  0.
   200  1.99  0.  0.
   201  2.00  0.  0.
   202  2.01  0.  0.
   203  2.02  0.  0.
   204  2.03  0.  0.
   205  2.04  0.  0.
   206  2.05  0.  0.
   207  2.06  0.  0.
   208  2.07  0.  0.
   209  2.08  0.  0.
   210  2.09  0.  0.
   211  2.10  0.  0.
   212  2.11  0.  0.
   213  2.12  0.  0.
   214  2.13  0.  0.
   215  2.14  0.  0.
   216  2.15  0.  0.
   217  2.16  0.  0.
   218  2.17  0.  0.
   219  2.18  0.  0.
   220  2.19  0.  0.
   221  2.20  0.  0.
   222  2.21  0.  0.
   223  2.22  0.  0.
   224  2.23  0.  0.
   225  2.24  0.  0.
   226  2.25  0.  0.
   227  2.26  0.  0.
   228  2.27  0.  0.
   229  2.28  0.  0.
   230  2.29  0.  0.
   231  2.30  0.  0.
   232  2.31  0.  0.
   233  2.32  0.  0.
   234  2.33  0.  0.
   235  2.34  0.  0.
   236  2.35  0.  0.
   237  2.36  0.  0.
   238  2.37  0.  0.
   239  2.38  0.  0.
   240  2.39  0.  0.
   241  2.40  0.  0.
   242  2.41  0.  0.
   243  2.42  0.  0.
   244  2.43  0.  0.
   245  2.44  0.  0.
   246  2.45  0.  0.
   247  2.46  0.  0.
   248  2.47  0.  0.
   249  2.48  0.  0.
   250  2.49  0.  0.
   251  2.50  0.  0.
   252  2.51  0.  0.
   253  2.52  0.  0.
   254  2.53  0.  0.
   255  2.54  0.  0.
   256  2.55  0.  0.
   257  2.56  0.  0.
   258  2.57  0.  0.
   259  2.58  0.  0.
   260  2.59  0.  0.
   261  2.60  0.  0.
   262  2.61  0.  0.
   263  2.62  0.  0.
   264  2.63  0.  0.
   265  2.64  0.  0.
   266  2.65  0.  0.
   267  2.66  0.  0.
   268  2.67  0.  0.
   269  2.68  0.  0.
   270  2.69  0.  0.
   271  2.70  0.  0.
   272  2.71  0.  0.
   273  2.72  0.  0.
   274  2.73  0.  0.
   275  2.74  0.  0.
   276  2.75  0.  0.
   277  2.76  0.  0.
   278  2.77  0.  0.
   279  2.78  0.  0.
   280  2.79  0.  0.
   281  2.80  0.  0.
   282  2.81  0.  0.
   283  2.82  0.  0.
   284  2.83  0.  0.
   285  2.84  0.  0.
   286  2.85  0.  0.
   287  2.86  0.  0.
   288  2.87  0.  0.
   289  2.88  0.  0.
   290  2.89  0.  0.
   291  2.90  0.  0.
   292  2.91  0.  0.
   293  2.92  0.  0.
   294  2.93  0.  0.
   295  2.94  0.  0.
   296  2.95  0.  0.
   297  2.96  0.  0.
   298  2.97  0.  0.
   299  2.98  0.  0.
   300  2.99  0.  0.
   301  3.00  0.  0.
   302  3.01  0.  0.
   303  3.02  0.  0.
   304  3.03  0.  0.
   305  3.04  0.  0.
   306  3.05  0.  0.
   307  3.06  0.  0.
   308  3.07  0.  0.
   309  3.08  0.  0.
   310  3.09  0.  0.
   311  3.10  0.  0.
   312  3.11  0.  0.
   313  3.12  0.  0.
   314  3.13  0.  0.
   315  3.14  0.  0.
   316  3.15  0.  0.
   317  3.16  0.  0.
   318  3.17  0.  0.
   319  3.18  0.  0.
   320  3.19  0.  0.
   321  3.20  0.  0.
   322  3.21  0.  0.
   323  3.22  0.  0.
   324  3.23  0.  0.
   325  3.24  0.  0.
   326  3.25  0.  0.
   327  3.26  0.  0.
   328  3.27  0.  0.
   329  3.28  0.  0.
   330  3.29  0.  0.
   331  3.30  0.  0.
   332  3.31  0.  0.
   333  3.32  0.  0.
   334  3.33  0.  0.
   335  3.34  0.  0.
   336  3.35  0.  0.
   337  3.36  0.  0.