K     ONCVPSP-4.0.1  r_core=   1.35007   1.45055   1.60582
     19.0000      9.0000      231019    zatom,zion,pspd
     8       2   2     4   400     0    pspcod,pspxc,lmax,lloc,mmax,r2well
  3.99000000  5.00000000  0.00000000    rchrg fchrg qchrg
     2     2     2     0     0    nproj
     1     1           extension_switch
   0                         1.1085702406224E+01  8.4997199743276E-01
     1  0.0000000000000E+00 -2.4667627940289E-09  1.2645551772383E-08
     2  1.0000000000000E-02  6.0833371045876E-02 -4.6797304548205E-02
     3  2.0000000000000E-02  1.2153470807762E-01 -9.3179532345743E-02
     4  3.0000000000000E-02  1.8197327225766E-01 -1.3873865180234E-01
     5  4.0000000000000E-02  2.4202088666072E-01 -1.8308056963181E-01
     6  5.0000000000000E-02  3.0155314678060E-01 -2.2583172330337E-01
     7  6.0000000000000E-02  3.6045054831050E-01 -2.6664523073363E-01
     8  7.0000000000000E-02  4.1859950759933E-01 -3.0520646488594E-01
     9  8.0000000000000E-02  4.7589325265311E-01 -3.4123793358918E-01
    10  9.0000000000000E-02  5.3223256552940E-01 -3.7450336017081E-01
    11  1.0000000000000E-01  5.8752636039587E-01 -4.0481087808529E-01
    12  1.1000000000000E-01  6.4169208531660E-01 -4.3201527222630E-01
    13  1.2000000000000E-01  6.9465593990536E-01 -4.5601922061258E-01
    14  1.3000000000000E-01  7.4635290525271E-01 -4.7677351217607E-01
    15  1.4000000000000E-01  7.9672658689782E-01 -4.9427623897358E-01
    16  1.5000000000000E-01  8.4572887597763E-01 -5.0857098379728E-01
    17  1.6000000000000E-01  8.9331943794670E-01 -5.1974404637680E-01
    18  1.7000000000000E-01  9.3946504232520E-01 -5.2792077266051E-01
    19  1.8000000000000E-01  9.8413875070587E-01 -5.3326107156712E-01
    20  1.9000000000000E-01  1.0273189836491E+00 -5.3595422167206E-01
    21  2.0000000000000E-01  1.0689884900385E+00 -5.3621308613820E-01
    22  2.1000000000000E-01  1.1091332448898E+00 -5.3426786746396E-01
    23  2.2000000000000E-01  1.1477413034484E+00 -5.3035954400988E-01
    24  2.3000000000000E-01  1.1848016406253E+00 -5.2473313754255E-01
    25  2.4000000000000E-01  1.2203030053862E+00 -5.1763096503602E-01
    26  2.5000000000000E-01  1.2542328195979E+00 -5.0928602860171E-01
    27  2.6000000000000E-01  1.2865761500560E+00 -4.9991569465538E-01
    28  2.7000000000000E-01  1.3173147809782E+00 -4.8971580732714E-01
    29  2.8000000000000E-01  1.3464264121770E+00 -4.7885537180455E-01
    30  2.9000000000000E-01  1.3738840054694E+00 -4.6747193096271E-01
    31  3.0000000000000E-01  1.3996552986875E+00 -4.5566774354669E-01
    32  3.1000000000000E-01  1.4237025030040E+00 -4.4350685464920E-01
    33  3.2000000000000E-01  1.4459821952426E+00 -4.3101312965213E-01
    34  3.3000000000000E-01  1.4664454125062E+00 -4.1816930159634E-01
    35  3.4000000000000E-01  1.4850379519127E+00 -4.0491705957179E-01
    36  3.5000000000000E-01  1.5017008735808E+00 -3.9115818266540E-01
    37  3.6000000000000E-01  1.5163712003614E+00 -3.7675670077424E-01
    38  3.7000000000000E-01  1.5289828032594E+00 -3.6154204069347E-01
    39  3.8000000000000E-01  1.5394674571470E+00 -3.4531309382463E-01
    40  3.9000000000000E-01  1.5477560473267E+00 -3.2784312111032E-01
    41  4.0000000000000E-01  1.5537799038420E+00 -3.0888539184134E-01
    42  4.1000000000000E-01  1.5574722372606E+00 -2.8817943622400E-01
    43  4.2000000000000E-01  1.5587696470177E+00 -2.6545777741270E-01
    44  4.3000000000000E-01  1.5576136713840E+00 -2.4045299742338E-01
    45  4.4000000000000E-01  1.5539523467568E+00 -2.1290498320248E-01
    46  4.5000000000000E-01  1.5477417432950E+00 -1.8256819432002E-01
    47  4.6000000000000E-01  1.5389474439510E+00 -1.4921879239688E-01
    48  4.7000000000000E-01  1.5275459347001E+00 -1.1266147450614E-01
    49  4.8000000000000E-01  1.5135258752102E+00 -7.2735858362358E-02
    50  4.9000000000000E-01  1.4968892213157E+00 -2.9322276022054E-02
    51  5.0000000000000E-01  1.4776521734016E+00  1.7653155132302E-02
    52  5.1000000000000E-01  1.4558459281258E+00  6.8214300416751E-02
    53  5.2000000000000E-01  1.4315172147229E+00  1.2233171367451E-01
    54  5.3000000000000E-01  1.4047286013757E+00  1.7992036002888E-01
    55  5.4000000000000E-01  1.3755585617064E+00  2.4083841325099E-01
    56  5.5000000000000E-01  1.3441012962402E+00  3.0488716272294E-01
    57  5.6000000000000E-01  1.3104663086176E+00  3.7181204148104E-01
    58  5.7000000000000E-01  1.2747777412775E+00  4.4130476305861E-01
    59  5.8000000000000E-01  1.2371734801866E+00  5.1300653133867E-01
    60  5.9000000000000E-01  1.1978040428533E+00  5.8651226488467E-01
    61  6.0000000000000E-01  1.1568312682245E+00  6.6137575575183E-01
    62  6.1000000000000E-01  1.1144268310371E+00  7.3711566305548E-01
    63  6.2000000000000E-01  1.0707706066829E+00  8.1322222402838E-01
    64  6.3000000000000E-01  1.0260489155828E+00  8.8916455031580E-01
    65  6.4000000000000E-01  9.8045267837498E-01  9.6439836516483E-01
    66  6.5000000000000E-01  9.3417551486793E-01  1.0383740282286E+00
    67  6.6000000000000E-01  8.8741182064101E-01  1.1105446891135E+00
    68  6.7000000000000E-01  8.4035485538645E-01  1.1803744086712E+00
    69  6.8000000000000E-01  7.9319487656698E-01  1.2473460884097E+00
    70  6.9000000000000E-01  7.4611735072754E-01  1.3109690532369E+00
    71  7.0000000000000E-01  6.9930127287817E-01  1.3707861409269E+00
    72  7.1000000000000E-01  6.5291762180252E-01  1.4263801630288E+00
    73  7.2000000000000E-01  6.0712797600173E-01  1.4773796161555E+00
    74  7.3000000000000E-01  5.6208331133036E-01  1.5234635393519E+00
    75  7.4000000000000E-01  5.1792299730307E-01  1.5643654321828E+00
    76  7.5000000000000E-01  4.7477400464237E-01  1.5998761688407E+00
    77  7.6000000000000E-01  4.3275033200006E-01  1.6298458654988E+00
    78  7.7000000000000E-01  3.9195265502500E-01  1.6541846808024E+00
    79  7.8000000000000E-01  3.5246819617585E-01  1.6728625523005E+00
    80  7.9000000000000E-01  3.1437080900085E-01  1.6859078942326E+00
    81  8.0000000000000E-01  2.7772126613171E-01  1.6934053038997E+00
    82  8.1000000000000E-01  2.4256773607046E-01  1.6954923443544E+00
    83  8.2000000000000E-01  2.0894643007934E-01  1.6923554898942E+00
    84  8.3000000000000E-01  1.7688239720159E-01  1.6842253374010E+00
    85  8.4000000000000E-01  1.4639044271772E-01  1.6713712005714E+00
    86  8.5000000000000E-01  1.1747614324034E-01  1.6540952152247E+00
    87  8.6000000000000E-01  9.0136930215020E-02  1.6327260919014E+00
    88  8.7000000000000E-01  6.4363212856661E-02  1.6076126567255E+00
    89  8.8000000000000E-01  4.0139511524585E-02  1.5791173228893E+00
    90  8.9000000000000E-01  1.7445573220886E-02  1.5476096331267E+00
    91  9.0000000000000E-01 -3.7425577323566E-03  1.5134600082419E+00
    92  9.1000000000000E-01 -2.3451538757389E-02  1.4770338282840E+00
    93  9.2000000000000E-01 -4.1709820121154E-02  1.4386859615399E+00
    94  9.3000000000000E-01 -5.8546847203417E-02  1.3987558424328E+00
    95  9.4000000000000E-01 -7.3992389443447E-02  1.3575631830204E+00
    96  9.5000000000000E-01 -8.8076007485068E-02  1.3154043844772E+00
    97  9.6000000000000E-01 -1.0082666577697E-01  1.2725496951777E+00
    98  9.7000000000000E-01 -1.1227249345411E-01  1.2292411412408E+00
    99  9.8000000000000E-01 -1.2244069183397E-01  1.1856912341545E+00
   100  9.9000000000000E-01 -1.3135758242019E-01  1.1420824388946E+00
   101  1.0000000000000E+00 -1.3904878501788E-01  1.0985673652625E+00
   102  1.0100000000000E+00 -1.4553951154015E-01  1.0552696255219E+00
   103  1.0200000000000E+00 -1.5085495741832E-01  1.0122852832554E+00
   104  1.0300000000000E+00 -1.5502076930673E-01  9.6968480212439E-01
   105  1.0400000000000E+00 -1.5806356507709E-01  9.2751538927861E-01
   106  1.0500000000000E+00 -1.6001147999350E-01  8.8580361686239E-01
   107  1.0600000000000E+00 -1.6089471149338E-01  8.4455819663234E-01
   108  1.0700000000000E+00 -1.6074603421401E-01  8.0377277736101E-01
   109  1.0800000000000E+00 -1.5960125681224E-01  7.6342863253509E-01
   110  1.0900000000000E+00 -1.5749959257905E-01  7.2349710528813E-01
   111  1.1000000000000E+00 -1.5448391909989E-01  6.8394170291126E-01
   112  1.1100000000000E+00 -1.5060093440827E-01  6.4472007976184E-01
   113  1.1200000000000E+00 -1.4590191448891E-01  6.0579349206275E-01
   114  1.1300000000000E+00 -1.4044392403482E-01  5.6714040906844E-01
   115  1.1400000000000E+00 -1.3429022812401E-01  5.2876087391446E-01
   116  1.1500000000000E+00 -1.2751040749855E-01  4.9067860352897E-01
   117  1.1600000000000E+00 -1.2018029873602E-01  4.5294233831638E-01
   118  1.1700000000000E+00 -1.1238175531939E-01  4.1562641242099E-01
   119  1.1800000000000E+00 -1.0420223016494E-01  3.7883053480466E-01
   120  1.1900000000000E+00 -9.5734184593836E-02  3.4267879116485E-01
   121  1.2000000000000E+00 -8.7074333070897E-02  3.0731789648175E-01
   122  1.2100000000000E+00 -7.8322737165405E-02  2.7291474676769E-01
   123  1.2200000000000E+00 -6.9581765963885E-02  2.3965333588192E-01
   124  1.2300000000000E+00 -6.0954943566668E-02  2.0773111898303E-01
   125  1.2400000000000E+00 -5.2545707193975E-02  1.7735491770093E-01
   126  1.2500000000000E+00 -4.4456101768387E-02  1.4873647320773E-01
   127  1.2600000000000E+00 -3.6785438628696E-02  1.2208776509280E-01
   128  1.2700000000000E+00 -2.9628946167857E-02  9.7616182675476E-02
   129  1.2800000000000E+00 -2.3076444722327E-02  7.5519819133312E-02
   130  1.2900000000000E+00 -1.7211058405091E-02  5.5978935511469E-02
   131  1.3000000000000E+00 -1.2108590717132E-02  3.9155279971125E-02
   132  1.3100000000000E+00 -7.8359971043432E-03  2.5200249576058E-02
   133  1.3200000000000E+00 -4.4495873091837E-03  1.4235124495740E-02
   134  1.3300000000000E+00 -1.9952115301353E-03  6.3513275106502E-03
   135  1.3400000000000E+00 -5.0046023320497E-04  1.5856661184365E-03
   136  1.3500000000000E+00 -8.0576462832837E-07  2.6009624123851E-06
   137  1.3600000000000E+00 -3.6165003243775E-06  1.1413398261449E-05
   138  1.3700000000000E+00  8.4838419285077E-07 -2.6839303146217E-06
   139  1.38  0. -0.
   140  1.39  0.  0.
   141  1.40  0.  0.
   142  1.41  0.  0.
   143  1.42  0.  0.
   144  1.43  0.  0.
   145  1.44  0.  0.
   146  1.45  0.  0.
   147  1.46  0.  0.
   148  1.47  0.  0.
   149  1.48  0.  0.
   150  1.49  0.  0.
   151  1.50  0.  0.
   152  1.51  0.  0.
   153  1.52  0.  0.
   154  1.53  0.  0.
   155  1.54  0.  0.
   156  1.55  0.  0.
   157  1.56  0.  0.
   158  1.57  0.  0.
   159  1.58  0.  0.
   160  1.59  0.  0.
   161  1.60  0.  0.
   162  1.61  0.  0.
   163  1.62  0.  0.
   164  1.63  0.  0.
   165  1.64  0.  0.
   166  1.65  0.  0.
   167  1.66  0.  0.
   168  1.67  0.  0.
   169  1.68  0.  0.
   170  1.69  0.  0.
   171  1.70  0.  0.
   172  1.71  0.  0.
   173  1.72  0.  0.
   174  1.73  0.  0.
   175  1.74  0.  0.
   176  1.75  0.  0.
   177  1.76  0.  0.
   178  1.77  0.  0.
   179  1.78  0.  0.
   180  1.79  0.  0.
   181  1.80  0.  0.
   182  1.81  0.  0.
   183  1.82  0.  0.
   184  1.83  0.  0.
   185  1.84  0.  0.
   186  1.85  0.  0.
   187  1.86  0.  0.
   188  1.87  0.  0.
   189  1.88  0.  0.
   190  1.89  0.  0.
   191  1.90  0.  0.
   192  1.91  0.  0.
   193  1.92  0.  0.
   194  1.93  0.  0.
   195  1.94  0.  0.
   196  1.95  0.  0.
   197  1.96  0.  0.
   198  1.97  0.  0.
   199  1.98  0.  0.
   200  1.99  0.  0.
   201  2.00  0.  0.
   202  2.01  0.  0.
   203  2.02  0.  0.
   204  2.03  0.  0.
   205  2.04  0.  0.
   206  2.05  0.  0.
   207  2.06  0.  0.
   208  2.07  0.  0.
   209  2.08  0.  0.
   210  2.09  0.  0.
   211  2.10  0.  0.
   212  2.11  0.  0.
   213  2.12  0.  0.
   214  2.13  0.  0.
   215  2.14  0.  0.
   216  2.15  0.  0.
   217  2.16  0.  0.
   218  2.17  0.  0.
   219  2.18  0.  0.
   220  2.19  0.  0.
   221  2.20  0.  0.
   222  2.21  0.  0.
   223  2.22  0.  0.
   224  2.23  0.  0.
   225  2.24  0.  0.
   226  2.25  0.  0.
   227  2.26  0.  0.
   228  2.27  0.  0.
   229  2.28  0.  0.
   230  2.29  0.  0.
   231  2.30  0.  0.
   232  2.31  0.  0.
   233  2.32  0.  0.
   234  2.33  0.  0.
   235  2.34  0.  0.
   236  2.35  0.  0.
   237  2.36  0.  0.
   238  2.37  0.  0.
   239  2.38  0.  0.
   240  2.39  0.  0.
   241  2.40  0.  0.
   242  2.41  0.  0.
   243  2.42  0.  0.
   244  2.43  0.  0.
   245  2.44  0.  0.
   246  2.45  0.  0.
   247  2.46  0.  0.
   248  2.47  0.  0.
   249  2.48  0.  0.
   250  2.49  0.  0.
   251  2.50  0.  0.
   252  2.51  0.  0.
   253  2.52  0.  0.
   254  2.53  0.  0.
   255  2.54  0.  0.
   256  2.55  0.  0.
   257  2.56  0.  0.
   258  2.57  0.  0.
   259  2.58  0.  0.
   260  2.59  0.  0.
   261  2.60  0.  0.
   262  2.61  0.  0.
   263  2.62  0.  0.
   264  2.63  0.  0.
   265  2.64  0.  0.
   266  2.65  0.  0.
   267  2.66  0.  0.
   268  2.67  0.  0.
   269  2.68  0.  0.
   270  2.69  0.  0.
   271  2.70  0.  0.
   272  2.71  0.  0.
   273  2.72  0.  0.
   274  2.73  0.  0.
   275  2.74  0.  0.
   276  2.75  0.  0.
   277  2.76  0.  0.
   278  2.77  0.  0.
   279  2.78  0.  0.
   280  2.79  0.  0.
   281  2.80  0.  0.
   282  2.81  0.  0.
   283  2.82  0.  0.
   284  2.83  0.  0.
   285  2.84  0.  0.
   286  2.85  0.  0.
   287  2.86  0.  0.
   288  2.87  0.  0.
   289  2.88  0.  0.
   290  2.89  0.  0.
   291  2.90  0.  0.
   292  2.91  0.  0.
   293  2.92  0.  0.
   294  2.93  0.  0.
   295  2.94  0.  0.
   296  2.95  0.  0.
   297  2.96  0.  0.
   298  2.97  0.  0.
   299  2.98  0.  0.
   300  2.99  0.  0.
   301  3.00  0.  0.
   302  3.01  0.  0.
   303  3.02  0.  0.
   304  3.03  0.  0.
   305  3.04  0.  0.
   306  3.05  0.  0.
   307  3.06  0.  0.
   308  3.07  0.  0.
   309  3.08  0.  0.
   310  3.09  0.  0.
   311  3.10  0.  0.
   312  3.11  0.  0.
   313  3.12  0.  0.
   314  3.13  0.  0.
   315  3.14  0.  0.
   316  3.15  0.  0.
   317  3.16  0.  0.
   318  3.17  0.  0.
   319  3.18  0.  0.
   320  3.19  0.  0.
   321  3.20  0.  0.
   322  3.21  0.  0.
   323  3.22  0.  0.
   324  3.23  0.  0.
   325  3.24  0.  0.
   326  3.25  0.  0.
   327  3.26  0.  0.
   328  3.27  0.  0.
   329  3.28  0.  0.
   330  3.29  0.  0.
   331  3.30  0.  0.
   332  3.31  0.  0.
   333  3.32  0.  0.
   334  3.33  0.  0.
   335  3.34  0.  0.
   336  3.35  0.  0.
   337  3.36  0.  0.
   338  3.37  0.  0.
   339  3.38  0.  0.
   340  3.39  0.  0.
   341  3.40  0.  0.
   342  3.41  0.  0.
   343  3.42  0.  0.
   344  3.43  0.  0.
   345  3.44  0.  0.
   346  3.45  0.  0.
   347  3.46  0.  0.
   348  3.47  0.  0.
   349  3.48  0.  0.
   350  3.49  0.  0.
   351  3.50  0.  0.
   352  3.51  0.  0.
   353  3.52  0.  0.
   354  3.53  0.  0.
   355  3.54  0.  0.
   356  3.55  0.  0.
   357  3.56  0.  0.
   358  3.57  0.  0.
   359  3.58  0.  0.
   360  3.59  0.  0.
   361  3.60  0.  0.
   362  3.61  0.  0.
   363  3.62  0.  0.
   364  3.63  0.  0.
   365  3.64  0.  0.
   366  3.65  0.  0.
   367  3.66  0.  0.
   368  3.67  0.  0.
   369  3.68  0.  0.
   370  3.69  0.  0.
   371  3.70  0.  0.
   372  3.71  0.  0.
   373  3.72  0.  0.
   374  3.73  0.  0.
   375  3.74  0.  0.
   376  3.75  0.  0.
   377  3.76  0.  0.
   378  3.77  0.  0.
   379  3.78  0.  0.
   380  3.79  0.  0.
   381  3.80  0.  0.
   382  3.81  0.  0.
   383  3.82  0.  0.
   384  3.83  0.  0.
   385  3.84  0.  0.
   386  3.85  0.  0.
   387  3.86  0.  0.
   388  3.87  0.  0.
   389  3.88  0.  0.
   390  3.89  0.  0.
   391  3.90  0.  0.
   392  3.91  0.  0.
   393  3.92  0.  0.
   394  3.93  0.  0.
   395  3.94  0.  0.
   396  3.95  0.  0.
   397  3.96  0.  0.
   398  3.97  0.  0.
   399  3.98  0.  0.
   400  3.99  0.  0.
   1                         4.5431648576677E+00  5.7760974518398E-01
     1  0.0000000000000E+00  2.6608757142110E-09 -9.9717859941562E-09
     2  1.0000000000000E-02  1.7242839477077E-03 -1.5707480472479E-03
     3  2.0000000000000E-02  6.8878623249569E-03 -6.2638660408524E-03
     4  3.0000000000000E-02  1.5463006618055E-02 -1.4022277817711E-02
     5  4.0000000000000E-02  2.7403807328698E-02 -2.4751858076747E-02
     6  5.0000000000000E-02  4.2646625484935E-02 -3.8322914080508E-02
     7  6.0000000000000E-02  6.1110713822942E-02 -5.4572218977008E-02
     8  7.0000000000000E-02  8.2698996980676E-02 -7.3305556725096E-02
     9  8.0000000000000E-02  1.0729899738356E-01 -9.4300728634800E-02
    10  9.0000000000000E-02  1.3478389111958E-01 -1.1731096261976E-01
    11  1.0000000000000E-01  1.6501367604439E-01 -1.4206865858496E-01
    12  1.1000000000000E-01  1.9783643266942E-01 -1.6828939710361E-01
    13  1.2000000000000E-01  2.3308965710097E-01 -1.9567613380111E-01
    14  1.3000000000000E-01  2.7060164444227E-01 -2.2392349876283E-01
    15  1.4000000000000E-01  3.1019290065884E-01 -2.5272211887631E-01
    16  1.5000000000000E-01  3.5167756094805E-01 -2.8176288133765E-01
    17  1.6000000000000E-01  3.9486479314229E-01 -3.1074105858495E-01
    18  1.7000000000000E-01  4.3956016560019E-01 -3.3936021862379E-01
    19  1.8000000000000E-01  4.8556696037873E-01 -3.6733584999795E-01
    20  1.9000000000000E-01  5.3268741420026E-01 -3.9439863741748E-01
    21  2.0000000000000E-01  5.8072387179325E-01 -4.2029733213896E-01
    22  2.1000000000000E-01  6.2947983854649E-01 -4.4480117042159E-01
    23  2.2000000000000E-01  6.7876092202147E-01 -4.6770180355922E-01
    24  2.3000000000000E-01  7.2837565465655E-01 -4.8881471388991E-01
    25  2.4000000000000E-01  7.7813619290913E-01 -5.0798010257510E-01
    26  2.5000000000000E-01  8.2785889105071E-01 -5.2506324657216E-01
    27  2.6000000000000E-01  8.7736475079020E-01 -5.3995433384467E-01
    28  2.7000000000000E-01  9.2647975078585E-01 -5.5256779721152E-01
    29  2.8000000000000E-01  9.7503506285134E-01 -5.6284117808131E-01
    30  2.9000000000000E-01  1.0228671642064E+00 -5.7073356141788E-01
    31  3.0000000000000E-01  1.0698178574088E+00 -5.7622363241357E-01
    32  3.1000000000000E-01  1.1157342115814E+00 -5.7930741331319E-01
    33  3.2000000000000E-01  1.1604684401739E+00 -5.7999574545601E-01
    34  3.3000000000000E-01  1.2038777317313E+00 -5.7831158674343E-01
    35  3.4000000000000E-01  1.2458240509586E+00 -5.7428719828199E-01
    36  3.5000000000000E-01  1.2861739277534E+00 -5.6796129581706E-01
    37  3.6000000000000E-01  1.3247982518113E+00 -5.5937624172197E-01
    38  3.7000000000000E-01  1.3615720899033E+00 -5.4857535173449E-01
    39  3.8000000000000E-01  1.3963745419857E+00 -5.3560038737385E-01
    40  3.9000000000000E-01  1.4290886509494E+00 -5.2048930009530E-01
    41  4.0000000000000E-01  1.4596013790878E+00 -5.0327428685522E-01
    42  4.1000000000000E-01  1.4878036622864E+00 -4.8398020900467E-01
    43  4.2000000000000E-01  1.5135905505744E+00 -4.6262341747679E-01
    44  4.3000000000000E-01  1.5368614410675E+00 -4.3921101727940E-01
    45  4.4000000000000E-01  1.5575204065447E+00 -4.1374059356768E-01
    46  4.5000000000000E-01  1.5754766199982E+00 -3.8620041029305E-01
    47  4.6000000000000E-01  1.5906448725381E+00 -3.5657008085153E-01
    48  4.7000000000000E-01  1.6029461791017E+00 -3.2482169854617E-01
    49  4.8000000000000E-01  1.6123084635649E+00 -2.9092140329407E-01
    50  4.9000000000000E-01  1.6186673121616E+00 -2.5483135010097E-01
    51  5.0000000000000E-01  1.6219667816406E+00 -2.1651203464464E-01
    52  5.1000000000000E-01  1.6221602463903E+00 -1.7592492207888E-01
    53  5.2000000000000E-01  1.6192112668945E+00 -1.3303531710368E-01
    54  5.3000000000000E-01  1.6130944603938E+00 -8.7815406630124E-02
    55  5.4000000000000E-01  1.6037963535519E+00 -4.0247401153968E-02
    56  5.5000000000000E-01  1.5913161962982E+00  9.6733026364694E-03
    57  5.6000000000000E-01  1.5756667158549E+00  6.1935017365599E-02
    58  5.7000000000000E-01  1.5568747902643E+00  1.1650679804890E-01
    59  5.8000000000000E-01  1.5349820215185E+00  1.7333569053881E-01
    60  5.9000000000000E-01  1.5100451896325E+00  2.3234426972389E-01
    61  6.0000000000000E-01  1.4821365706885E+00  2.9342853677486E-01
    62  6.1000000000000E-01  1.4513441039638E+00  3.5645623806662E-01
    63  6.2000000000000E-01  1.4177713957128E+00  4.2126566029857E-01
    64  6.3000000000000E-01  1.3815375499401E+00  4.8766494696624E-01
    65  6.4000000000000E-01  1.3427768195346E+00  5.5543197089614E-01
    66  6.5000000000000E-01  1.3016380743563E+00  6.2431478627116E-01
    67  6.6000000000000E-01  1.2582840862237E+00  6.9403267168486E-01
    68  6.7000000000000E-01  1.2128906341608E+00  7.6427776352418E-01
    69  6.8000000000000E-01  1.1656454366600E+00  8.3471726665879E-01
    70  6.9000000000000E-01  1.1167469210265E+00  9.0499621726942E-01
    71  7.0000000000000E-01  1.0664028430260E+00  9.7474076094750E-01
    72  7.1000000000000E-01  1.0148287729827E+00  1.0435618981877E+00
    73  7.2000000000000E-01  9.6224646711676E-01  1.1110596393165E+00
    74  7.3000000000000E-01  9.0888214520753E-01  1.1768275019646E+00
    75  7.4000000000000E-01  8.5496469757084E-01  1.2404572765948E+00
    76  7.5000000000000E-01  8.0072384580905E-01  1.3015439794936E+00
    77  7.6000000000000E-01  7.4638828279657E-01  1.3596909081606E+00
    78  7.7000000000000E-01  6.9218381788185E-01  1.4145147112687E+00
    79  7.8000000000000E-01  6.3833155330903E-01  1.4656503843781E+00
    80  7.9000000000000E-01  5.8504611738835E-01  1.5127561033817E+00
    81  8.0000000000000E-01  5.3253397898656E-01  1.5555178102133E+00
    82  8.1000000000000E-01  4.8099186648784E-01  1.5936534695977E+00
    83  8.2000000000000E-01  4.3060531252557E-01  1.6269169214650E+00
    84  8.3000000000000E-01  3.8154734354576E-01  1.6551012609540E+00
    85  8.4000000000000E-01  3.3397733068572E-01  1.6780416865190E+00
    86  8.5000000000000E-01  2.8804001559219E-01  1.6956177663405E+00
    87  8.6000000000000E-01  2.4386472172666E-01  1.7077550838045E+00
    88  8.7000000000000E-01  2.0156475847764E-01  1.7144262340140E+00
    89  8.8000000000000E-01  1.6123702209348E-01  1.7156511548887E+00
    90  8.9000000000000E-01  1.2296179413423E-01  1.7114967881317E+00
    91  9.0000000000000E-01  8.6802734891832E-02  1.7020760769408E+00
    92  9.1000000000000E-01  5.2807066111174E-02  1.6875463185630E+00
    93  9.2000000000000E-01  2.1005934429496E-02  1.6681069003916E+00
    94  9.3000000000000E-01 -8.5850557023646E-03  1.6439964580627E+00
    95  9.4000000000000E-01 -3.5965153190545E-02  1.6154895027080E+00
    96  9.5000000000000E-01 -6.1147631108075E-02  1.5828925719994E+00
    97  9.6000000000000E-01 -8.4158834263092E-02  1.5465399657153E+00
    98  9.7000000000000E-01 -1.0503712178448E-01  1.5067891311572E+00
    99  9.8000000000000E-01 -1.2383172367499E-01  1.4640157667697E+00
   100  9.9000000000000E-01 -1.4060153051442E-01  1.4186087137240E+00
   101  1.0000000000000E+00 -1.5541383527225E-01  1.3709647049975E+00
   102  1.0100000000000E+00 -1.6834304552406E-01  1.3214830396719E+00
   103  1.0200000000000E+00 -1.7946938328052E-01  1.2705602468266E+00
   104  1.0300000000000E+00 -1.8887758816700E-01  1.2185847986428E+00
   105  1.0400000000000E+00 -1.9665563787348E-01  1.1659319262757E+00
   106  1.0500000000000E+00 -2.0289349768254E-01  1.1129585848796E+00
   107  1.0600000000000E+00 -2.0768190852826E-01  1.0599986060516E+00
   108  1.0700000000000E+00 -2.1111122050300E-01  1.0073580671084E+00
   109  1.0800000000000E+00 -2.1327027608176E-01  9.5531089726569E-01
   110  1.0900000000000E+00 -2.1424534444182E-01  9.0409472913235E-01
   111  1.1000000000000E+00 -2.1411910788963E-01  8.5390702018114E-01
   112  1.1100000000000E+00 -2.1296973377331E-01  8.0490187452394E-01
   113  1.1200000000000E+00 -2.1087089351824E-01  7.5719696797669E-01
   114  1.1300000000000E+00 -2.0789267841771E-01  7.1088662808899E-01
   115  1.1400000000000E+00 -2.0410194282294E-01  6.6604473285299E-01
   116  1.1500000000000E+00 -1.9956258227516E-01  6.2272602042263E-01
   117  1.1600000000000E+00 -1.9433587599826E-01  5.8096767175452E-01
   118  1.1700000000000E+00 -1.8848087844199E-01  5.4079111556784E-01
   119  1.1800000000000E+00 -1.8205484407330E-01  5.0220400143138E-01
   120  1.1900000000000E+00 -1.7511366927638E-01  4.6520228482568E-01
   121  1.2000000000000E+00 -1.6771233535836E-01  4.2977236804237E-01
   122  1.2100000000000E+00 -1.5990533717052E-01  3.9589324184542E-01
   123  1.2200000000000E+00 -1.5174708273692E-01  3.6353857517141E-01
   124  1.2300000000000E+00 -1.4329225052306E-01  3.3267870374558E-01
   125  1.2400000000000E+00 -1.3459609252674E-01  3.0328247318930E-01
   126  1.2500000000000E+00 -1.2571467318731E-01  2.7531889784471E-01
   127  1.2600000000000E+00 -1.1670503615928E-01  2.4875860304766E-01
   128  1.2700000000000E+00 -1.0762529319527E-01  2.2357502566257E-01
   129  1.2800000000000E+00 -9.8534631699180E-02  1.9974535523451E-01
   130  1.2900000000000E+00 -8.9493239880642E-02  1.7725120591172E-01
   131  1.3000000000000E+00 -8.0562150788453E-02  1.5607901708297E-01
   132  1.3100000000000E+00 -7.1803008782922E-02  1.3622018831416E-01
   133  1.3200000000000E+00 -6.3277764166319E-02  1.1767096146488E-01
   134  1.3300000000000E+00 -5.5048303659901E-02  1.0043206958503E-01
   135  1.3400000000000E+00 -4.7176026155753E-02  8.4508178196948E-02
   136  1.3500000000000E+00 -3.9721374649523E-02  6.9907149749951E-02
   137  1.3600000000000E+00 -3.2743255664333E-02  5.6638720797029E-02
   138  1.3700000000000E+00 -2.6300003971311E-02  4.4721714794431E-02
   139  1.3800000000000E+00 -2.0437553882495E-02  3.4120469331109E-02
   140  1.3900000000000E+00 -1.5274762103935E-02  2.5217669032370E-02
   141  1.4000000000000E+00 -1.0777935514969E-02  1.7563008407466E-02
   142  1.4100000000000E+00 -7.0112865591711E-03  1.1275385179835E-02
   143  1.4200000000000E+00 -4.0181015403052E-03  6.3786705657824E-03
   144  1.4300000000000E+00 -1.8342101615971E-03  2.8751679346548E-03
   145  1.4400000000000E+00 -4.8317386962930E-04  7.4806334833518E-04
   146  1.4500000000000E+00 -6.6122159169295E-06  1.0100589706759E-05
   147  1.4600000000000E+00 -1.6713139455567E-06  2.5625821403516E-06
   148  1.4700000000000E+00  6.1936397971408E-07 -9.5626124869531E-07
   149  1.48  0. -0.
   150  1.49  0.  0.
   151  1.50  0.  0.
   152  1.51  0.  0.
   153  1.52  0.  0.
   154  1.53  0.  0.
   155  1.54  0.  0.
   156  1.55  0.  0.
   157  1.56  0.  0.
   158  1.57  0.  0.
   159  1.58  0.  0.
   160  1.59  0.  0.
   161  1.60  0.  0.
   162  1.61  0.  0.
   163  1.62  0.  0.
   164  1.63  0.  0.
   165  1.64  0.  0.
   166  1.65  0.  0.
   167  1.66  0.  0.
   168  1.67  0.  0.
   169  1.68  0.  0.
   170  1.69  0.  0.
   171  1.70  0.  0.
   172  1.71  0.  0.
   173  1.72  0.  0.
   174  1.73  0.  0.
   175  1.74  0.  0.
   176  1.75  0.  0.
   177  1.76  0.  0.
   178  1.77  0.  0.
   179  1.78  0.  0.
   180  1.79  0.  0.
   181  1.80  0.  0.
   182  1.81  0.  0.
   183  1.82  0.  0.
   184  1.83  0.  0.
   185  1.84  0.  0.
   186  1.85  0.  0.
   187  1.86  0.  0.
   188  1.87  0.  0.
   189  1.88  0.  0.
   190  1.89  0.  0.
   191  1.90  0.  0.
   192  1.91  0.  0.
   193  1.92  0.  0.
   194  1.93  0.  0.
   195  1.94  0.  0.
   196  1.95  0.  0.
   197  1.96  0.  0.
   198  1.97  0.  0.
   199  1.98  0.  0.
   200  1.99  0.  0.
   201  2.00  0.  0.
   202  2.01  0.  0.
   203  2.02  0.  0.
   204  2.03  0.  0.
   205  2.04  0.  0.
   206  2.05  0.  0.
   207  2.06  0.  0.
   208  2.07  0.  0.
   209  2.08  0.  0.
   210  2.09  0.  0.
   211  2.10  0.  0.
   212  2.11  0.  0.
   213  2.12  0.  0.
   214  2.13  0.  0.
   215  2.14  0.  0.
   216  2.15  0.  0.
   217  2.16  0.  0.
   218  2.17  0.  0.
   219  2.18  0.  0.
   220  2.19  0.  0.
   221  2.20  0.  0.
   222  2.21  0.  0.
   223  2.22  0.  0.
   224  2.23  0.  0.
   225  2.24  0.  0.
   226  2.25  0.  0.
   227  2.26  0.  0.
   228  2.27  0.  0.
   229  2.28  0.  0.
   230  2.29  0.  0.
   231  2.30  0.  0.
   232  2.31  0.  0.
   233  2.32  0.  0.
   234  2.33  0.  0.
   235  2.34  0.  0.
   236  2.35  0.  0.
   237  2.36  0.  0.
   238  2.37  0.  0.
   239  2.38  0.  0.
   240  2.39  0.  0.
   241  2.40  0.  0.
   242  2.41  0.  0.
   243  2.42  0.  0.
   244  2.43  0.  0.
   245  2.44  0.  0.
   246  2.45  0.  0.
   247  2.46  0.  0.
   248  2.47  0.  0.
   249  2.48  0.  0.
   250  2.49  0.  0.
   251  2.50  0.  0.
   252  2.51  0.  0.
   253  2.52  0.  0.
   254  2.53  0.  0.
   255  2.54  0.  0.
   256  2.55  0.  0.
   257  2.56  0.  0.
   258  2.57  0.  0.
   259  2.58  0.  0.
   260  2.59  0.  0.
   261  2.60  0.  0.
   262  2.61  0.  0.
   263  2.62  0.  0.
   264  2.63  0.  0.
   265  2.64  0.  0.
   266  2.65  0.  0.
   267  2.66  0.  0.
   268  2.67  0.  0.
   269  2.68  0.  0.
   270  2.69  0.  0.
   271  2.70  0.  0.
   272  2.71  0.  0.
   273  2.72  0.  0.
   274  2.73  0.  0.
   275  2.74  0.  0.
   276  2.75  0.  0.
   277  2.76  0.  0.
   278  2.77  0.  0.
   279  2.78  0.  0.
   280  2.79  0.  0.
   281  2.80  0.  0.
   282  2.81  0.  0.
   283  2.82  0.  0.
   284  2.83  0.  0.
   285  2.84  0.  0.
   286  2.85  0.  0.
   287  2.86  0.  0.
   288  2.87  0.  0.
   289  2.88  0.  0.
   290  2.89  0.  0.
   291  2.90  0.  0.
   292  2.91  0.  0.
   293  2.92  0.  0.
   294  2.93  0.  0.
   295  2.94  0.  0.
   296  2.95  0.  0.
   297  2.96  0.  0.
   298  2.97  0.  0.
   299  2.98  0.  0.
   300  2.99  0.  0.
   301  3.00  0.  0.
   302  3.01  0.  0.
   303  3.02  0.  0.
   304  3.03  0.  0.
   305  3.04  0.  0.
   306  3.05  0.  0.
   307  3.06  0.  0.
   308  3.07  0.  0.
   309  3.08  0.  0.
   310  3.09  0.  0.
   311  3.10  0.  0.
   312  3.11  0.  0.
   313  3.12  0.  0.
   314  3.13  0.  0.
   315  3.14  0.  0.
   316  3.15  0.  0.
   317  3.16  0.  0.
   318  3.17  0.  0.
   319  3.18  0.  0.
   320  3.19  0.  0.
   321  3.20  0.  0.
   322  3.21  0.  0.
   323  3.22  0.  0.
   324  3.23  0.  0.
   325  3.24  0.  0.
   326  3.25  0.  0.
   327  3.26  0.  0.
   328  3.27  0.  0.
   329  3.28  0.  0.
   330  3.29  0.  0.
   331  3.30  0.  0.
   332  3.31  0.  0.
   333  3.32  0.  0.
   334  3.33  0.  0.
   335  3.34  0.  0.
   336  3.35  0.  0.
   337  3.36  0.  0.
   338  3.37  0.  0.