Be    ONCVPSP-4.0.1  r_core=   1.35386   1.10470
      4.0000      4.0000      250925    zatom,zion,pspd
     8   -1012   1     4   400     0    pspcod,pspxc,lmax,lloc,mmax,r2well
  3.99000000  0.00000000  0.00000000    rchrg fchrg qchrg
     2     2     0     0    nproj
     3     1           extension_switch
     4     0     0    nprojso
   0                        -6.4909646903778E+00 -2.2211334630149E+00
     1  0.0000000000000E+00  2.7253789225412E-09 -8.6343436844771E-09
     2  1.0000000000000E-02  9.2441543951891E-02 -3.3056895933816E-02
     3  2.0000000000000E-02  1.8464781470273E-01 -6.5973073931877E-02
     4  3.0000000000000E-02  2.7638335026268E-01 -9.8605511784752E-02
     5  4.0000000000000E-02  3.6741233755096E-01 -1.3080666658131E-01
     6  5.0000000000000E-02  4.5749850234265E-01 -1.6242243167621E-01
     7  6.0000000000000E-02  5.4640507579497E-01 -1.9329034806678E-01
     8  7.0000000000000E-02  6.3389485977992E-01 -2.2323814452726E-01
     9  8.0000000000000E-02  7.1973041052473E-01 -2.5208267221386E-01
    10  9.0000000000000E-02  8.0367435678052E-01 -2.7962928906134E-01
    11  1.0000000000000E-01  8.8548986498280E-01 -3.0567173739321E-01
    12  1.1000000000000E-01  9.6494125972595E-01 -3.2999254505295E-01
    13  1.2000000000000E-01  1.0417948034479E+00 -3.5236396635347E-01
    14  1.3000000000000E-01  1.1158196346201E+00 -3.7254946457836E-01
    15  1.4000000000000E-01  1.1867888590729E+00 -3.9030572300943E-01
    16  1.5000000000000E-01  1.2544807844721E+00 -4.0538515686299E-01
    17  1.6000000000000E-01  1.3186802835164E+00 -4.1753888445421E-01
    18  1.7000000000000E-01  1.3791802672492E+00 -4.2652010272314E-01
    19  1.8000000000000E-01  1.4357832460895E+00 -4.3208780027883E-01
    20  1.9000000000000E-01  1.4883029528678E+00 -4.3401073065120E-01
    21  2.0000000000000E-01  1.5365659994012E+00 -4.3207155975226E-01
    22  2.1000000000000E-01  1.5804135360162E+00 -4.2607109486546E-01
    23  2.2000000000000E-01  1.6197028820042E+00 -4.1583249798378E-01
    24  2.3000000000000E-01  1.6543090942936E+00 -4.0120538413247E-01
    25  2.4000000000000E-01  1.6841264416852E+00 -3.8206970551454E-01
    26  2.5000000000000E-01  1.7090697528246E+00 -3.5833932492243E-01
    27  2.6000000000000E-01  1.7290756076606E+00 -3.2996518682927E-01
    28  2.7000000000000E-01  1.7441033444459E+00 -2.9693800180760E-01
    29  2.8000000000000E-01  1.7541358573118E+00 -2.5929036927313E-01
    30  2.9000000000000E-01  1.7591801630483E+00 -2.1709827481055E-01
    31  3.0000000000000E-01  1.7592677198504E+00 -1.7048191125754E-01
    32  3.1000000000000E-01  1.7544544853753E+00 -1.1960578701055E-01
    33  3.2000000000000E-01  1.7448207063748E+00 -6.4678100343537E-02
    34  3.3000000000000E-01  1.7304704373329E+00 -5.9493745463457E-03
    35  3.4000000000000E-01  1.7115307908106E+00  5.6289634981611E-02
    36  3.5000000000000E-01  1.6881509274799E+00  1.2171073428647E-01
    37  3.6000000000000E-01  1.6605007989777E+00  1.8995174186167E-01
    38  3.7000000000000E-01  1.6287696616214E+00  2.6062053891830E-01
    39  3.8000000000000E-01  1.5931643835830E+00  3.3329964696081E-01
    40  3.9000000000000E-01  1.5539075722064E+00  4.0755124844477E-01
    41  4.0000000000000E-01  1.5112355516893E+00  4.8292255585986E-01
    42  4.1000000000000E-01  1.4653962242375E+00  5.5895142623434E-01
    43  4.2000000000000E-01  1.4166468499812E+00  6.3517211200981E-01
    44  4.3000000000000E-01  1.3652517823538E+00  7.1112103564804E-01
    45  4.4000000000000E-01  1.3114801962482E+00  7.8634247430693E-01
    46  4.5000000000000E-01  1.2556038460649E+00  8.6039404250558E-01
    47  4.6000000000000E-01  1.1978948897424E+00  9.3285186486917E-01
    48  4.7000000000000E-01  1.1386238130528E+00  1.0033153377255E+00
    49  4.8000000000000E-01  1.0780574858775E+00  1.0714113873762E+00
    50  4.9000000000000E-01  1.0164573789132E+00  1.1367981440904E+00
    51  5.0000000000000E-01  9.5407796537843E-01  1.1991679640193E+00
    52  5.1000000000000E-01  8.9116532786810E-01  1.2582497460073E+00
    53  5.2000000000000E-01  8.2795598566053E-01  1.3138105063422E+00
    54  5.3000000000000E-01  7.6467595261425E-01  1.3656561914759E+00
    55  5.4000000000000E-01  7.0154003043099E-01  1.4136317262546E+00
    56  5.5000000000000E-01  6.3875133663019E-01  1.4576203128206E+00
    57  5.6000000000000E-01  5.7650106120660E-01  1.4975420126670E+00
    58  5.7000000000000E-01  5.1496844075550E-01  1.5333516609220E+00
    59  5.8000000000000E-01  4.5432093397204E-01  1.5650361774246E+00
    60  5.9000000000000E-01  3.9471457798068E-01  1.5926113531395E+00
    61  6.0000000000000E-01  3.3629450103389E-01  1.6161182026120E+00
    62  6.1000000000000E-01  2.7919556383243E-01  1.6356189831709E+00
    63  6.2000000000000E-01  2.2354309914256E-01  1.6511929892107E+00
    64  6.3000000000000E-01  1.6945371758330E-01  1.6629322349028E+00
    65  6.4000000000000E-01  1.1703614647419E-01  1.6709371409820E+00
    66  6.5000000000000E-01  6.6392068497974E-02  1.6753123407376E+00
    67  6.6000000000000E-01  1.7616927649307E-02  1.6761627170092E+00
    68  6.7000000000000E-01 -2.9199328505519E-02  1.6735897759002E+00
    69  6.8000000000000E-01 -7.3971598875024E-02  1.6676884542033E+00
    70  6.9000000000000E-01 -1.1661909670689E-01  1.6585444463702E+00
    71  7.0000000000000E-01 -1.5706495700051E-01  1.6462321235044E+00
    72  7.1000000000000E-01 -1.9523600083195E-01  1.6308131016121E+00
    73  7.2000000000000E-01 -2.3106266910869E-01  1.6123354995648E+00
    74  7.3000000000000E-01 -2.6447913306245E-01  1.5908339093054E+00
    75  7.4000000000000E-01 -2.9542358334409E-01  1.5663300821815E+00
    76  7.5000000000000E-01 -3.2383869403879E-01  1.5388343163735E+00
    77  7.6000000000000E-01 -3.4967225241158E-01  1.5083475116428E+00
    78  7.7000000000000E-01 -3.7287793986007E-01  1.4748638395288E+00
    79  7.8000000000000E-01 -3.9341624452914E-01  1.4383739601027E+00
    80  7.9000000000000E-01 -4.1125548146002E-01  1.3988687008838E+00
    81  8.0000000000000E-01 -4.2637289212499E-01  1.3563430999163E+00
    82  8.1000000000000E-01 -4.3875579184459E-01  1.3108007036598E+00
    83  8.2000000000000E-01 -4.4840273099157E-01  1.2622580015534E+00
    84  8.3000000000000E-01 -4.5532463412861E-01  1.2107488731302E+00
    85  8.4000000000000E-01 -4.5954588036231E-01  1.1563289205527E+00
    86  8.5000000000000E-01 -4.6110528825843E-01  1.0990795595370E+00
    87  8.6000000000000E-01 -4.6005696966678E-01  1.0391117448616E+00
    88  8.7000000000000E-01 -4.5647101873897E-01  9.7656921299232E-01
    89  8.8000000000000E-01 -4.5043400525694E-01  9.1163113367809E-01
    90  8.9000000000000E-01 -4.4204924507124E-01  8.4451407451964E-01
    91  9.0000000000000E-01 -4.3143682490062E-01  7.7547319721760E-01
    92  9.1000000000000E-01 -4.1873336387522E-01  7.0480262117027E-01
    93  9.2000000000000E-01 -4.0409149990293E-01  6.3283490894015E-01
    94  9.3000000000000E-01 -3.8767909507640E-01  5.5993964842429E-01
    95  9.4000000000000E-01 -3.6967816078119E-01  4.8652112790430E-01
    96  9.5000000000000E-01 -3.5028350950912E-01  4.1301512088244E-01
    97  9.6000000000000E-01 -3.2970111962385E-01  3.3988469770529E-01
    98  9.7000000000000E-01 -3.0814580113097E-01  2.6761324025031E-01
    99  9.8000000000000E-01 -2.8583842180992E-01  1.9669593363336E-01
   100  9.9000000000000E-01 -2.6300343318644E-01  1.2763290792912E-01
   101  1.0000000000000E+00 -2.3986633175145E-01  6.0922230461050E-02
   102  1.0100000000000E+00 -2.1665102128644E-01 -2.9474648506526E-03
   103  1.0200000000000E+00 -1.9357712057890E-01 -6.3504569181349E-02
   104  1.0300000000000E+00 -1.7085726388097E-01 -1.2030215861741E-01
   105  1.0400000000000E+00 -1.4869444307464E-01 -1.7292556366300E-01
   106  1.0500000000000E+00 -1.2727944115137E-01 -2.2099968756699E-01
   107  1.0600000000000E+00 -1.0678840618279E-01 -2.6419591370396E-01
   108  1.0700000000000E+00 -8.7380613452964E-02 -3.0223844688857E-01
   109  1.0800000000000E+00 -6.9196460843600E-02 -3.3490994167723E-01
   110  1.0900000000000E+00 -5.2355738976282E-02 -3.6205628221010E-01
   111  1.1000000000000E+00 -3.6956213055608E-02 -3.8359039284392E-01
   112  1.1100000000000E+00 -2.3072547939931E-02 -3.9949497635050E-01
   113  1.1200000000000E+00 -1.0755601777284E-02 -4.0982409652291E-01
   114  1.1300000000000E+00 -3.2106716267240E-05 -4.1470354420711E-01
   115  1.1400000000000E+00  9.0952521187358E-03 -4.1432994958155E-01
   116  1.1500000000000E+00  1.6647355878922E-02 -4.0896862850710E-01
   117  1.1600000000000E+00  2.2667773812515E-02 -3.9895017634962E-01
   118  1.1700000000000E+00  2.7221499884595E-02 -3.8466584837897E-01
   119  1.1800000000000E+00  3.0393324157670E-02 -3.6656179107211E-01
   120  1.1900000000000E+00  3.2285866305366E-02 -3.4513221282613E-01
   121  1.2000000000000E+00  3.3017305596485E-02 -3.2091160532305E-01
   122  1.2100000000000E+00  3.2718847978992E-02 -2.9446614733665E-01
   123  1.2200000000000E+00  3.1531976479229E-02 -2.6638444102078E-01
   124  1.2300000000000E+00  2.9605535774829E-02 -2.3726774589531E-01
   125  1.2400000000000E+00  2.7092705487069E-02 -2.0771988780528E-01
   126  1.2500000000000E+00  2.4147919330679E-02 -1.7833702861555E-01
   127  1.2600000000000E+00  2.0923788712460E-02 -1.4969748717205E-01
   128  1.2700000000000E+00  1.7568090502263E-02 -1.2235180790925E-01
   129  1.2800000000000E+00  1.4220870172149E-02 -9.6813227185458E-02
   130  1.2900000000000E+00  1.1011853971418E-02 -7.3549521170433E-02
   131  1.3000000000000E+00  8.0585514923616E-03 -5.2978435813500E-02
   132  1.3100000000000E+00  5.4621660253843E-03 -3.5449449386328E-02
   133  1.3200000000000E+00  3.3067003673373E-03 -2.1243308501826E-02
   134  1.3300000000000E+00  1.6578042870968E-03 -1.0569390479933E-02
   135  1.3400000000000E+00  5.5960865601759E-04 -3.5493789361640E-03
   136  1.3500000000000E+00  5.2359926773026E-05 -3.3107124588354E-04
   137  1.3600000000000E+00 -4.8788976936075E-06  3.0796088254212E-05
   138  1.3700000000000E+00  1.4564638591101E-07 -9.1994886282368E-07
   139  1.38  0.  0.
   140  1.39  0.  0.
   141  1.40  0.  0.
   142  1.41  0.  0.
   143  1.42  0.  0.
   144  1.43  0.  0.
   145  1.44  0.  0.
   146  1.45  0.  0.
   147  1.46  0.  0.
   148  1.47  0.  0.
   149  1.48  0.  0.
   150  1.49  0.  0.
   151  1.50  0.  0.
   152  1.51  0.  0.
   153  1.52  0.  0.
   154  1.53  0.  0.
   155  1.54  0.  0.
   156  1.55  0.  0.
   157  1.56  0.  0.
   158  1.57  0.  0.
   159  1.58  0.  0.
   160  1.59  0.  0.
   161  1.60  0.  0.
   162  1.61  0.  0.
   163  1.62  0.  0.
   164  1.63  0.  0.
   165  1.64  0.  0.
   166  1.65  0.  0.
   167  1.66  0.  0.
   168  1.67  0.  0.
   169  1.68  0.  0.
   170  1.69  0.  0.
   171  1.70  0.  0.
   172  1.71  0.  0.
   173  1.72  0.  0.
   174  1.73  0.  0.
   175  1.74  0.  0.
   176  1.75  0.  0.
   177  1.76  0.  0.
   178  1.77  0.  0.
   179  1.78  0.  0.
   180  1.79  0.  0.
   181  1.80  0.  0.
   182  1.81  0.  0.
   183  1.82  0.  0.
   184  1.83  0.  0.
   185  1.84  0.  0.
   186  1.85  0.  0.
   187  1.86  0.  0.
   188  1.87  0.  0.
   189  1.88  0.  0.
   190  1.89  0.  0.
   191  1.90  0.  0.
   192  1.91  0.  0.
   193  1.92  0.  0.
   194  1.93  0.  0.
   195  1.94  0.  0.
   196  1.95  0.  0.
   197  1.96  0.  0.
   198  1.97  0.  0.
   199  1.98  0.  0.
   200  1.99  0.  0.
   201  2.00  0.  0.
   202  2.01  0.  0.
   203  2.02  0.  0.
   204  2.03  0.  0.
   205  2.04  0.  0.
   206  2.05  0.  0.
   207  2.06  0.  0.
   208  2.07  0.  0.
   209  2.08  0.  0.
   210  2.09  0.  0.
   211  2.10  0.  0.
   212  2.11  0.  0.
   213  2.12  0.  0.
   214  2.13  0.  0.
   215  2.14  0.  0.
   216  2.15  0.  0.
   217  2.16  0.  0.
   218  2.17  0.  0.
   219  2.18  0.  0.
   220  2.19  0.  0.
   221  2.20  0.  0.
   222  2.21  0.  0.
   223  2.22  0.  0.
   224  2.23  0.  0.
   225  2.24  0.  0.
   226  2.25  0.  0.
   227  2.26  0.  0.
   228  2.27  0.  0.
   229  2.28  0.  0.
   230  2.29  0.  0.
   231  2.30  0.  0.
   232  2.31  0.  0.
   233  2.32  0.  0.
   234  2.33  0.  0.
   235  2.34  0.  0.
   236  2.35  0.  0.
   237  2.36  0.  0.
   238  2.37  0.  0.
   239  2.38  0.  0.
   240  2.39  0.  0.
   241  2.40  0.  0.
   242  2.41  0.  0.
   243  2.42  0.  0.
   244  2.43  0.  0.
   245  2.44  0.  0.
   246  2.45  0.  0.
   247  2.46  0.  0.
   248  2.47  0.  0.
   249  2.48  0.  0.
   250  2.49  0.  0.
   251  2.50  0.  0.
   252  2.51  0.  0.
   253  2.52  0.  0.
   254  2.53  0.  0.
   255  2.54  0.  0.
   256  2.55  0.  0.
   257  2.56  0.  0.
   258  2.57  0.  0.
   259  2.58  0.  0.
   260  2.59  0.  0.
   261  2.60  0.  0.
   262  2.61  0.  0.
   263  2.62  0.  0.
   264  2.63  0.  0.
   265  2.64  0.  0.
   266  2.65  0.  0.
   267  2.66  0.  0.
   268  2.67  0.  0.
   269  2.68  0.  0.
   270  2.69  0.  0.
   271  2.70  0.  0.
   272  2.71  0.  0.
   273  2.72  0.  0.
   274  2.73  0.  0.
   275  2.74  0.  0.
   276  2.75  0.  0.
   277  2.76  0.  0.
   278  2.77  0.  0.
   279  2.78  0.  0.
   280  2.79  0.  0.
   281  2.80  0.  0.
   282  2.81  0.  0.
   283  2.82  0.  0.
   284  2.83  0.  0.
   285  2.84  0.  0.
   286  2.85  0.  0.
   287  2.86  0.  0.
   288  2.87  0.  0.
   289  2.88  0.  0.
   290  2.89  0.  0.
   291  2.90  0.  0.
   292  2.91  0.  0.
   293  2.92  0.  0.
   294  2.93  0.  0.
   295  2.94  0.  0.
   296  2.95  0.  0.
   297  2.96  0.  0.
   298  2.97  0.  0.
   299  2.98  0.  0.
   300  2.99  0.  0.
   301  3.00  0.  0.
   302  3.01  0.  0.
   303  3.02  0.  0.
   304  3.03  0.  0.
   305  3.04  0.  0.
   306  3.05  0.  0.
   307  3.06  0.  0.
   308  3.07  0.  0.
   309  3.08  0.  0.
   310  3.09  0.  0.
   311  3.10  0.  0.
   312  3.11  0.  0.
   313  3.12  0.  0.
   314  3.13  0.  0.
   315  3.14  0.  0.
   316  3.15  0.  0.
   317  3.16  0.  0.
   318  3.17  0.  0.
   319  3.18  0.  0.
   320  3.19  0.  0.
   321  3.20  0.  0.
   322  3.21  0.  0.
   323  3.22  0.  0.
   324  3.23  0.  0.
   325  3.24  0.  0.
   326  3.25  0.  0.
   327  3.26  0.  0.
   328  3.27  0.  0.
   329  3.28  0.  0.
   330  3.29  0.  0.
   331  3.30  0.  0.
   332  3.31  0.  0.
   333  3.32  0.  0.
   334  3.33  0.  0.
   335  3.34  0.  0.
   336  3.35  0.  0.
   337  3.36  0.  0.
   338  3.37  0.  0.
   339  3.38  0.  0.
   340  3.39  0.  0.
   341  3.40  0.  0.
   342  3.41  0.  0.
   343  3.42  0.  0.
   344  3.43  0.  0.
   345  3.44  0.  0.
   346  3.45  0.  0.
   347  3.46  0.  0.
   348  3.47  0.  0.
   349  3.48  0.  0.
   350  3.49  0.  0.
   351  3.50  0.  0.
   352  3.51  0.  0.
   353  3.52  0.  0.
   354  3.53  0.  0.
   355  3.54  0.  0.
   356  3.55  0.  0.
   357  3.56  0.  0.
   358  3.57  0.  0.
   359  3.58  0.  0.
   360  3.59  0.  0.
   361  3.60  0.  0.
   362  3.61  0.  0.
   363  3.62  0.  0.
   364  3.63  0.  0.
   365  3.64  0.  0.
   366  3.65  0.  0.
   367  3.66  0.  0.
   368  3.67  0.  0.
   369  3.68  0.  0.
   370  3.69  0.  0.
   371  3.70  0.  0.
   372  3.71  0.  0.
   373  3.72  0.  0.
   374  3.73  0.  0.
   375  3.74  0.  0.
   376  3.75  0.  0.
   377  3.76  0.  0.
   378  3.77  0.  0.
   379  3.78  0.  0.
   380  3.79  0.  0.
   381  3.80  0.  0.
   382  3.81  0.  0.
   383  3.82  0.  0.
   384  3.83  0.  0.
   385  3.84  0.  0.
   386  3.85  0.  0.
   387  3.86  0.  0.
   388  3.87  0.  0.
   389  3.88  0.  0.
   390  3.89  0.  0.
   391  3.90  0.  0.
   392  3.91  0.  0.
   393  3.92  0.  0.
   394  3.93  0.  0.
   395  3.94  0.  0.
   396  3.95  0.  0.
   397  3.96  0.  0.
   398  3.97  0.  0.
   399  3.98  0.  0.
   400  3.99  0.  0.
   1                        -2.6651198377298E+00 -6.3064934536198E-01
     1  0.0000000000000E+00  3.2116492915124E-07 -4.9544676733460E-07
     2  1.0000000000000E-02  6.7488816442358E-03 -6.5198139476517E-03
     3  2.0000000000000E-02  2.6809525919418E-02 -2.5808336571302E-02
     4  3.0000000000000E-02  5.9630220451037E-02 -5.7062490019708E-02
     5  4.0000000000000E-02  1.0431219024382E-01 -9.8975739642672E-02
     6  5.0000000000000E-02  1.5963995491247E-01 -1.4978481683319E-01
     7  6.0000000000000E-02  2.2412233392289E-01 -2.0733283323506E-01
     8  7.0000000000000E-02  2.9604266823313E-01 -2.6914658470003E-01
     9  8.0000000000000E-02  3.7351650555832E-01 -3.3252534793147E-01
    10  9.0000000000000E-02  4.5455473689606E-01 -3.9463807101067E-01
    11  1.0000000000000E-01  5.3712998302059E-01 -4.5262556488637E-01
    12  1.1000000000000E-01  6.1924391796074E-01 -5.0370412656878E-01
    13  1.2000000000000E-01  6.9899318586315E-01 -5.4526697224929E-01
    14  1.3000000000000E-01  7.7463161908653E-01 -5.7497993158922E-01
    15  1.4000000000000E-01  8.4462659696470E-01 -5.9086805034848E-01
    16  1.5000000000000E-01  9.0770759167427E-01 -5.9139006043443E-01
    17  1.6000000000000E-01  9.6290522266919E-01 -5.7549809341806E-01
    18  1.7000000000000E-01  1.0095794744314E+00 -5.4268052101833E-01
    19  1.8000000000000E-01  1.0474361120446E+00 -4.9298638632609E-01
    20  1.9000000000000E-01  1.0765307419312E+00 -4.2703052246060E-01
    21  2.0000000000000E-01  1.0972603964720E+00 -3.4597911898566E-01
    22  2.1000000000000E-01  1.1103429560293E+00 -2.5151616781521E-01
    23  2.2000000000000E-01  1.1167851449102E+00 -1.4579187635660E-01
    24  2.3000000000000E-01  1.1178402342939E+00 -3.1354753732943E-02
    25  2.4000000000000E-01  1.1149569413696E+00  8.8930365067402E-02
    26  2.5000000000000E-01  1.1097213175889E+00  2.1197561138770E-01
    27  2.6000000000000E-01  1.1037936596473E+00  3.3457155923911E-01
    28  2.7000000000000E-01  1.0988426464369E+00  4.5349347443727E-01
    29  2.8000000000000E-01  1.0964789981453E+00  5.6560876260855E-01
    30  2.9000000000000E-01  1.0981909670139E+00  6.6798200121901E-01
    31  3.0000000000000E-01  1.1052839029254E+00  7.5797402246596E-01
    32  3.1000000000000E-01  1.1188259936389E+00  8.3333171486675E-01
    33  3.2000000000000E-01  1.1396020645060E+00  8.9226552430756E-01
    34  3.3000000000000E-01  1.1680770437030E+00  9.3351204901434E-01
    35  3.4000000000000E-01  1.2043703664025E+00  9.5637962281716E-01
    36  3.5000000000000E-01  1.2482422166953E+00  9.6077534979937E-01
    37  3.6000000000000E-01  1.2990921026302E+00  9.4721267130768E-01
    38  3.7000000000000E-01  1.3559698415563E+00  9.1679919217694E-01
    39  3.8000000000000E-01  1.4175986144999E+00  8.7120514492798E-01
    40  3.9000000000000E-01  1.4824093439474E+00  8.1261350663473E-01
    41  4.0000000000000E-01  1.5485852728851E+00  7.4365338186896E-01
    42  4.1000000000000E-01  1.6141152868984E+00  6.6731880681895E-01
    43  4.2000000000000E-01  1.6768542366840E+00  5.8687559666274E-01
    44  4.3000000000000E-01  1.7345882946747E+00  5.0575923559704E-01
    45  4.4000000000000E-01  1.7851032236321E+00  4.2746708481210E-01
    46  4.5000000000000E-01  1.8262533515943E+00  3.5544834995507E-01
    47  4.6000000000000E-01  1.8560290384934E+00  2.9299530184362E-01
    48  4.7000000000000E-01  1.8726204845034E+00  2.4313918187915E-01
    49  4.8000000000000E-01  1.8744758656190E+00  2.0855405014583E-01
    50  4.9000000000000E-01  1.8603519825798E+00  1.9147155664427E-01
    51  5.0000000000000E-01  1.8293558673589E+00  1.9360924498662E-01
    52  5.1000000000000E-01  1.7809760974729E+00  2.1611454665304E-01
    53  5.2000000000000E-01  1.7151029112811E+00  2.5952610855209E-01
    54  5.3000000000000E-01  1.6320365850941E+00  3.2375353501041E-01
    55  5.4000000000000E-01  1.5324839124981E+00  4.0807603657045E-01
    56  5.5000000000000E-01  1.4175430048688E+00  5.1115988181334E-01
    57  5.6000000000000E-01  1.2886769968885E+00  6.3109396445054E-01
    58  5.7000000000000E-01  1.1476775800304E+00  7.6544224498417E-01
    59  5.8000000000000E-01  9.9661958957160E-01  9.1131132175668E-01
    60  5.9000000000000E-01  8.3780812739722E-01  1.0654309456641E+00
    61  6.0000000000000E-01  6.7371990606775E-01  1.2242449292106E+00
    62  6.1000000000000E-01  5.0694064379295E-01  1.3840096241061E+00
    63  6.2000000000000E-01  3.4010042168357E-01  1.5408969592983E+00
    64  6.3000000000000E-01  1.7580893278000E-01  1.6910989469360E+00
    65  6.4000000000000E-01  1.6592507944685E-02  1.8309305776951E+00
    66  6.5000000000000E-01 -1.3516530005557E-01  1.9569281363075E+00
    67  6.6000000000000E-01 -2.7727795090517E-01  2.0659401670684E+00
    68  6.7000000000000E-01 -4.0780355143625E-01  2.1552085988264E+00
    69  6.8000000000000E-01 -5.2508471685136E-01  2.2224378883331E+00
    70  6.9000000000000E-01 -6.2777975853489E-01  2.2658504466928E+00
    71  7.0000000000000E-01 -7.1488459188171E-01  2.2842270614838E+00
    72  7.1000000000000E-01 -7.8574505991239E-01  2.2769315013503E+00
    73  7.2000000000000E-01 -8.4005966938714E-01  2.2439189747309E+00
    74  7.3000000000000E-01 -8.7787302562763E-01  2.1857285941819E+00
    75  7.4000000000000E-01 -8.9956052109332E-01  2.1034604575873E+00
    76  7.5000000000000E-01 -9.0580507278946E-01  1.9987383837536E+00
    77  7.6000000000000E-01 -8.9756690795733E-01  1.8736597203540E+00
    78  7.7000000000000E-01 -8.7604756094758E-01  1.7307339668832E+00
    79  7.8000000000000E-01 -8.4264936309108E-01  1.5728122164014E+00
    80  7.9000000000000E-01 -7.9893177985682E-01  1.4030096119591E+00
    81  8.0000000000000E-01 -7.4656597550649E-01  1.2246231338567E+00
    82  8.1000000000000E-01 -6.8728896633023E-01  1.0410470818875E+00
    83  8.2000000000000E-01 -6.2285866245549E-01  8.5568859444300E-01
    84  8.3000000000000E-01 -5.5501099957776E-01  6.7188545799940E-01
    85  8.4000000000000E-01 -4.8542023132348E-01  4.9282831218983E-01
    86  8.5000000000000E-01 -4.1566329673494E-01  3.2148915512972E-01
    87  8.6000000000000E-01 -3.4718900255237E-01  1.6055780991090E-01
    88  8.7000000000000E-01 -2.8129257382584E-01  1.2387736074463E-02
    89  8.8000000000000E-01 -2.1909593616259E-01 -1.2104773025271E-01
    90  8.9000000000000E-01 -1.6153390554756E-01 -2.3818793661658E-01
    91  9.0000000000000E-01 -1.0934628353749E-01 -3.3790581922362E-01
    92  9.1000000000000E-01 -6.3075692330453E-02 -4.1951700532722E-01
    93  9.2000000000000E-01 -2.3070840347563E-02 -4.8277725863223E-01
    94  9.3000000000000E-01  1.0505211906320E-02 -5.2786868351342E-01
    95  9.4000000000000E-01  3.7662311455891E-02 -5.5537534524185E-01
    96  9.5000000000000E-01  5.8566596271800E-02 -5.6624918084218E-01
    97  9.6000000000000E-01  7.3521023726287E-02 -5.6176823980196E-01
    98  9.7000000000000E-01  8.2949870348604E-02 -5.4350417107734E-01
    99  9.8000000000000E-01  8.7385352300352E-02 -5.1329215122152E-01
   100  9.9000000000000E-01  8.7447092723710E-02 -4.7317914796922E-01
   101  1.0000000000000E+00  8.3820176567501E-02 -4.2536639142302E-01
   102  1.0100000000000E+00  7.7233335031467E-02 -3.7215013017610E-01
   103  1.0200000000000E+00  6.8437732606660E-02 -3.1586200775491E-01
   104  1.0300000000000E+00  5.8186790114357E-02 -2.5881036430898E-01
   105  1.0400000000000E+00  4.7217064381167E-02 -2.0322328202457E-01
   106  1.0500000000000E+00  3.6229026795684E-02 -1.5119277323727E-01
   107  1.0600000000000E+00  2.5732797550798E-02 -1.0445870839182E-01
   108  1.0700000000000E+00  1.6306764569925E-02 -6.4690671978175E-02
   109  1.0800000000000E+00  8.6016827812365E-03 -3.3469602845683E-02
   110  1.0900000000000E+00  3.1441856789658E-03 -1.2034202780821E-02
   111  1.1000000000000E+00  3.4785465354701E-04 -1.3123219102217E-03
   112  1.1100000000000E+00 -1.3746922718951E-05  5.1410548559971E-05
   113  1.1200000000000E+00 -1.4552288103490E-06  5.5065786702652E-06
   114  1.13  0.  0.
   115  1.14  0.  0.
   116  1.15  0.  0.
   117  1.16  0.  0.
   118  1.17  0.  0.
   119  1.18  0.  0.
   120  1.19  0.  0.
   121  1.20  0.  0.
   122  1.21  0.  0.
   123  1.22  0.  0.
   124  1.23  0.  0.
   125  1.24  0.  0.
   126  1.25  0.  0.
   127  1.26  0.  0.
   128  1.27  0.  0.
   129  1.28  0.  0.
   130  1.29  0.  0.
   131  1.30  0.  0.
   132  1.31  0.  0.
   133  1.32  0.  0.
   134  1.33  0.  0.
   135  1.34  0.  0.
   136  1.35  0.  0.
   137  1.36  0.  0.
   138  1.37  0.  0.
   139  1.38  0.  0.
   140  1.39  0.  0.
   141  1.40  0.  0.
   142  1.41  0.  0.
   143  1.42  0.  0.
   144  1.43  0.  0.
   145  1.44  0.  0.
   146  1.45  0.  0.
   147  1.46  0.  0.
   148  1.47  0.  0.
   149  1.48  0.  0.
   150  1.49  0.  0.
   151  1.50  0.  0.
   152  1.51  0.  0.
   153  1.52  0.  0.
   154  1.53  0.  0.
   155  1.54  0.  0.
   156  1.55  0.  0.
   157  1.56  0.  0.
   158  1.57  0.  0.
   159  1.58  0.  0.
   160  1.59  0.  0.
   161  1.60  0.  0.
   162  1.61  0.  0.
   163  1.62  0.  0.
   164  1.63  0.  0.
   165  1.64  0.  0.
   166  1.65  0.  0.
   167  1.66  0.  0.
   168  1.67  0.  0.
   169  1.68  0.  0.
   170  1.69  0.  0.
   171  1.70  0.  0.
   172  1.71  0.  0.
   173  1.72  0.  0.
   174  1.73  0.  0.
   175  1.74  0.  0.
   176  1.75  0.  0.
   177  1.76  0.  0.
   178  1.77  0.  0.
   179  1.78  0.  0.
   180  1.79  0.  0.
   181  1.80  0.  0.
   182  1.81  0.  0.
   183  1.82  0.  0.
   184  1.83  0.  0.
   185  1.84  0.  0.
   186  1.85  0.  0.
   187  1.86  0.  0.
   188  1.87  0.  0.
   189  1.88  0.  0.
   190  1.89  0.  0.
   191  1.90  0.  0.
   192  1.91  0.  0.
   193  1.92  0.  0.
   194  1.93  0.  0.
   195  1.94  0.  0.
   196  1.95  0.  0.
   197  1.96  0.  0.
   198  1.97  0.  0.
   199  1.98  0.  0.
   200  1.99  0.  0.
   201  2.00  0.  0.
   202  2.01  0.  0.
   203  2.02  0.  0.
   204  2.03  0.  0.
   205  2.04  0.  0.
   206  2.05  0.  0.
   207  2.06  0.  0.
   208  2.07  0.  0.
   209  2.08  0.  0.
   210  2.09  0.  0.
   211  2.10  0.  0.
   212  2.11  0.  0.
   213  2.12  0.  0.
   214  2.13  0.  0.
   215  2.14  0.  0.
   216  2.15  0.  0.
   217  2.16  0.  0.
   218  2.17  0.  0.
   219  2.18  0.  0.
   220  2.19  0.  0.
   221  2.20  0.  0.
   222  2.21  0.  0.
   223  2.22  0.  0.
   224  2.23  0.  0.
   225  2.24  0.  0.
   226  2.25  0.  0.
   227  2.26  0.  0.
   228  2.27  0.  0.
   229  2.28  0.  0.
   230  2.29  0.  0.
   231  2.30  0.  0.
   232  2.31  0.  0.
   233  2.32  0.  0.
   234  2.33  0.  0.
   235  2.34  0.  0.
   236  2.35  0.  0.
   237  2.36  0.  0.
   238  2.37  0.  0.
   239  2.38  0.  0.
   240  2.39  0.  0.
   241  2.40  0.  0.
   242  2.41  0.  0.
   243  2.42  0.  0.
   244  2.43  0.  0.
   245  2.44  0.  0.
   246  2.45  0.  0.
   247  2.46  0.  0.
   248  2.47  0.  0.
   249  2.48  0.  0.
   250  2.49  0.  0.
   251  2.50  0.  0.
   252  2.51  0.  0.
   253  2.52  0.  0.
   254  2.53  0.  0.
   255  2.54  0.  0.
   256  2.55  0.  0.
   257  2.56  0.  0.
   258  2.57  0.  0.
   259  2.58  0.  0.
   260  2.59  0.  0.
   261  2.60  0.  0.
   262  2.61  0.  0.
   263  2.62  0.  0.
   264  2.63  0.  0.
   265  2.64  0.  0.
   266  2.65  0.  0.
   267  2.66  0.  0.
   268  2.67  0.  0.
   269  2.68  0.  0.
   270  2.69  0.  0.
   271  2.70  0.  0.
   272  2.71  0.  0.
   273  2.72  0.  0.
   274  2.73  0.  0.
   275  2.74  0.  0.
   276  2.75  0.  0.
   277  2.76  0.  0.
   278  2.77  0.  0.
   279  2.78  0.  0.
   280  2.79  0.  0.
   281  2.80  0.  0.
   282  2.81  0.  0.
   283  2.82  0.  0.
   284  2.83  0.  0.
   285  2.84  0.  0.
   286  2.85  0.  0.
   287  2.86  0.  0.
   288  2.87  0.  0.
   289  2.88  0.  0.
   290  2.89  0.  0.
   291  2.90  0.  0.
   292  2.91  0.  0.
   293  2.92  0.  0.
   294  2.93  0.  0.
   295  2.94  0.  0.
   296  2.95  0.  0.
   297  2.96  0.  0.
   298  2.97  0.  0.
   299  2.98  0.  0.
   300  2.99  0.  0.
   301  3.00  0.  0.
   302  3.01  0.  0.
   303  3.02  0.  0.
   304  3.03  0.  0.
   305  3.04  0.  0.
   306  3.05  0.  0.
   307  3.06  0.  0.
   308  3.07  0.  0.
   309  3.08  0.  0.
   310  3.09  0.  0.
   311  3.10  0.  0.
   312  3.11  0.  0.
   313  3.12  0.  0.
   314  3.13  0.  0.
   315  3.14  0.  0.
   316  3.15  0.  0.
   317  3.16  0.  0.
   318  3.17  0.  0.
   319  3.18  0.  0.
   320  3.19  0.  0.
   321  3.20  0.  0.
   322  3.21  0.  0.
   323  3.22  0.  0.
   324  3.23  0.  0.
   325  3.24  0.  0.
   326  3.25  0.  0.
   327  3.26  0.  0.
   328  3.27  0.  0.
   329  3.28  0.  0.
   330  3.29  0.  0.
   331  3.30  0.  0.
   332  3.31  0.  0.
   333  3.32  0.  0.
   334  3.33  0.  0.
   335  3.34  0.  0.
   336  3.35  0.  0.
   337  3.36  0.  0.
   338  3.37  0.  0.
   339  3.38  0.  0.
   340  3.39  0.  0.
   341  3.40  0.  0.
   342  3.41  0.  0.
   343  3.42  0.  0.
   344  3.43  0.  0.
   345  3.44  0.  0.
   346  3.45  0.  0.
   347  3.46  0.  0.
   348  3.47  0.  0.
   349  3.48  0.  0.
   350  3.49  0.  0.
   351  3.50  0.  0.
   352  3.51  0.  0.
   353  3.52  0.  0.
   354  3.53  0.  0.
   355  3.54  0.  0.
   356  3.55  0.  0.
   357  3.56  0.  0.
   358  3.57  0.  0.
   359  3.58  0.  0.
   360  3.59  0.  0.
   361  3.60  0.  0.
   362  3.61  0.  0.
   363  3.62  0.  0.
   364  3.63  0.  0.
   365  3.64  0.  0.
   366  3.65  0.  0.
   367  3.66  0.  0.
   368  3.67  0.  0.
   369  3.68  0.  0.
   370  3.69  0.  0.
   371  3.70  0.  0.
   372  3.71  0.  0.
   373  3.72  0.  0.
   374  3.73  0.  0.
   375  3.74  0.  0.
   376  3.75  0.  0.
   377  3.76  0.  0.
   378  3.77  0.  0.
   379  3.78  0.  0.
   380  3.79  0.  0.
   381  3.80  0.  0.
   382  3.81  0.  0.
   383  3.82  0.  0.
   384  3.83  0.  0.
   385  3.84  0.  0.
   386  3.85  0.  0.
   387  3.86  0.  0.
   388  3.87  0.  0.
   389  3.88  0.  0.
   390  3.89  0.  0.
   391  3.90  0.  0.
   392  3.91  0.  0.
   393  3.92  0.  0.
   394  3.93  0.  0.
   395  3.94  0.  0.
   396  3.95  0.  0.
   397  3.96  0.  0.
   398  3.97  0.  0.
   399  3.98  0.  0.
   400  3.99  0.  0.
   4
     1  0.0000000000000E+00 -9.6435896379545E+00
     2  1.0000000000000E-02 -9.6421550595183E+00
     3  2.0000000000000E-02 -9.6378532214102E+00
     4  3.0000000000000E-02 -9.6306912798727E+00
     5  4.0000000000000E-02 -9.6206808872690E+00
     6  5.0000000000000E-02 -9.6078382987197E+00
     7  6.0000000000000E-02 -9.5921843138750E+00
     8  7.0000000000000E-02 -9.5737442028388E+00