Rb    ONCVPSP-4.0.1  r_core=   1.70061   1.75224   1.90531
     37.0000      9.0000      250217    zatom,zion,pspd
     8       2   2     4   600     0    pspcod,pspxc,lmax,lloc,mmax,r2well
  5.99000000  7.00000000  0.00000000    rchrg fchrg qchrg
     2     2     2     0    nproj
     3     1           extension_switch
     4     4     0    nprojso
   0                         8.0909476115849E+00 -4.6175938480592E-01
     1  0.0000000000000E+00  5.5590537728634E-10  2.3292228701344E-09
     2  1.0000000000000E-02  5.6510149873809E-02 -9.5207348526819E-03
     3  2.0000000000000E-02  1.1296813471210E-01 -1.8890304576542E-02
     4  3.0000000000000E-02  1.6932134239589E-01 -2.7959959966051E-02
     5  4.0000000000000E-02  2.2551627578241E-01 -3.6585744876359E-02
     6  5.0000000000000E-02  2.8149813290618E-01 -4.4630796394257E-02
     7  6.0000000000000E-02  3.3721041403347E-01 -5.1967531063802E-02
     8  7.0000000000000E-02  3.9259456385703E-01 -5.8479681966660E-02
     9  8.0000000000000E-02  4.4758965656224E-01 -6.4064153786499E-02
    10  9.0000000000000E-02  5.0213213081731E-01 -6.8632665830134E-02
    11  1.0000000000000E-01  5.5615558094954E-01 -7.2113156291797E-02
    12  1.1000000000000E-01  6.0959060967903E-01 -7.4450924779813E-02
    13  1.2000000000000E-01  6.6236474680475E-01 -7.5609494219482E-02
    14  1.3000000000000E-01  7.1440243719061E-01 -7.5571177638768E-02
    15  1.4000000000000E-01  7.6562510029659E-01 -7.4337339966871E-02
    16  1.5000000000000E-01  8.1595126236078E-01 -7.1928349758253E-02
    17  1.6000000000000E-01  8.6529676117803E-01 -6.8383220622690E-02
    18  1.7000000000000E-01  9.1357502225937E-01 -6.3758947019631E-02
    19  1.8000000000000E-01  9.6069740401057E-01 -5.8129543887732E-02
    20  1.9000000000000E-01  1.0065736084562E+00 -5.1584804253024E-02
    21  2.0000000000000E-01  1.0511121529739E+00 -4.4228793419639E-02
    22  2.1000000000000E-01  1.0942208975105E+00 -3.6178102525988E-02
    23  2.2000000000000E-01  1.1358076208387E+00 -2.7559888082309E-02
    24  2.3000000000000E-01  1.1757806385998E+00 -1.8509727532599E-02
    25  2.4000000000000E-01  1.2140494551725E+00 -9.1693238520624E-03
    26  2.5000000000000E-01  1.2505254408190E+00  3.1590534615179E-04
    27  2.6000000000000E-01  1.2851225251080E+00  9.7993168024923E-03
    28  2.7000000000000E-01  1.3177578972904E+00  1.9135569963998E-02
    29  2.8000000000000E-01  1.3483527041232E+00  2.8183155213085E-02
    30  2.9000000000000E-01  1.3768327356032E+00  3.6806882346186E-02
    31  3.0000000000000E-01  1.4031290891787E+00  4.4880290146262E-02
    32  3.1000000000000E-01  1.4271788032564E+00  5.2287938968370E-02
    33  3.2000000000000E-01  1.4489254512101E+00  5.8927549921406E-02
    34  3.3000000000000E-01  1.4683196876179E+00  6.4711956457075E-02
    35  3.4000000000000E-01  1.4853197390988E+00  6.9570836936200E-02
    36  3.5000000000000E-01  1.4998918328781E+00  7.3452199990059E-02
    37  3.6000000000000E-01  1.5120105570706E+00  7.6323598182945E-02
    38  3.7000000000000E-01  1.5216591476235E+00  7.8173049553608E-02
    39  3.8000000000000E-01  1.5288296978796E+00  7.9009651008003E-02
    40  3.9000000000000E-01  1.5335232878087E+00  7.8863872184814E-02
    41  4.0000000000000E-01  1.5357500310760E+00  7.7787523249532E-02
    42  4.1000000000000E-01  1.5355290392661E+00  7.5853395017320E-02
    43  4.2000000000000E-01  1.5328883037360E+00  7.3154574784774E-02
    44  4.3000000000000E-01  1.5278644967162E+00  6.9803446189419E-02
    45  4.4000000000000E-01  1.5205026943949E+00  6.5930386238296E-02
    46  4.5000000000000E-01  1.5108560257904E+00  6.1682177278402E-02
    47  4.6000000000000E-01  1.4989852522279E+00  5.7220156052495E-02
    48  4.7000000000000E-01  1.4849582831704E+00  5.2718126025228E-02
    49  4.8000000000000E-01  1.4688496349918E+00  4.8360062815580E-02
    50  4.9000000000000E-01  1.4507398400241E+00  4.4337645775671E-02
    51  5.0000000000000E-01  1.4307148138312E+00  4.0847651463386E-02
    52  5.1000000000000E-01  1.4088651891637E+00  3.8089246925475E-02
    53  5.2000000000000E-01  1.3852856254219E+00  3.6261222304790E-02
    54  5.3000000000000E-01  1.3600741026837E+00  3.5559203285184E-02
    55  5.4000000000000E-01  1.3333312094570E+00  3.6172884274485E-02
    56  5.5000000000000E-01  1.3051594332650E+00  3.8283322993074E-02
    57  5.6000000000000E-01  1.2756624629977E+00  4.2060336286244E-02
    58  5.7000000000000E-01  1.2449445116416E+00  4.7660035524474E-02
    59  5.8000000000000E-01  1.2131096675562E+00  5.5222537919122E-02
    60  5.9000000000000E-01  1.1802612818989E+00  6.4869887492054E-02
    61  6.0000000000000E-01  1.1465013991177E+00  7.6704216335219E-02
    62  6.1000000000000E-01  1.1119302366562E+00  9.0806173227618E-02
    63  6.2000000000000E-01  1.0766457191420E+00  1.0723364269567E-01
    64  6.3000000000000E-01  1.0407430713899E+00  1.2602077326968E-01
    65  6.4000000000000E-01  1.0043144735515E+00  1.4717732906987E-01
    66  6.5000000000000E-01  9.6744878069598E-01  1.7068837401972E-01
    67  6.6000000000000E-01  9.3023130803996E-01  1.9651429300709E-01
    68  6.7000000000000E-01  8.9274368196465E-01  2.2459114926925E-01
    69  6.8000000000000E-01  8.5506375588841E-01  2.5483137224481E-01
    70  6.9000000000000E-01  8.1726558901814E-01  2.8712476518978E-01
    71  7.0000000000000E-01  7.7941948499994E-01  3.2133981707219E-01
    72  7.1000000000000E-01  7.4159208654391E-01  3.5732529871381E-01
    73  7.2000000000000E-01  7.0384652122578E-01  3.9491211890747E-01
    74  7.3000000000000E-01  6.6624259288150E-01  4.3391541236959E-01
    75  7.4000000000000E-01  6.2883701232370E-01  4.7413682794990E-01
    76  7.5000000000000E-01  5.9168366053062E-01  5.1536698256544E-01
    77  7.6000000000000E-01  5.5483387699912E-01  5.5738804390123E-01
    78  7.7000000000000E-01  5.1833676561895E-01  5.9997640306179E-01
    79  7.8000000000000E-01  4.8223951022283E-01  6.4290539709460E-01
    80  7.9000000000000E-01  4.4658769189713E-01  6.8594804066018E-01
    81  8.0000000000000E-01  4.1142560020345E-01  7.2887972610190E-01
    82  8.1000000000000E-01  3.7679653066015E-01  7.7148085177473E-01
    83  8.2000000000000E-01  3.4274306116176E-01  8.1353933971537E-01
    84  8.3000000000000E-01  3.0930730046768E-01  8.5485300555985E-01
    85  8.4000000000000E-01  2.7653110246280E-01  8.9523174601041E-01
    86  8.5000000000000E-01  2.4445624057144E-01  9.3449951208450E-01
    87  8.6000000000000E-01  2.1312453748272E-01  9.7249603980252E-01
    88  8.7000000000000E-01  1.8257794620585E-01  1.0090783138319E+00
    89  8.8000000000000E-01  1.5285857940634E-01  1.0441217438487E+00
    90  8.9000000000000E-01  1.2400868496125E-01  1.0775210379342E+00
    91  9.0000000000000E-01  9.6070566699896E-02  1.1091907621279E+00
    92  9.1000000000000E-01  6.9086450347463E-02  1.1390655802331E+00
    93  9.2000000000000E-01  4.3098295747063E-02  1.1671001730402E+00
    94  9.3000000000000E-01  1.8147557483346E-02  1.1932688412208E+00
    95  9.4000000000000E-01 -5.7251029490723E-03  1.2175648011708E+00
    96  9.5000000000000E-01 -2.8480149312568E-02  1.2399991879679E+00
    97  9.6000000000000E-01 -5.0079542092600E-02  1.2605997842788E+00
    98  9.7000000000000E-01 -7.0487143384625E-02  1.2794094984369E+00
    99  9.8000000000000E-01 -8.9669148570279E-02  1.2964846189389E+00
   100  9.9000000000000E-01 -1.0759453749918E-01  1.3118928762160E+00
   101  1.0000000000000E+00 -1.2423553735289E-01  1.3257113456708E+00
   102  1.0100000000000E+00 -1.3956808894935E-01  1.3380242285744E+00
   103  1.0200000000000E+00 -1.5357230795687E-01  1.3489205494606E+00
   104  1.0300000000000E+00 -1.6623293233280E-01  1.3584918100872E+00
   105  1.0400000000000E+00 -1.7753974728575E-01  1.3668296408501E+00
   106  1.0500000000000E+00 -1.8748797918460E-01  1.3740234907035E+00
   107  1.0600000000000E+00 -1.9607865010081E-01  1.3801583961632E+00
   108  1.0700000000000E+00 -2.0331888507067E-01  1.3853128688539E+00
   109  1.0800000000000E+00 -2.0922216469703E-01  1.3895569393101E+00
   110  1.0900000000000E+00 -2.1380851636675E-01  1.3929503923920E+00
   111  1.1000000000000E+00 -2.1710463813688E-01  1.3955412267461E+00
   112  1.1100000000000E+00 -2.1914395022206E-01  1.3973643672883E+00
   113  1.1200000000000E+00 -2.1996656999525E-01  1.3984406557372E+00
   114  1.1300000000000E+00 -2.1961920746986E-01  1.3987761398646E+00
   115  1.1400000000000E+00 -2.1815497936069E-01  1.3983616773850E+00
   116  1.1500000000000E+00 -2.1563314099694E-01  1.3971728653834E+00
   117  1.1600000000000E+00 -2.1211873657776E-01  1.3951703009143E+00
   118  1.1700000000000E+00 -2.0768216949192E-01  1.3923001730088E+00
   119  1.1800000000000E+00 -2.0239869566290E-01  1.3884951808355E+00
   120  1.1900000000000E+00 -1.9634784409712E-01  1.3836757673140E+00
   121  1.2000000000000E+00 -1.8961277000841E-01  1.3777516520730E+00
   122  1.2100000000000E+00 -1.8227954702654E-01  1.3706236424602E+00
   123  1.2200000000000E+00 -1.7443640607873E-01  1.3621856963213E+00
   124  1.2300000000000E+00 -1.6617292952733E-01  1.3523272056233E+00
   125  1.2400000000000E+00 -1.5757921004841E-01  1.3409354657349E+00
   126  1.2500000000000E+00 -1.4874498453340E-01  1.3278982913536E+00
   127  1.2600000000000E+00 -1.3975875396863E-01  1.3131067367772E+00
   128  1.2700000000000E+00 -1.3070690079467E-01  1.2964578754720E+00
   129  1.2800000000000E+00 -1.2167281565349E-01  1.2778575917575E+00
   130  1.2900000000000E+00 -1.1273604569048E-01  1.2572233359497E+00
   131  1.3000000000000E+00 -1.0397147668595E-01  1.2344867934935E+00
   132  1.3100000000000E+00 -9.5448561239425E-02  1.2095964185125E+00
   133  1.3200000000000E+00 -8.7230605019556E-02  1.1825197828183E+00
   134  1.3300000000000E+00 -7.9374122721055E-02  1.1532456927448E+00
   135  1.3400000000000E+00 -7.1928274834301E-02  1.1217860282423E+00
   136  1.3500000000000E+00 -6.4934395639189E-02  1.0881772614336E+00
   137  1.3600000000000E+00 -5.8425621984677E-02  1.0524816152964E+00
   138  1.3700000000000E+00 -5.2426631407405E-02  1.0147878273006E+00
   139  1.3800000000000E+00 -4.6953496987710E-02  9.7521148762703E-01
   140  1.3900000000000E+00 -4.2013665042197E-02  9.3389492702474E-01
   141  1.4000000000000E+00 -3.7606060315260E-02  8.9100663537125E-01
   142  1.4100000000000E+00 -3.3721321765579E-02  8.4674019855598E-01
   143  1.4200000000000E+00 -3.0342170346211E-02  8.0131274838946E-01
   144  1.4300000000000E+00 -2.7443908371272E-02  7.5496292775217E-01
   145  1.4400000000000E+00 -2.4995048139261E-02  7.0794838115173E-01
   146  1.4500000000000E+00 -2.2958065456113E-02  6.6054278918708E-01
   147  1.4600000000000E+00 -2.1290271585460E-02  6.1303247404272E-01
   148  1.4700000000000E+00 -1.9944794925729E-02  5.6571261212962E-01
   149  1.4800000000000E+00 -1.8871661418738E-02  5.1888309915196E-01
   150  1.4900000000000E+00 -1.8018960302149E-02  4.7284412231148E-01
   151  1.5000000000000E+00 -1.7334079348515E-02  4.2789150396212E-01
   152  1.5100000000000E+00 -1.6764991183161E-02  3.8431189079132E-01
   153  1.5200000000000E+00 -1.6261569639488E-02  3.4237787251610E-01
   154  1.5300000000000E+00 -1.5776912408423E-02  3.0234312406874E-01
   155  1.5400000000000E+00 -1.5268643428355E-02  2.6443767543285E-01
   156  1.5500000000000E+00 -1.4700165589752E-02  2.2886342348704E-01
   157  1.5600000000000E+00 -1.4041831346517E-02  1.9579001057607E-01
   158  1.5700000000000E+00 -1.3271995748233E-02  1.6535120498848E-01
   159  1.5800000000000E+00 -1.2377913218476E-02  1.3764192911185E-01
   160  1.5900000000000E+00 -1.1356435058248E-02  1.1271609260426E-01
   161  1.6000000000000E+00 -1.0214472559947E-02  9.0585390443311E-02
   162  1.6100000000000E+00 -8.9691304435266E-03  7.1219273990005E-02
   163  1.6200000000000E+00 -7.6479913875803E-03  5.4545904017992E-02
   164  1.6300000000000E+00 -6.2901282815303E-03  4.0453291842735E-02
   165  1.6400000000000E+00 -4.9402892945389E-03  2.8797723864455E-02
   166  1.6500000000000E+00 -3.6491925542908E-03  1.9409625830593E-02
   167  1.6600000000000E+00 -2.4722943575588E-03  1.2101614246506E-02
   168  1.6700000000000E+00 -1.4669197863562E-03  6.6796482264535E-03
   169  1.6800000000000E+00 -6.8877194348055E-04  2.9571312704632E-03
   170  1.6900000000000E+00 -1.8676599621812E-04  7.6877253768402E-04
   171  1.7000000000000E+00 -3.3229060156377E-06  1.3197676712201E-05
   172  1.7100000000000E+00  1.4443397489674E-06 -5.6633838023593E-06
   173  1.7200000000000E+00 -7.3182467895728E-07  2.9155033832757E-06
   174  1.73  0.  0.
   175  1.74  0.  0.
   176  1.75  0.  0.
   177  1.76  0.  0.
   178  1.77  0.  0.
   179  1.78  0.  0.
   180  1.79  0.  0.
   181  1.80  0.  0.
   182  1.81  0.  0.
   183  1.82  0.  0.
   184  1.83  0.  0.
   185  1.84  0.  0.
   186  1.85  0.  0.
   187  1.86  0.  0.
   188  1.87  0.  0.
   189  1.88  0.  0.
   190  1.89  0.  0.
   191  1.90  0.  0.
   192  1.91  0.  0.
   193  1.92  0.  0.
   194  1.93  0.  0.
   195  1.94  0.  0.
   196  1.95  0.  0.
   197  1.96  0.  0.
   198  1.97  0.  0.
   199  1.98  0.  0.
   200  1.99  0.  0.
   201  2.00  0.  0.
   202  2.01  0.  0.
   203  2.02  0.  0.
   204  2.03  0.  0.
   205  2.04  0.  0.
   206  2.05  0.  0.
   207  2.06  0.  0.
   208  2.07  0.  0.
   209  2.08  0.  0.
   210  2.09  0.  0.
   211  2.10  0.  0.
   212  2.11  0.  0.
   213  2.12  0.  0.
   214  2.13  0.  0.
   215  2.14  0.  0.
   216  2.15  0.  0.
   217  2.16  0.  0.
   218  2.17  0.  0.
   219  2.18  0.  0.
   220  2.19  0.  0.
   221  2.20  0.  0.
   222  2.21  0.  0.
   223  2.22  0.  0.
   224  2.23  0.  0.
   225  2.24  0.  0.
   226  2.25  0.  0.
   227  2.26  0.  0.
   228  2.27  0.  0.
   229  2.28  0.  0.
   230  2.29  0.  0.
   231  2.30  0.  0.
   232  2.31  0.  0.
   233  2.32  0.  0.
   234  2.33  0.  0.
   235  2.34  0.  0.
   236  2.35  0.  0.
   237  2.36  0.  0.
   238  2.37  0.  0.
   239  2.38  0.  0.
   240  2.39  0.  0.
   241  2.40  0.  0.
   242  2.41  0.  0.
   243  2.42  0.  0.
   244  2.43  0.  0.
   245  2.44  0.  0.
   246  2.45  0.  0.
   247  2.46  0.  0.
   248  2.47  0.  0.
   249  2.48  0.  0.
   250  2.49  0.  0.
   251  2.50  0.  0.
   252  2.51  0.  0.
   253  2.52  0.  0.
   254  2.53  0.  0.
   255  2.54  0.  0.
   256  2.55  0.  0.
   257  2.56  0.  0.
   258  2.57  0.  0.
   259  2.58  0.  0.
   260  2.59  0.  0.
   261  2.60  0.  0.
   262  2.61  0.  0.
   263  2.62  0.  0.
   264  2.63  0.  0.
   265  2.64  0.  0.
   266  2.65  0.  0.
   267  2.66  0.  0.
   268  2.67  0.  0.
   269  2.68  0.  0.
   270  2.69  0.  0.
   271  2.70  0.  0.
   272  2.71  0.  0.
   273  2.72  0.  0.
   274  2.73  0.  0.
   275  2.74  0.  0.
   276  2.75  0.  0.
   277  2.76  0.  0.
   278  2.77  0.  0.
   279  2.78  0.  0.
   280  2.79  0.  0.
   281  2.80  0.  0.
   282  2.81  0.  0.
   283  2.82  0.  0.
   284  2.83  0.  0.
   285  2.84  0.  0.
   286  2.85  0.  0.
   287  2.86  0.  0.
   288  2.87  0.  0.
   289  2.88  0.  0.
   290  2.89  0.  0.
   291  2.90  0.  0.
   292  2.91  0.  0.
   293  2.92  0.  0.
   294  2.93  0.  0.
   295  2.94  0.  0.
   296  2.95  0.  0.
   297  2.96  0.  0.
   298  2.97  0.  0.
   299  2.98  0.  0.
   300  2.99  0.  0.
   301  3.00  0.  0.
   302  3.01  0.  0.
   303  3.02  0.  0.
   304  3.03  0.  0.
   305  3.04  0.  0.
   306  3.05  0.  0.
   307  3.06  0.  0.
   308  3.07  0.  0.
   309  3.08  0.  0.
   310  3.09  0.  0.
   311  3.10  0.  0.
   312  3.11  0.  0.
   313  3.12  0.  0.
   314  3.13  0.  0.
   315  3.14  0.  0.
   316  3.15  0.  0.
   317  3.16  0.  0.
   318  3.17  0.  0.
   319  3.18  0.  0.
   320  3.19  0.  0.
   321  3.20  0.  0.
   322  3.21  0.  0.
   323  3.22  0.  0.
   324  3.23  0.  0.
   325  3.24  0.  0.
   326  3.25  0.  0.
   327  3.26  0.  0.
   328  3.27  0.  0.
   329  3.28  0.  0.
   330  3.29  0.  0.
   331  3.30  0.  0.
   332  3.31  0.  0.
   333  3.32  0.  0.
   334  3.33  0.  0.
   335  3.34  0.  0.
   336  3.35  0.  0.
   337  3.36  0.  0.
   338  3.37  0.  0.
   339  3.38  0.  0.
   340  3.39  0.  0.
   341  3.40  0.  0.
   342  3.41  0.  0.
   343  3.42  0.  0.
   344  3.43  0.  0.
   345  3.44  0.  0.
   346  3.45  0.  0.
   347  3.46  0.  0.
   348  3.47  0.  0.
   349  3.48  0.  0.
   350  3.49  0.  0.
   351  3.50  0.  0.
   352  3.51  0.  0.
   353  3.52  0.  0.
   354  3.53  0.  0.
   355  3.54  0.  0.
   356  3.55  0.  0.
   357  3.56  0.  0.
   358  3.57  0.  0.
   359  3.58  0.  0.
   360  3.59  0.  0.
   361  3.60  0.  0.
   362  3.61  0.  0.
   363  3.62  0.  0.
   364  3.63  0.  0.
   365  3.64  0.  0.
   366  3.65  0.  0.
   367  3.66  0.  0.
   368  3.67  0.  0.
   369  3.68  0.  0.
   370  3.69  0.  0.
   371  3.70  0.  0.
   372  3.71  0.  0.
   373  3.72  0.  0.
   374  3.73  0.  0.
   375  3.74  0.  0.
   376  3.75  0.  0.
   377  3.76  0.  0.
   378  3.77  0.  0.
   379  3.78  0.  0.
   380  3.79  0.  0.
   381  3.80  0.  0.
   382  3.81  0.  0.
   383  3.82  0.  0.
   384  3.83  0.  0.
   385  3.84  0.  0.
   386  3.85  0.  0.
   387  3.86  0.  0.
   388  3.87  0.  0.
   389  3.88  0.  0.
   390  3.89  0.  0.
   391  3.90  0.  0.
   392  3.91  0.  0.
   393  3.92  0.  0.
   394  3.93  0.  0.
   395  3.94  0.  0.
   396  3.95  0.  0.
   397  3.96  0.  0.
   398  3.97  0.  0.
   399  3.98  0.  0.
   400  3.99  0.  0.
   401  4.00  0.  0.
   402  4.01  0.  0.
   403  4.02  0.  0.
   404  4.03  0.  0.
   405  4.04  0.  0.
   406  4.05  0.  0.
   407  4.06  0.  0.
   408  4.07  0.  0.
   409  4.08  0.  0.
   410  4.09  0.  0.
   411  4.10  0.  0.
   412  4.11  0.  0.
   413  4.12  0.  0.
   414  4.13  0.  0.
   415  4.14  0.  0.
   416  4.15  0.  0.
   417  4.16  0.  0.
   418  4.17  0.  0.
   419  4.18  0.  0.
   420  4.19  0.  0.
   421  4.20  0.  0.
   422  4.21  0.  0.
   423  4.22  0.  0.
   424  4.23  0.  0.
   425  4.24  0.  0.
   426  4.25  0.  0.
   427  4.26  0.  0.
   428  4.27  0.  0.
   429  4.28  0.  0.
   430  4.29  0.  0.
   431  4.30  0.  0.
   432  4.31  0.  0.
   433  4.32  0.  0.
   434  4.33  0.  0.
   435  4.34  0.  0.
   436  4.35  0.  0.
   437  4.36  0.  0.
   438  4.37  0.  0.
   439  4.38  0.  0.
   440  4.39  0.  0.
   441  4.40  0.  0.
   442  4.41  0.  0.
   443  4.42  0.  0.
   444  4.43  0.  0.
   445  4.44  0.  0.
   446  4.45  0.  0.
   447  4.46  0.  0.
   448  4.47  0.  0.
   449  4.48  0.  0.
   450  4.49  0.  0.
   451  4.50  0.  0.
   452  4.51  0.  0.
   453  4.52  0.  0.
   454  4.53  0.  0.
   455  4.54  0.  0.
   456  4.55  0.  0.
   457  4.56  0.  0.
   458  4.57  0.  0.
   459  4.58  0.  0.
   460  4.59  0.  0.
   461  4.60  0.  0.
   462  4.61  0.  0.
   463  4.62  0.  0.
   464  4.63  0.  0.
   465  4.64  0.  0.
   466  4.65  0.  0.
   467  4.66  0.  0.
   468  4.67  0.  0.
   469  4.68  0.  0.
   470  4.69  0.  0.
   471  4.70  0.  0.
   472  4.71  0.  0.
   473  4.72  0.  0.
   474  4.73  0.  0.
   475  4.74  0.  0.
   476  4.75  0.  0.
   477  4.76  0.  0.
   478  4.77  0.  0.
   479  4.78  0.  0.
   480  4.79  0.  0.
   481  4.80  0.  0.
   482  4.81  0.  0.
   483  4.82  0.  0.
   484  4.83  0.  0.
   485  4.84  0.  0.
   486  4.85  0.  0.
   487  4.86  0.  0.
   488  4.87  0.  0.
   489  4.88  0.  0.
   490  4.89  0.  0.
   491  4.90  0.  0.
   492  4.91  0.  0.
   493  4.92  0.  0.
   494  4.93  0.  0.
   495  4.94  0.  0.
   496  4.95  0.  0.
   497  4.96  0.  0.
   498  4.97  0.  0.
   499  4.98  0.  0.
   500  4.99  0.  0.
   501  5.00  0.  0.
   502  5.01  0.  0.
   503  5.02  0.  0.
   504  5.03  0.  0.
   505  5.04  0.  0.
   506  5.05  0.  0.
   507  5.06  0.  0.
   508  5.07  0.  0.
   509  5.08  0.  0.
   510  5.09  0.  0.
   511  5.10  0.  0.
   512  5.11  0.  0.
   513  5.12  0.  0.
   514  5.13  0.  0.
   515  5.14  0.  0.
   516  5.15  0.  0.
   517  5.16  0.  0.
   518  5.17  0.  0.
   519  5.18  0.  0.
   520  5.19  0.  0.
   521  5.20  0.  0.
   522  5.21  0.  0.
   523  5.22  0.  0.
   524  5.23  0.  0.
   525  5.24  0.  0.
   526  5.25  0.  0.
   527  5.26  0.  0.
   528  5.27  0.  0.
   529  5.28  0.  0.
   530  5.29  0.  0.
   531  5.30  0.  0.
   532  5.31  0.  0.
   533  5.32  0.  0.
   534  5.33  0.  0.
   535  5.34  0.  0.
   536  5.35  0.  0.
   537  5.36  0.  0.
   538  5.37  0.  0.
   539  5.38  0.  0.
   540  5.39  0.  0.
   541  5.40  0.  0.
   542  5.41  0.  0.
   543  5.42  0.  0.
   544  5.43  0.  0.
   545  5.44  0.  0.
   546  5.45  0.  0.
   547  5.46  0.  0.
   548  5.47  0.  0.
   549  5.48  0.  0.
   550  5.49  0.  0.
   551  5.50  0.  0.
   552  5.51  0.  0.
   553  5.52  0.  0.
   554  5.53  0.  0.
   555  5.54  0.  0.
   556  5.55  0.  0.
   557  5.56  0.  0.
   558  5.57  0.  0.
   559  5.58  0.  0.
   560  5.59  0.  0.
   561  5.60  0.  0.
   562  5.61  0.  0.
   563  5.62  0.  0.
   564  5.63  0.  0.
   565  5.64  0.  0.
   566  5.65  0.  0.
   567  5.66  0.  0.
   568  5.67  0.  0.
   569  5.68  0.  0.
   570  5.69  0.  0.
   571  5.70  0.  0.
   572  5.71  0.  0.
   573  5.72  0.  0.
   574  5.73  0.  0.
   575  5.74  0.  0.
   576  5.75  0.  0.
   577  5.76  0.  0.
   578  5.77  0.  0.
   579  5.78  0.  0.
   580  5.79  0.  0.
   581  5.80  0.  0.
   582  5.81  0.  0.
   583  5.82  0.  0.
   584  5.83  0.  0.
   585  5.84  0.  0.
   586  5.85  0.  0.
   587  5.86  0.  0.
   588  5.87  0.  0.
   589  5.88  0.  0.
   590  5.89  0.  0.
   591  5.90  0.  0.
   592  5.91  0.  0.
   593  5.92  0.  0.
   594  5.93  0.  0.
   595  5.94  0.  0.
   596  5.95  0.  0.
   597  5.96  0.  0.
   598  5.97  0.  0.
   599  5.98  0.  0.
   600  5.99  0.  0.
   1                         2.5156656982996E+00 -4.0152220365570E-01
     1  0.0000000000000E+00  1.0781529946602E-08  8.1267295406161E-09
     2  1.0000000000000E-02  1.5931298824657E-03 -1.0686872623527E-05
     3  2.0000000000000E-02  6.3570098847303E-03 -4.9303099878417E-05
     4  3.0000000000000E-02  1.4245406955676E-02 -1.3531416025210E-04
     5  4.0000000000000E-02  2.5182245791631E-02 -3.0049630869182E-04
     6  5.0000000000000E-02  3.9063055903099E-02 -5.8795449507368E-04
     7  6.0000000000000E-02  5.5756952806557E-02 -1.0507815039319E-03
     8  7.0000000000000E-02  7.5109109817412E-02 -1.7503914202957E-03
     9  8.0000000000000E-02  9.6943666138663E-02 -2.7545686532091E-03
    10  9.0000000000000E-02  1.2106700734975E-01 -4.1352809174717E-03
    11  1.0000000000000E-01  1.4727134621256E-01 -5.9663106171514E-03
    12  1.1000000000000E-01  1.7533852510823E-01 -8.3207638485628E-03
    13  1.2000000000000E-01  2.0504395654574E-01 -1.1268519631163E-02
    14  1.3000000000000E-01  2.3616061515177E-01 -1.4873683898768E-02
    15  1.4000000000000E-01  2.6846299343006E-01 -1.9192113190535E-02
    16  1.5000000000000E-01  3.0173093439685E-01 -2.4269071854871E-02
    17  1.6000000000000E-01  3.3575325694262E-01 -3.0137083938965E-02
    18  1.7000000000000E-01  3.7033109438510E-01 -3.6814036834824E-02
    19  1.8000000000000E-01  4.0528087306713E-01 -4.4301588276148E-02
    20  1.9000000000000E-01  4.4043686588121E-01 -5.2583921547343E-02
    21  2.0000000000000E-01  4.7565326509993E-01 -6.1626885923575E-02
    22  2.1000000000000E-01  5.1080572965335E-01 -7.1377550582241E-02
    23  2.2000000000000E-01  5.4579237379122E-01 -8.1764190707010E-02
    24  2.3000000000000E-01  5.8053417664296E-01 -9.2696714459052E-02
    25  2.4000000000000E-01  6.1497480527038E-01 -1.0406752914300E-01
    26  2.5000000000000E-01  6.4907985711169E-01 -1.1575283448261E-01
    27  2.6000000000000E-01  6.8283554094987E-01 -1.2761432068141E-01
    28  2.7000000000000E-01  7.1624682841311E-01 -1.3950123911276E-01
    29  2.8000000000000E-01  7.4933512024600E-01 -1.5125280429087E-01
    30  2.9000000000000E-01  7.8213548290524E-01 -1.6270087743564E-01
    31  3.0000000000000E-01  8.1469352117986E-01 -1.7367287465797E-01
    32  3.1000000000000E-01  8.4706196128446E-01 -1.8399483673687E-01
    33  3.2000000000000E-01  8.7929702602332E-01 -1.9349459278441E-01
    34  3.3000000000000E-01  9.1145468900808E-01 -2.0200494692200E-01
    35  3.4000000000000E-01  9.4358689840097E-01 -2.0936681550977E-01
    36  3.5000000000000E-01  9.7573786216071E-01 -2.1543224253426E-01
    37  3.6000000000000E-01  1.0079404862414E+00 -2.2006722248554E-01
    38  3.7000000000000E-01  1.0402130546334E+00 -2.2315426342453E-01
    39  3.8000000000000E-01  1.0725562355768E+00 -2.2459462789793E-01
    40  3.9000000000000E-01  1.1049504918120E+00 -2.2431019581005E-01
    41  4.0000000000000E-01  1.1373539644749E+00 -2.2224490118070E-01
    42  4.1000000000000E-01  1.1697008903718E+00 -2.1836570374840E-01
    43  4.2000000000000E-01  1.2019006010692E+00 -2.1266306643040E-01
    44  4.3000000000000E-01  1.2338371397553E+00 -2.0515092051386E-01
    45  4.4000000000000E-01  1.2653695184166E+00 -1.9586611189240E-01
    46  4.5000000000000E-01  1.2963326238198E+00 -1.8486733343178E-01
    47  4.6000000000000E-01  1.3265387663893E+00 -1.7223356038752E-01
    48  4.7000000000000E-01  1.3557798516322E+00 -1.5806201744313E-01
    49  4.8000000000000E-01  1.3838301395976E+00 -1.4246571712733E-01
    50  4.9000000000000E-01  1.4104495442770E+00 -1.2557061984524E-01
    51  5.0000000000000E-01  1.4353874121516E+00 -1.0751247527950E-01
    52  5.1000000000000E-01  1.4583867075553E+00 -8.8433413254801E-02
    53  5.2000000000000E-01  1.4791885224098E+00 -6.8478359111975E-02
    54  5.3000000000000E-01  1.4975368194313E+00 -4.7791354028357E-02
    55  5.4000000000000E-01  1.5131833113045E+00 -2.6511864406892E-02
    56  5.5000000000000E-01  1.5258923737340E+00 -4.7711663283772E-03
    57  5.6000000000000E-01  1.5354458878292E+00  1.7311108951143E-02
    58  5.7000000000000E-01  1.5416479070397E+00  3.9630184402483E-02
    59  5.8000000000000E-01  1.5443290458548E+00  6.2099021300028E-02
    60  5.9000000000000E-01  1.5433504916981E+00  8.4650803429334E-02
    61  6.0000000000000E-01  1.5386075478267E+00  1.0724095432061E-01
    62  6.1000000000000E-01  1.5300326234576E+00  1.2984862946606E-01
    63  6.2000000000000E-01  1.5175975976544E+00  1.5247763599600E-01
    64  6.3000000000000E-01  1.5013154954955E+00  1.7515674405501E-01
    65  6.4000000000000E-01  1.4812414285006E+00  1.9793936690155E-01
    66  6.5000000000000E-01  1.4574727659200E+00  2.2090260029125E-01
    67  6.6000000000000E-01  1.4301485190179E+00  2.4414562571632E-01
    68  6.7000000000000E-01  1.3994479365754E+00  2.6778749626660E-01
    69  6.8000000000000E-01  1.3655883261718E+00  2.9196433794788E-01
    70  6.9000000000000E-01  1.3288221320345E+00  3.1682601293560E-01
    71  7.0000000000000E-01  1.2894333160346E+00  3.4253230415679E-01
    72  7.1000000000000E-01  1.2477331034116E+00  3.6924869248927E-01
    73  7.2000000000000E-01  1.2040551687117E+00  3.9714180847299E-01
    74  7.3000000000000E-01  1.1587503499197E+00  4.2637464949520E-01
    75  7.4000000000000E-01  1.1121809895764E+00  4.5710166071713E-01
    76  7.5000000000000E-01  1.0647150105584E+00  4.8946378337060E-01
    77  7.6000000000000E-01  1.0167198409478E+00  5.2358357731938E-01
    78  7.7000000000000E-01  9.6855630687966E-01  5.5956052584726E-01
    79  7.8000000000000E-01  9.2057261429606E-01  5.9746662944098E-01
    80  7.9000000000000E-01  8.7309854010513E-01  6.3734239186872E-01
    81  8.0000000000000E-01  8.2643995031395E-01  6.7919329614624E-01
    82  8.1000000000000E-01  7.8087375731851E-01  7.2298686011550E-01
    83  8.2000000000000E-01  7.3664342077752E-01  7.6865035146224E-01
    84  8.3000000000000E-01  6.9395508650862E-01  8.1606923024255E-01
    85  8.4000000000000E-01  6.5297444581157E-01  8.6508637358827E-01
    86  8.5000000000000E-01  6.1382438377317E-01  9.1550212246862E-01
    87  8.6000000000000E-01  5.7658346971429E-01  9.6707517448560E-01
    88  8.7000000000000E-01  5.4128532630434E-01  1.0195243299861E+00
    89  8.8000000000000E-01  5.0791889632636E-01  1.0725310816152E+00
    90  8.9000000000000E-01  4.7642960798257E-01  1.1257430201638E+00
    91  9.0000000000000E-01  4.4672142135356E-01  1.1787780125290E+00
    92  9.1000000000000E-01  4.1865972054222E-01  1.2312290911690E+00
    93  9.2000000000000E-01  3.9207499852055E-01  1.2826699789337E+00
    94  9.3000000000000E-01  3.6676726512089E-01  1.3326611589327E+00
    95  9.4000000000000E-01  3.4251109332185E-01  1.3807563864581E+00
    96  9.5000000000000E-01  3.1906120530076E-01  1.4265095292094E+00
    97  9.6000000000000E-01  2.9615848795315E-01  1.4694816134069E+00
    98  9.7000000000000E-01  2.7353631797328E-01  1.5092479470358E+00
    99  9.8000000000000E-01  2.5092706936188E-01  1.5454051876064E+00
   100  9.9000000000000E-01  2.2806867154822E-01  1.5775782205470E+00
   101  1.0000000000000E+00  2.0471108429464E-01  1.6054267157312E+00
   102  1.0100000000000E+00  1.8062255625460E-01  1.6286512336882E+00
   103  1.0200000000000E+00  1.5559553748853E-01  1.6469987597027E+00
   104  1.0300000000000E+00  1.2945212234975E-01  1.6602675531808E+00
   105  1.0400000000000E+00  1.0204890782289E-01  1.6683112111729E+00
   106  1.0500000000000E+00  7.3281163491029E-02  1.6710418586351E+00
   107  1.0600000000000E+00  4.3086222575155E-02  1.6684323935685E+00
   108  1.0700000000000E+00  1.1446018705717E-02  1.6605177323645E+00
   109  1.0800000000000E+00 -2.1611290049387E-02  1.6473950191614E+00
   110  1.0900000000000E+00 -5.6010650260589E-02  1.6292227823676E+00
   111  1.1000000000000E+00 -9.1630416543933E-02  1.6062190414891E+00
   112  1.1100000000000E+00 -1.2830363094733E-01  1.5786583874194E+00
   113  1.1200000000000E+00 -1.6582026013260E-01  1.5468680792315E+00
   114  1.1300000000000E+00 -2.0393035268562E-01  1.5112232196407E+00
   115  1.1400000000000E+00 -2.4234805998312E-01  1.4721410894790E+00
   116  1.1500000000000E+00 -2.8075644625483E-01  1.4300747382113E+00
   117  1.1600000000000E+00 -3.1881299704467E-01  1.3855059425117E+00
   118  1.1700000000000E+00 -3.5615572066619E-01  1.3389376577771E+00
   119  1.1800000000000E+00 -3.9240972463487E-01  1.2908860980232E+00
   120  1.1900000000000E+00 -4.2719413886275E-01  1.2418725875379E+00