Rb    ONCVPSP-4.0.1  r_core=   1.70061   1.75224   1.90531
     37.0000      9.0000      231019    zatom,zion,pspd
     8       2   2     4   600     0    pspcod,pspxc,lmax,lloc,mmax,r2well
  5.99000000  7.00000000  0.00000000    rchrg fchrg qchrg
     2     2     2     0     0    nproj
     1     1           extension_switch
   0                         8.0891842636173E+00 -4.6206966206576E-01
     1  0.0000000000000E+00  5.5260307441074E-10  2.3172339602695E-09
     2  1.0000000000000E-02  5.6526853395379E-02 -9.4932170016475E-03
     3  2.0000000000000E-02  1.1300139270667E-01 -1.8835702288982E-02
     4  3.0000000000000E-02  1.6937085903626E-01 -2.7879131531919E-02
     5  4.0000000000000E-02  2.2558161295899E-01 -3.6479956546544E-02
     6  5.0000000000000E-02  2.8157871686369E-01 -4.4501697414827E-02
     7  6.0000000000000E-02  3.3730554402085E-01 -5.1817121137438E-02
     8  7.0000000000000E-02  3.9270342262527E-01 -5.8310271765073E-02
     9  8.0000000000000E-02  4.4771132250953E-01 -6.3878319270882E-02
    10  9.0000000000000E-02  5.0226559154987E-01 -6.8433197255666E-02
    11  1.0000000000000E-01  5.5629974799981E-01 -7.1903002874451E-02
    12  1.1000000000000E-01  6.0974433410152E-01 -7.4233136087356E-02
    13  1.2000000000000E-01  6.6252683535399E-01 -7.5387159411860E-02
    14  1.3000000000000E-01  7.1457166877546E-01 -7.5347363725078E-02
    15  1.4000000000000E-01  7.6580024240130E-01 -7.4115030265778E-02
    16  1.5000000000000E-01  8.1613108712529E-01 -7.1710383745763E-02
    17  1.6000000000000E-01  8.6548006083825E-01 -6.8172236325757E-02
    18  1.7000000000000E-01  9.1376062366237E-01 -6.3557327066432E-02
    19  1.8000000000000E-01  9.6088418193960E-01 -5.7939366256702E-02
    20  1.9000000000000E-01  1.0067604975252E+00 -5.1407798674168E-02
    21  2.0000000000000E-01  1.0512981578816E+00 -4.4066304274687E-02
    22  2.1000000000000E-01  1.0944051014776E+00 -3.6031058971125E-02
    23  2.2000000000000E-01  1.1359891920901E+00 -2.7428781980274E-02
    24  2.3000000000000E-01  1.1759588347933E+00 -1.8394599633064E-02
    25  2.4000000000000E-01  1.2142236257174E+00 -9.0697585027205E-03
    26  2.5000000000000E-01  1.2506950270734E+00  4.0077683716223E-04
    27  2.6000000000000E-01  1.2852870584849E+00  9.8708041962316E-03
    28  2.7000000000000E-01  1.3179169953462E+00  1.9195403719336E-02
    29  2.8000000000000E-01  1.3485060647452E+00  2.8233458080547E-02
    30  2.9000000000000E-01  1.3769801294503E+00  3.6850133445606E-02
    31  3.0000000000000E-01  1.4032703505657E+00  4.4919282189642E-02
    32  3.1000000000000E-01  1.4273138197052E+00  5.2325729419135E-02
    33  3.2000000000000E-01  1.4490541519182E+00  5.8967406996365E-02
    34  3.3000000000000E-01  1.4684420311179E+00  6.4757300974916E-02
    35  3.4000000000000E-01  1.4854357003985E+00  6.9625181094856E-02
    36  3.5000000000000E-01  1.5000013903829E+00  7.3519084213315E-02
    37  3.6000000000000E-01  1.5121136795950E+00  7.6406527212730E-02
    38  3.7000000000000E-01  1.5217557817964E+00  7.8275428978086E-02
    39  3.8000000000000E-01  1.5289197562413E+00  7.9134725406691E-02
    40  3.9000000000000E-01  1.5336066378838E+00  7.9014666040431E-02
    41  4.0000000000000E-01  1.5358264856865E+00  7.7966785722852E-02
    42  4.1000000000000E-01  1.5355983483235E+00  7.6063549606999E-02
    43  4.2000000000000E-01  1.5329501477231E+00  7.3397674800429E-02
    44  4.3000000000000E-01  1.5279184820320E+00  7.0081136854658E-02
    45  4.4000000000000E-01  1.5205483506992E+00  6.6243874113542E-02
    46  4.5000000000000E-01  1.5108928054438E+00  6.2032207553287E-02
    47  4.6000000000000E-01  1.4990125318780E+00  5.7606998107102E-02
    48  4.7000000000000E-01  1.4849753674903E+00  5.3141567501468E-02
    49  4.8000000000000E-01  1.4688557625331E+00  4.8819412277717E-02
    50  4.9000000000000E-01  1.4507341910995E+00  4.4831743875080E-02
    51  5.0000000000000E-01  1.4306965202997E+00  4.1374890360762E-02
    52  5.1000000000000E-01  1.4088333459501E+00  3.8647597566673E-02
    53  5.2000000000000E-01  1.3852393035625E+00  3.6848268997468E-02
    54  5.3000000000000E-01  1.3600123636589E+00  3.6172184885134E-02
    55  5.4000000000000E-01  1.3332531205372E+00  3.6808741165899E-02
    56  5.5000000000000E-01  1.3050640835773E+00  3.8938748938365E-02
    57  5.6000000000000E-01  1.2755489799967E+00  4.2731834129928E-02
    58  5.7000000000000E-01  1.2448120776587E+00  4.8343975665074E-02
    59  5.8000000000000E-01  1.2129575360949E+00  5.5915218413043E-02
    60  5.9000000000000E-01  1.1800887933415E+00  6.5567594625721E-02
    61  6.0000000000000E-01  1.1463079955216E+00  7.7403284496938E-02
    62  6.1000000000000E-01  1.1117154753251E+00  9.1503042928288E-02
    63  6.2000000000000E-01  1.0764092846825E+00  1.0792491562765E-01
    64  6.3000000000000E-01  1.0404847859879E+00  1.2670326335531E-01
    65  6.4000000000000E-01  1.0040343052350E+00  1.4784810853308E-01
    66  6.5000000000000E-01  9.6714684938718E-01  1.7134481361590E-01
    67  6.6000000000000E-01  9.2990788924063E-01  1.9715409566395E-01
    68  6.7000000000000E-01  8.9239920796363E-01  2.2521237652476E-01
    69  6.8000000000000E-01  8.5469881442623E-01  2.5543246301261E-01
    70  6.9000000000000E-01  8.1688091939304E-01  2.8770454653670E-01
    71  7.0000000000000E-01  7.7901597164888E-01  3.2189750685262E-01
    72  7.1000000000000E-01  7.4117075018167E-01  3.5786050006893E-01
    73  7.2000000000000E-01  7.0340850767320E-01  3.9542480680044E-01
    74  7.3000000000000E-01  6.6578915975998E-01  4.3440591248777E-01
    75  7.4000000000000E-01  6.2836951383607E-01  4.7460578845821E-01
    76  7.5000000000000E-01  5.9120353058774E-01  5.1581533933921E-01
    77  7.6000000000000E-01  5.5434261098539E-01  5.5781697999813E-01
    78  7.7000000000000E-01  5.1783590111944E-01  6.0038730330922E-01
    79  7.8000000000000E-01  4.8173060705707E-01  6.4329979876824E-01
    80  7.9000000000000E-01  4.4607231182125E-01  6.8632758130950E-01
    81  8.0000000000000E-01  4.1090528665167E-01  7.2924608963790E-01
    82  8.1000000000000E-01  3.7627278889881E-01  7.7183571397218E-01
    83  8.2000000000000E-01  3.4221733922421E-01  8.1388431429642E-01
    84  8.3000000000000E-01  3.0878097122615E-01  8.5518959201710E-01
    85  8.4000000000000E-01  2.7600544717413E-01  8.9556128029544E-01
    86  8.5000000000000E-01  2.4393243420776E-01  9.3482312123402E-01
    87  8.6000000000000E-01  2.1260363612579E-01  9.7281460149784E-01
    88  8.7000000000000E-01  1.8206087674641E-01  1.0093924217921E+00
    89  8.8000000000000E-01  1.5234613174654E-01  1.0444316798433E+00
    90  8.9000000000000E-01  1.2350150687182E-01  1.0778267510711E+00
    91  9.0000000000000E-01  9.5569161433190E-02  1.1094918559287E+00
    92  9.1000000000000E-01  6.8591177055097E-02  1.1393613078526E+00
    93  9.2000000000000E-01  4.2609372697080E-02  1.1673894408259E+00
    94  9.3000000000000E-01  1.7665068017653E-02  1.1935502206392E+00
    95  9.4000000000000E-01 -6.2012018295127E-03  1.2178365489610E+00
    96  9.5000000000000E-01 -2.8950015898963E-02  1.2402592742143E+00
    97  9.6000000000000E-01 -5.0543436668662E-02  1.2608459279346E+00
    98  9.7000000000000E-01 -7.0945412933829E-02  1.2796392096761E+00
    99  9.8000000000000E-01 -9.0122209787854E-02  1.2966952475728E+00
   100  9.9000000000000E-01 -1.0804285844166E-01  1.3120816652825E+00
   101  1.0000000000000E+00 -1.2467961808622E-01  1.3258754891922E+00
   102  1.0100000000000E+00 -1.4000844157862E-01  1.3381609323896E+00
   103  1.0200000000000E+00 -1.5400943643499E-01  1.3490270939612E+00
   104  1.0300000000000E+00 -1.6666731245240E-01  1.3585656136427E+00
   105  1.0400000000000E+00 -1.7797180725771E-01  1.3668683226756E+00
   106  1.0500000000000E+00 -1.8791808119796E-01  1.3740249319238E+00
   107  1.0600000000000E+00 -1.9650707324248E-01  1.3801207978462E+00
   108  1.0700000000000E+00 -2.0374580995958E-01  1.3852348058321E+00
   109  1.0800000000000E+00 -2.0964766015680E-01  1.3894374086736E+00
   110  1.0900000000000E+00 -2.1423252842356E-01  1.3927888556284E+00
   111  1.1000000000000E+00 -2.1752698158661E-01  1.3953376446081E+00
   112  1.1100000000000E+00 -2.1956430296287E-01  1.3971192265985E+00
   113  1.1200000000000E+00 -2.2038447026961E-01  1.3981549874804E+00
   114  1.1300000000000E+00 -2.2003405410542E-01  1.3984515280727E+00
   115  1.1400000000000E+00 -2.1856603504208E-01  1.3980002584853E+00
   116  1.1500000000000E+00 -2.1603953854261E-01  1.3967773178526E+00
   117  1.1600000000000E+00 -2.1251948813822E-01  1.3947438252555E+00
   118  1.1700000000000E+00 -2.0807617852891E-01  1.3918464622463E+00
   119  1.1800000000000E+00 -2.0278477151475E-01  1.3880183818943E+00
   120  1.1900000000000E+00 -1.9672471888481E-01  1.3831804338185E+00
   121  1.2000000000000E+00 -1.8997911758981E-01  1.3772426892589E+00
   122  1.2100000000000E+00 -1.8263400366545E-01  1.3701062450385E+00
   123  1.2200000000000E+00 -1.7477759245963E-01  1.3616652802662E+00
   124  1.2300000000000E+00 -1.6649947371849E-01  1.3518093349701E+00
   125  1.2400000000000E+00 -1.5788977099459E-01  1.3404257755705E+00
   126  1.2500000000000E+00 -1.4903827564607E-01  1.3274024082563E+00
   127  1.2600000000000E+00 -1.4003356637594E-01  1.3126301980176E+00
   128  1.2700000000000E+00 -1.3096212581621E-01  1.2960060483143E+00
   129  1.2800000000000E+00 -1.2190746607580E-01  1.2774355942106E+00
   130  1.2900000000000E+00 -1.1294927543768E-01  1.2568359602993E+00
   131  1.3000000000000E+00 -1.0416259850657E-01  1.2341384339080E+00
   132  1.3100000000000E+00 -9.5617062063794E-02  1.2092910039553E+00
   133  1.3200000000000E+00 -8.7376158682310E-02  1.1822607164145E+00
   134  1.3300000000000E+00 -7.9496599788951E-02  1.1530357986539E+00
   135  1.3400000000000E+00 -7.2027749330574E-02  1.1216275069660E+00
   136  1.3500000000000E+00 -6.5011148510366E-02  1.0880716543566E+00
   137  1.3600000000000E+00 -5.8480141213668E-02  1.0524297791131E+00
   138  1.3700000000000E+00 -5.2459608736503E-02  1.0147899188230E+00
   139  1.3800000000000E+00 -4.6965821275802E-02  9.7526695930864E-01
   140  1.3900000000000E+00 -4.2006412340841E-02  9.3400253336625E-01
   141  1.4000000000000E+00 -3.7580480807430E-02  8.9116445020656E-01
   142  1.4100000000000E+00 -3.3678823767320E-02  8.4694564304954E-01
   143  1.4200000000000E+00 -3.0284301624605E-02  8.0156262941274E-01
   144  1.4300000000000E+00 -2.7372335080705E-02  7.5525348615022E-01
   145  1.4400000000000E+00 -2.4911531721259E-02  7.0827534926288E-01
   146  1.4500000000000E+00 -2.2864437885178E-02  6.6090145684143E-01
   147  1.4600000000000E+00 -2.1188409373599E-02  6.1341776214019E-01
   148  1.4700000000000E+00 -1.9836592321534E-02  5.6611915278642E-01
   149  1.4800000000000E+00 -1.8759003252039E-02  5.1930532130802E-01
   150  1.4900000000000E+00 -1.7903694932710E-02  4.7327634160854E-01
   151  1.5000000000000E+00 -1.7217992176470E-02  4.2832801563543E-01
   152  1.5100000000000E+00 -1.6649779170230E-02  3.8474706426449E-01
   153  1.5200000000000E+00 -1.6148817273616E-02  3.4280624634919E-01
   154  1.5300000000000E+00 -1.5668069520597E-02  3.0275949988198E-01
   155  1.5400000000000E+00 -1.5165005239857E-02  2.6483720941036E-01
   156  1.5500000000000E+00 -1.4602855331244E-02  2.2924171405487E-01
   157  1.5600000000000E+00 -1.3951785748349E-02  1.9614318084342E-01
   158  1.5700000000000E+00 -1.3189953654888E-02  1.6567597853710E-01
   159  1.5800000000000E+00 -1.2304407530297E-02  1.3793569771278E-01
   160  1.5900000000000E+00 -1.1291788149641E-02  1.1297697443283E-01
   161  1.6000000000000E+00 -1.0158795291556E-02  9.0812277305413E-02
   162  1.6100000000000E+00 -8.9223247319478E-03  7.1411866215192E-02
   163  1.6200000000000E+00 -7.6097573560340E-03  5.4704729719771E-02
   164  1.6300000000000E+00 -6.2599774972000E-03  4.0579707040133E-02
   165  1.6400000000000E+00 -4.9175521904344E-03  2.8893910518417E-02
   166  1.6500000000000E+00 -3.6330339900595E-03  1.9478561539019E-02
   167  1.6600000000000E+00 -2.4617341965947E-03  1.2147017600544E-02
   168  1.6700000000000E+00 -1.4608562088092E-03  6.7059012242992E-03
   169  1.6800000000000E+00 -6.8600726477100E-04  2.9691768626406E-03
   170  1.6900000000000E+00 -1.8603788484958E-04  7.7197072839406E-04
   171  1.7000000000000E+00 -3.3166393252264E-06  1.3243804856078E-05
   172  1.7100000000000E+00  1.4384104152719E-06 -5.6882126602562E-06
   173  1.7200000000000E+00 -7.2882984166470E-07  2.9281431552618E-06
   174  1.73  0. -0.
   175  1.74  0.  0.
   176  1.75  0.  0.
   177  1.76  0.  0.
   178  1.77  0.  0.
   179  1.78  0.  0.
   180  1.79  0.  0.
   181  1.80  0.  0.
   182  1.81  0.  0.
   183  1.82  0.  0.
   184  1.83  0.  0.
   185  1.84  0.  0.
   186  1.85  0.  0.
   187  1.86  0.  0.
   188  1.87  0.  0.
   189  1.88  0.  0.
   190  1.89  0.  0.
   191  1.90  0.  0.
   192  1.91  0.  0.
   193  1.92  0.  0.
   194  1.93  0.  0.
   195  1.94  0.  0.
   196  1.95  0.  0.
   197  1.96  0.  0.
   198  1.97  0.  0.
   199  1.98  0.  0.
   200  1.99  0.  0.
   201  2.00  0.  0.
   202  2.01  0.  0.
   203  2.02  0.  0.
   204  2.03  0.  0.
   205  2.04  0.  0.
   206  2.05  0.  0.
   207  2.06  0.  0.
   208  2.07  0.  0.
   209  2.08  0.  0.
   210  2.09  0.  0.
   211  2.10  0.  0.
   212  2.11  0.  0.
   213  2.12  0.  0.
   214  2.13  0.  0.
   215  2.14  0.  0.
   216  2.15  0.  0.
   217  2.16  0.  0.
   218  2.17  0.  0.
   219  2.18  0.  0.
   220  2.19  0.  0.
   221  2.20  0.  0.
   222  2.21  0.  0.
   223  2.22  0.  0.
   224  2.23  0.  0.
   225  2.24  0.  0.
   226  2.25  0.  0.
   227  2.26  0.  0.
   228  2.27  0.  0.
   229  2.28  0.  0.
   230  2.29  0.  0.
   231  2.30  0.  0.
   232  2.31  0.  0.
   233  2.32  0.  0.
   234  2.33  0.  0.
   235  2.34  0.  0.
   236  2.35  0.  0.
   237  2.36  0.  0.
   238  2.37  0.  0.
   239  2.38  0.  0.
   240  2.39  0.  0.
   241  2.40  0.  0.
   242  2.41  0.  0.
   243  2.42  0.  0.
   244  2.43  0.  0.
   245  2.44  0.  0.
   246  2.45  0.  0.
   247  2.46  0.  0.
   248  2.47  0.  0.
   249  2.48  0.  0.
   250  2.49  0.  0.
   251  2.50  0.  0.
   252  2.51  0.  0.
   253  2.52  0.  0.
   254  2.53  0.  0.
   255  2.54  0.  0.
   256  2.55  0.  0.
   257  2.56  0.  0.
   258  2.57  0.  0.
   259  2.58  0.  0.
   260  2.59  0.  0.
   261  2.60  0.  0.
   262  2.61  0.  0.
   263  2.62  0.  0.
   264  2.63  0.  0.
   265  2.64  0.  0.
   266  2.65  0.  0.
   267  2.66  0.  0.
   268  2.67  0.  0.
   269  2.68  0.  0.
   270  2.69  0.  0.
   271  2.70  0.  0.
   272  2.71  0.  0.
   273  2.72  0.  0.
   274  2.73  0.  0.
   275  2.74  0.  0.
   276  2.75  0.  0.
   277  2.76  0.  0.
   278  2.77  0.  0.
   279  2.78  0.  0.
   280  2.79  0.  0.
   281  2.80  0.  0.
   282  2.81  0.  0.
   283  2.82  0.  0.
   284  2.83  0.  0.
   285  2.84  0.  0.
   286  2.85  0.  0.
   287  2.86  0.  0.
   288  2.87  0.  0.
   289  2.88  0.  0.
   290  2.89  0.  0.
   291  2.90  0.  0.
   292  2.91  0.  0.
   293  2.92  0.  0.
   294  2.93  0.  0.
   295  2.94  0.  0.
   296  2.95  0.  0.
   297  2.96  0.  0.
   298  2.97  0.  0.
   299  2.98  0.  0.
   300  2.99  0.  0.
   301  3.00  0.  0.
   302  3.01  0.  0.
   303  3.02  0.  0.
   304  3.03  0.  0.
   305  3.04  0.  0.
   306  3.05  0.  0.
   307  3.06  0.  0.
   308  3.07  0.  0.
   309  3.08  0.  0.
   310  3.09  0.  0.
   311  3.10  0.  0.
   312  3.11  0.  0.
   313  3.12  0.  0.
   314  3.13  0.  0.
   315  3.14  0.  0.
   316  3.15  0.  0.
   317  3.16  0.  0.
   318  3.17  0.  0.
   319  3.18  0.  0.
   320  3.19  0.  0.
   321  3.20  0.  0.
   322  3.21  0.  0.
   323  3.22  0.  0.
   324  3.23  0.  0.
   325  3.24  0.  0.
   326  3.25  0.  0.
   327  3.26  0.  0.
   328  3.27  0.  0.
   329  3.28  0.  0.
   330  3.29  0.  0.
   331  3.30  0.  0.
   332  3.31  0.  0.
   333  3.32  0.  0.
   334  3.33  0.  0.
   335  3.34  0.  0.
   336  3.35  0.  0.
   337  3.36  0.  0.
   338  3.37  0.  0.
   339  3.38  0.  0.
   340  3.39  0.  0.
   341  3.40  0.  0.
   342  3.41  0.  0.
   343  3.42  0.  0.
   344  3.43  0.  0.
   345  3.44  0.  0.
   346  3.45  0.  0.
   347  3.46  0.  0.
   348  3.47  0.  0.
   349  3.48  0.  0.
   350  3.49  0.  0.
   351  3.50  0.  0.
   352  3.51  0.  0.
   353  3.52  0.  0.
   354  3.53  0.  0.
   355  3.54  0.  0.
   356  3.55  0.  0.
   357  3.56  0.  0.
   358  3.57  0.  0.
   359  3.58  0.  0.
   360  3.59  0.  0.
   361  3.60  0.  0.
   362  3.61  0.  0.
   363  3.62  0.  0.
   364  3.63  0.  0.
   365  3.64  0.  0.
   366  3.65  0.  0.
   367  3.66  0.  0.
   368  3.67  0.  0.
   369  3.68  0.  0.
   370  3.69  0.  0.
   371  3.70  0.  0.
   372  3.71  0.  0.
   373  3.72  0.  0.
   374  3.73  0.  0.
   375  3.74  0.  0.
   376  3.75  0.  0.
   377  3.76  0.  0.
   378  3.77  0.  0.
   379  3.78  0.  0.
   380  3.79  0.  0.
   381  3.80  0.  0.
   382  3.81  0.  0.
   383  3.82  0.  0.
   384  3.83  0.  0.
   385  3.84  0.  0.
   386  3.85  0.  0.
   387  3.86  0.  0.
   388  3.87  0.  0.
   389  3.88  0.  0.
   390  3.89  0.  0.
   391  3.90  0.  0.
   392  3.91  0.  0.
   393  3.92  0.  0.
   394  3.93  0.  0.
   395  3.94  0.  0.
   396  3.95  0.  0.
   397  3.96  0.  0.
   398  3.97  0.  0.
   399  3.98  0.  0.
   400  3.99  0.  0.
   401  4.00  0.  0.
   402  4.01  0.  0.
   403  4.02  0.  0.
   404  4.03  0.  0.
   405  4.04  0.  0.
   406  4.05  0.  0.
   407  4.06  0.  0.
   408  4.07  0.  0.
   409  4.08  0.  0.
   410  4.09  0.  0.
   411  4.10  0.  0.
   412  4.11  0.  0.
   413  4.12  0.  0.
   414  4.13  0.  0.
   415  4.14  0.  0.
   416  4.15  0.  0.
   417  4.16  0.  0.
   418  4.17  0.  0.
   419  4.18  0.  0.
   420  4.19  0.  0.
   421  4.20  0.  0.
   422  4.21  0.  0.
   423  4.22  0.  0.
   424  4.23  0.  0.
   425  4.24  0.  0.
   426  4.25  0.  0.
   427  4.26  0.  0.
   428  4.27  0.  0.
   429  4.28  0.  0.
   430  4.29  0.  0.
   431  4.30  0.  0.
   432  4.31  0.  0.
   433  4.32  0.  0.
   434  4.33  0.  0.
   435  4.34  0.  0.
   436  4.35  0.  0.
   437  4.36  0.  0.
   438  4.37  0.  0.
   439  4.38  0.  0.
   440  4.39  0.  0.
   441  4.40  0.  0.
   442  4.41  0.  0.
   443  4.42  0.  0.
   444  4.43  0.  0.
   445  4.44  0.  0.
   446  4.45  0.  0.
   447  4.46  0.  0.
   448  4.47  0.  0.
   449  4.48  0.  0.
   450  4.49  0.  0.
   451  4.50  0.  0.
   452  4.51  0.  0.
   453  4.52  0.  0.
   454  4.53  0.  0.
   455  4.54  0.  0.
   456  4.55  0.  0.
   457  4.56  0.  0.
   458  4.57  0.  0.
   459  4.58  0.  0.
   460  4.59  0.  0.
   461  4.60  0.  0.
   462  4.61  0.  0.
   463  4.62  0.  0.
   464  4.63  0.  0.
   465  4.64  0.  0.
   466  4.65  0.  0.
   467  4.66  0.  0.
   468  4.67  0.  0.
   469  4.68  0.  0.
   470  4.69  0.  0.
   471  4.70  0.  0.
   472  4.71  0.  0.
   473  4.72  0.  0.
   474  4.73  0.  0.
   475  4.74  0.  0.
   476  4.75  0.  0.
   477  4.76  0.  0.
   478  4.77  0.  0.
   479  4.78  0.  0.
   480  4.79  0.  0.
   481  4.80  0.  0.
   482  4.81  0.  0.
   483  4.82  0.  0.
   484  4.83  0.  0.
   485  4.84  0.  0.
   486  4.85  0.  0.
   487  4.86  0.  0.
   488  4.87  0.  0.
   489  4.88  0.  0.
   490  4.89  0.  0.
   491  4.90  0.  0.
   492  4.91  0.  0.
   493  4.92  0.  0.
   494  4.93  0.  0.
   495  4.94  0.  0.
   496  4.95  0.  0.
   497  4.96  0.  0.
   498  4.97  0.  0.
   499  4.98  0.  0.
   500  4.99  0.  0.
   501  5.00  0.  0.
   502  5.01  0.  0.
   503  5.02  0.  0.
   504  5.03  0.  0.
   505  5.04  0.  0.
   506  5.05  0.  0.
   507  5.06  0.  0.
   508  5.07  0.  0.
   509  5.08  0.  0.
   510  5.09  0.  0.
   511  5.10  0.  0.
   512  5.11  0.  0.
   513  5.12  0.  0.
   514  5.13  0.  0.
   515  5.14  0.  0.
   516  5.15  0.  0.
   517  5.16  0.  0.
   518  5.17  0.  0.
   519  5.18  0.  0.
   520  5.19  0.  0.
   521  5.20  0.  0.
   522  5.21  0.  0.
   523  5.22  0.  0.
   524  5.23  0.  0.
   525  5.24  0.  0.
   526  5.25  0.  0.
   527  5.26  0.  0.
   528  5.27  0.  0.
   529  5.28  0.  0.
   530  5.29  0.  0.
   531  5.30  0.  0.
   532  5.31  0.  0.
   533  5.32  0.  0.
   534  5.33  0.  0.
   535  5.34  0.  0.
   536  5.35  0.  0.
   537  5.36  0.  0.
   538  5.37  0.  0.
   539  5.38  0.  0.
   540  5.39  0.  0.
   541  5.40  0.  0.
   542  5.41  0.  0.
   543  5.42  0.  0.
   544  5.43  0.  0.
   545  5.44  0.  0.
   546  5.45  0.  0.
   547  5.46  0.  0.
   548  5.47  0.  0.
   549  5.48  0.  0.
   550  5.49  0.  0.
   551  5.50  0.  0.
   552  5.51  0.  0.
   553  5.52  0.  0.
   554  5.53  0.  0.
   555  5.54  0.  0.
   556  5.55  0.  0.
   557  5.56  0.  0.
   558  5.57  0.  0.
   559  5.58  0.  0.
   560  5.59  0.  0.
   561  5.60  0.  0.
   562  5.61  0.  0.
   563  5.62  0.  0.
   564  5.63  0.  0.
   565  5.64  0.  0.
   566  5.65  0.  0.
   567  5.66  0.  0.
   568  5.67  0.  0.
   569  5.68  0.  0.
   570  5.69  0.  0.
   571  5.70  0.  0.
   572  5.71  0.  0.
   573  5.72  0.  0.
   574  5.73  0.  0.
   575  5.74  0.  0.
   576  5.75  0.  0.
   577  5.76  0.  0.
   578  5.77  0.  0.
   579  5.78  0.  0.
   580  5.79  0.  0.
   581  5.80  0.  0.
   582  5.81  0.  0.
   583  5.82  0.  0.
   584  5.83  0.  0.
   585  5.84  0.  0.
   586  5.85  0.  0.
   587  5.86  0.  0.
   588  5.87  0.  0.
   589  5.88  0.  0.
   590  5.89  0.  0.
   591  5.90  0.  0.
   592  5.91  0.  0.
   593  5.92  0.  0.
   594  5.93  0.  0.
   595  5.94  0.  0.
   596  5.95  0.  0.
   597  5.96  0.  0.
   598  5.97  0.  0.
   599  5.98  0.  0.
   600  5.99  0.  0.
   1                         2.5167094271346E+00 -4.0210580748707E-01
     1  0.0000000000000E+00  1.0783320902874E-08  8.0755296560063E-09
     2  1.0000000000000E-02  1.5932777881055E-03 -1.2863621060299E-05
     3  2.0000000000000E-02  6.3575997074393E-03 -5.7950442438488E-05
     4  3.0000000000000E-02  1.4246727353347E-02 -1.5454836221974E-04
     5  4.0000000000000E-02  2.5184576651640E-02 -3.3414221457204E-04
     6  5.0000000000000E-02  3.9066665149007E-02 -6.3943840121904E-04
     7  6.0000000000000E-02  5.5762093509321E-02 -1.1230332181427E-03
     8  7.0000000000000E-02  7.5116017683413E-02 -1.8457577767959E-03
     9  8.0000000000000E-02  9.6952557436571E-02 -2.8747404946333E-03
    10  9.0000000000000E-02  1.2107807732584E-01 -4.2812352538413E-03
    11  1.0000000000000E-01  1.4728476803057E-01 -6.1382693310093E-03
    12  1.1000000000000E-01  1.7535444933489E-01 -8.5181699438477E-03
    13  1.2000000000000E-01  2.0506251118769E-01 -1.1490031628510E-02
    14  1.3000000000000E-01  2.3618190623357E-01 -1.5117188570939E-02
    15  1.4000000000000E-01  2.6848710608735E-01 -1.9454756417211E-02
    16  1.5000000000000E-01  3.0175793444312E-01 -2.4547306965691E-02
    17  1.6000000000000E-01  3.3578319285384E-01 -3.0426736516096E-02
    18  1.7000000000000E-01  3.7036399963326E-01 -3.7110384570738E-02
    19  1.8000000000000E-01  4.0531676872198E-01 -4.4599454136843E-02
    20  1.9000000000000E-01  4.4047576339021E-01 -5.2877778183718E-02
    21  2.0000000000000E-01  4.7569516914880E-01 -6.1910969011115E-02
    22  2.1000000000000E-01  5.1085064100491E-01 -7.1645978557419E-02
    23  2.2000000000000E-01  5.4584029199790E-01 -8.2011088212895E-02
    24  2.3000000000000E-01  5.8058510252880E-01 -9.2916336716095E-02
    25  2.4000000000000E-01  6.1502874308168E-01 -1.0425438442630E-01
    26  2.5000000000000E-01  6.4913681624152E-01 -1.1590180191523E-01
    27  2.6000000000000E-01  6.8289553715028E-01 -1.2772076064404E-01
    28  2.7000000000000E-01  7.1630988442027E-01 -1.3956109372173E-01
    29  2.8000000000000E-01  7.4940126575680E-01 -1.5126268560616E-01
    30  2.9000000000000E-01  7.8220475385963E-01 -1.6265814132320E-01
    31  3.0000000000000E-01  8.1476595832033E-01 -1.7357567854221E-01
    32  3.1000000000000E-01  8.4713760798252E-01 -1.8384217983118E-01
    33  3.2000000000000E-01  8.7937592538235E-01 -1.9328633777424E-01
    34  3.3000000000000E-01  9.1153688027175E-01 -2.0174182248673E-01
    35  3.4000000000000E-01  9.4367241271605E-01 -2.0905039949839E-01
    36  3.5000000000000E-01  9.7582671776264E-01 -2.1506492604547E-01
    37  3.6000000000000E-01  1.0080326831491E+00 -2.1965215553667E-01
    38  3.7000000000000E-01  1.0403085689568E+00 -2.2269528331520E-01
    39  3.8000000000000E-01  1.0726550135551E+00 -2.2409617177511E-01
    40  3.9000000000000E-01  1.1050524437145E+00 -2.2377719931098E-01
    41  4.0000000000000E-01  1.1374589585050E+00 -2.2168268536215E-01
    42  4.1000000000000E-01  1.1698087467218E+00 -2.1777985279581E-01
    43  4.2000000000000E-01  1.2020110862794E+00 -2.1205929887287E-01
    44  4.3000000000000E-01  1.2339499615291E+00 -2.0453495684484E-01
    45  4.4000000000000E-01  1.2654843210408E+00 -1.9524354160714E-01
    46  4.5000000000000E-01  1.2964489843347E+00 -1.8424348453747E-01
    47  4.6000000000000E-01  1.3266561916409E+00 -1.7161337442011E-01
    48  4.7000000000000E-01  1.3558977763263E+00 -1.5744993293466E-01
    49  4.8000000000000E-01  1.3839479254598E+00 -1.4186556431157E-01
    50  4.9000000000000E-01  1.4105664804036E+00 -1.2498552916967E-01
    51  5.0000000000000E-01  1.4355027166125E+00 -1.0694480201233E-01
    52  5.1000000000000E-01  1.4584995302894E+00 -8.7884680142947E-02
    53  5.2000000000000E-01  1.4792979494254E+00 -6.7949218665518E-02
    54  5.3000000000000E-01  1.4976418782989E+00 -4.7281571587310E-02
    55  5.4000000000000E-01  1.5132829779017E+00 -2.6020322695799E-02
    56  5.5000000000000E-01  1.5259855801756E+00 -4.2958917326460E-03
    57  5.6000000000000E-01  1.5355315314896E+00  1.7772898636181E-02
    58  5.7000000000000E-01  1.5417248605486E+00  4.0082011482460E-02
    59  5.8000000000000E-01  1.5443961679238E+00  6.2545060159219E-02
    60  5.9000000000000E-01  1.5434066386175E+00  8.5095774636106E-02
    61  6.0000000000000E-01  1.5386515854486E+00  1.0769000294573E-01
    62  6.1000000000000E-01  1.5300634394724E+00  1.3030719008356E-01
    63  6.2000000000000E-01  1.5176141139511E+00  1.5295128717229E-01
    64  6.3000000000000E-01  1.5013166803946E+00  1.7565105541240E-01
    65  6.4000000000000E-01  1.4812263086397E+00  1.9845974205908E-01
    66  6.5000000000000E-01  1.4574404375793E+00  2.2145411913472E-01
    67  6.6000000000000E-01  1.4300981586758E+00  2.4473288952602E-01
    68  6.7000000000000E-01  1.3993788104948E+00  2.6841447923260E-01
    69  6.8000000000000E-01  1.3654997988351E+00  2.9263424852834E-01
    70  6.9000000000000E-01  1.3287136732616E+00  3.1754116836405E-01
    71  7.0000000000000E-01  1.2893045066433E+00  3.4329402118147E-01
    72  7.1000000000000E-01  1.2475836393049E+00  3.7005719713566E-01
    73  7.2000000000000E-01  1.2038848633058E+00  3.9799616726474E-01
    74  7.3000000000000E-01  1.1585591348593E+00  4.2727272415550E-01
    75  7.4000000000000E-01  1.1119689137160E+00  4.5804008791000E-01
    76  7.5000000000000E-01  1.0644822372229E+00  4.9043798053927E-01
    77  7.6000000000000E-01  1.0164666435225E+00  5.2458777514636E-01
    78  7.7000000000000E-01  9.6828306281141E-01  5.6058782730883E-01
    79  7.8000000000000E-01  9.2027979762297E-01  5.9850909486958E-01
    80  7.9000000000000E-01  8.7278671266345E-01  6.3839114888066E-01
    81  8.0000000000000E-01  8.2610975179934E-01  6.8023867275210E-01
    82  8.1000000000000E-01  7.8052589440556E-01  7.2401853881709E-01
    83  8.2000000000000E-01  7.3627865552331E-01  7.6965754166489E-01
    84  8.3000000000000E-01  6.9357422428400E-01  8.1704085588432E-01
    85  8.4000000000000E-01  6.5257832301687E-01  8.6601127251886E-01
    86  8.5000000000000E-01  6.1341385560303E-01  9.1636925380753E-01
    87  8.6000000000000E-01  5.7615939823854E-01  9.6787382995991E-01
    88  8.7000000000000E-01  5.4084856912864E-01  1.0202443450971E+00
    89  8.8000000000000E-01  5.0747029608750E-01  1.0731630424158E+00
    90  8.9000000000000E-01  4.7596998291865E-01  1.1262784614453E+00
    91  9.0000000000000E-01  4.4625155716927E-01  1.1792096033206E+00
    92  9.1000000000000E-01  4.1818036376435E-01  1.2315508036397E+00
    93  9.2000000000000E-01  3.9158685150914E-01  1.2828772370582E+00
    94  9.3000000000000E-01  3.6627098286696E-01  1.3327509636275E+00
    95  9.4000000000000E-01  3.4200728212548E-01  1.3807274143147E+00
    96  9.5000000000000E-01  3.1855042338238E-01  1.4263622024302E+00
    97  9.6000000000000E-01  2.9564124800866E-01  1.4692181390845E+00
    98  9.7000000000000E-01  2.7301309163918E-01  1.5088723244966E+00
    99  9.8000000000000E-01  2.5039829351303E-01  1.5449231831474E+00
   100  9.9000000000000E-01  2.2753475630654E-01  1.5769973095268E+00
   101  1.0000000000000E+00  2.0417242258525E-01  1.6047559926136E+00
   102  1.0100000000000E+00  1.8007953470575E-01  1.6279012912695E+00
   103  1.0200000000000E+00  1.5504854843527E-01  1.6461815393687E+00
   104  1.0300000000000E+00  1.2890157666858E-01  1.6593961686212E+00
   105  1.0400000000000E+00  1.0149524829721E-01  1.6673997485239E+00
   106  1.0500000000000E+00  7.2724878384837E-02  1.6701051565049E+00
   107  1.0600000000000E+00  4.2527859076711E-02  1.6674858068243E+00
   108  1.0700000000000E+00  1.0886195893422E-02  1.6595768839075E+00
   109  1.0800000000000E+00 -2.2171869069035E-02  1.6464755441842E+00
   110  1.0900000000000E+00 -5.6571187388155E-02  1.6283400697702E+00
   111  1.1000000000000E+00 -9.2190009228548E-02  1.6053879772195E+00
   112  1.1100000000000E+00 -1.2886126454830E-01  1.5778931045016E+00
   113  1.1200000000000E+00 -1.6637480238851E-01  1.5461817191474E+00
   114  1.1300000000000E+00 -2.0448055054540E-01  1.5106277095427E+00
   115  1.1400000000000E+00 -2.4289253901414E-01  1.4716469394327E+00
   116  1.1500000000000E+00 -2.8129371279828E-01  1.4296908623051E+00
   117  1.1600000000000E+00 -3.1934144323894E-01  1.3852395072315E+00
   118  1.1700000000000E+00 -3.5667363240510E-01  1.3387939605374E+00
   119  1.1800000000000E+00 -3.9291529247114E-01  1.2908684781784E+00
   120  1.1900000000000E+00 -4.2768547180806E-01  1.2419823715864E+00