Rb    ONCVPSP-4.0.1  r_core=   1.70061   1.75224   1.90531
     37.0000      9.0000      250925    zatom,zion,pspd
     8   -1012   2     4   600     0    pspcod,pspxc,lmax,lloc,mmax,r2well
  5.99000000  7.00000000  0.00000000    rchrg fchrg qchrg
     2     2     2     0    nproj
     3     1           extension_switch
     4     4     0    nprojso
   0                         8.0915245354504E+00 -4.6137923500472E-01
     1  0.0000000000000E+00  5.5456722547476E-10  2.3275107952081E-09
     2  1.0000000000000E-02  5.6507430132413E-02 -9.5118808185864E-03
     3  2.0000000000000E-02  1.1296266209237E-01 -1.8872648631465E-02
     4  3.0000000000000E-02  1.6931305157416E-01 -2.7933605653917E-02
     5  4.0000000000000E-02  2.2550507113000E-01 -3.6550845775285E-02
     6  5.0000000000000E-02  2.8148389126553E-01 -4.4587554081190E-02
     7  6.0000000000000E-02  3.3719298833405E-01 -5.1916192482580E-02
     8  7.0000000000000E-02  3.9257378749960E-01 -5.8420536267109E-02
     9  8.0000000000000E-02  4.4756534848479E-01 -6.3997528715790E-02
    10  9.0000000000000E-02  5.0210410114248E-01 -6.8558923769311E-02
    11  1.0000000000000E-01  5.5612363710126E-01 -7.2032690039604E-02
    12  1.1000000000000E-01  6.0955456284660E-01 -7.4364153192820E-02
    13  1.2000000000000E-01  6.6232441862525E-01 -7.5516857821248E-02
    14  1.3000000000000E-01  7.1435766651522E-01 -7.5473134311966E-02
    15  1.4000000000000E-01  7.6557574990442E-01 -7.4234360840308E-02
    16  1.5000000000000E-01  8.1589722548341E-01 -7.1820915395919E-02
    17  1.6000000000000E-01  8.6523796770102E-01 -6.8271817614169E-02
    18  1.7000000000000E-01  9.1351144447201E-01 -6.3644065060822E-02
    19  1.8000000000000E-01  9.6062906178286E-01 -5.8011673427909E-02
    20  1.9000000000000E-01  1.0065005737318E+00 -5.1464434769078E-02
    21  2.0000000000000E-01  1.0510345534800E+00 -4.4106412361336E-02
    22  2.1000000000000E-01  1.0941389195995E+00 -3.6054194957540E-02
    23  2.2000000000000E-01  1.1357215113919E+00 -2.7434937025925E-02
    24  2.3000000000000E-01  1.1756907059402E+00 -1.8384214999441E-02
    25  2.4000000000000E-01  1.2139560689519E+00 -9.0437325255952E-03
    26  2.5000000000000E-01  1.2504290308634E+00  4.4108982940662E-04
    27  2.6000000000000E-01  1.2850235792238E+00  9.9236030492520E-03
    28  2.7000000000000E-01  1.3176569580524E+00  1.9258457589553E-02
    29  2.8000000000000E-01  1.3482503646857E+00  2.8304131284500E-02
    30  2.9000000000000E-01  1.3767296345925E+00  3.6925417625516E-02
    31  3.0000000000000E-01  1.4030259047406E+00  4.4995835267831E-02
    32  3.1000000000000E-01  1.4270762463512E+00  5.2399920692574E-02
    33  3.2000000000000E-01  1.4488242582589E+00  5.9035367612820E-02
    34  3.3000000000000E-01  1.4682206126168E+00  6.4814978936725E-02
    35  3.4000000000000E-01  1.4852235453285E+00  6.9668399856049E-02
    36  3.5000000000000E-01  1.4997992843421E+00  7.3543603872986E-02
    37  3.6000000000000E-01  1.5119224098031E+00  7.6408107262328E-02
    38  3.7000000000000E-01  1.5215761410078E+00  7.8249891534706E-02
    39  3.8000000000000E-01  1.5287525461210E+00  7.9078017857583E-02
    40  3.9000000000000E-01  1.5334526717011E+00  7.8922922036873E-02
    41  4.0000000000000E-01  1.5356865901970E+00  7.7836383493580E-02
    42  4.1000000000000E-01  1.5354733647292E+00  7.5891166611950E-02
    43  4.2000000000000E-01  1.5328409316172E+00  7.3180337813404E-02
    44  4.3000000000000E-01  1.5278259022617E+00  6.9816266648251E-02
    45  4.4000000000000E-01  1.5204732871008E+00  6.5929324018222E-02
    46  4.5000000000000E-01  1.5108361454332E+00  6.1666295274571E-02
    47  4.6000000000000E-01  1.4989751659052E+00  5.7188530307037E-02
    48  4.7000000000000E-01  1.4849581833932E+00  5.2669856781595E-02
    49  4.8000000000000E-01  1.4688596388541E+00  4.8294286337356E-02
    50  4.9000000000000E-01  1.4507599894526E+00  4.4253546759024E-02
    51  5.0000000000000E-01  1.4307450769026E+00  4.0744475851551E-02
    52  5.1000000000000E-01  1.4089054624559E+00  3.7966314915680E-02
    53  5.2000000000000E-01  1.3853357373484E+00  3.6117941323962E-02
    54  5.3000000000000E-01  1.3601338177442E+00  3.5395080700468E-02
    55  5.4000000000000E-01  1.3334002333193E+00  3.5987539598692E-02
    56  5.5000000000000E-01  1.3052374185818E+00  3.8076499344042E-02
    57  5.6000000000000E-01  1.2757490158479E+00  4.1831910862071E-02
    58  5.7000000000000E-01  1.2450391984760E+00  4.7410028865187E-02
    59  5.8000000000000E-01  1.2132120225199E+00  5.4951121737925E-02
    60  5.9000000000000E-01  1.1803708143957E+00  6.4577390876993E-02
    61  6.0000000000000E-01  1.1466176014814E+00  7.6391130144117E-02
    62  6.1000000000000E-01  1.1120525917901E+00  9.0473152524915E-02
    63  6.2000000000000E-01  1.0767737079920E+00  1.0688150710978E-01
    64  6.3000000000000E-01  1.0408761801206E+00  1.2565050518231E-01
    65  6.4000000000000E-01  1.0044522003008E+00  1.4679006958419E-01
    66  6.5000000000000E-01  9.6759064179397E-01  1.7028541669203E-01
    67  6.6000000000000E-01  9.3037684358813E-01  1.9609707536532E-01
    68  6.7000000000000E-01  8.9289246068545E-01  2.2416124218130E-01
    69  6.8000000000000E-01  8.5521537916907E-01  2.5439046723902E-01
    70  6.9000000000000E-01  8.1741969408932E-01  2.8667465986830E-01
    71  7.0000000000000E-01  7.7957574720643E-01  3.2088239879479E-01
    72  7.1000000000000E-01  7.4175022068265E-01  3.5686252676420E-01
    73  7.2000000000000E-01  7.0400628194449E-01  3.9444600538543E-01
    74  7.3000000000000E-01  6.6640377414931E-01  4.3344800207975E-01
    75  7.4000000000000E-01  6.2899944600305E-01  4.7367017758116E-01
    76  7.5000000000000E-01  5.9184721409692E-01  5.1490313947333E-01
    77  7.6000000000000E-01  5.5499845047070E-01  5.5692902481853E-01
    78  7.7000000000000E-01  5.1850228777497E-01  5.9952417306953E-01
    79  7.8000000000000E-01  4.8240593419980E-01  6.4246184918737E-01
    80  7.9000000000000E-01  4.4675499026663E-01  6.8551497623451E-01
    81  8.0000000000000E-01  4.1159375964287E-01  7.2845883668573E-01
    82  8.1000000000000E-01  3.7696554633579E-01  7.7107370229887E-01
    83  8.2000000000000E-01  3.4291293094829E-01  8.1314735360540E-01
    84  8.3000000000000E-01  3.0947801913110E-01  8.5447745189867E-01
    85  8.4000000000000E-01  2.7670265593357E-01  8.9487372898817E-01
    86  8.5000000000000E-01  2.4462860043263E-01  9.3415996291553E-01
    87  8.6000000000000E-01  2.1329765579303E-01  9.7217571124676E-01
    88  8.7000000000000E-01  1.8275175077049E-01  1.0087777774143E+00
    89  8.8000000000000E-01  1.5303296959957E-01  1.0438413898225E+00
    90  8.9000000000000E-01  1.2418352819331E-01  1.0772610779861E+00
    91  9.0000000000000E-01  9.6245695608149E-02  1.1089512347743E+00
    92  9.1000000000000E-01  6.9261660777279E-02  1.1388463588067E+00
    93  9.2000000000000E-01  4.3273345572261E-02  1.1669009761208E+00
    94  9.3000000000000E-01  1.8322166299651E-02  1.1930892453169E+00
    95  9.4000000000000E-01 -5.5512532412320E-03  1.2174042554190E+00
    96  9.5000000000000E-01 -2.8307413037074E-02  1.2398570305757E+00
    97  9.6000000000000E-01 -4.9908307456774E-02  1.2604752604059E+00
    98  9.7000000000000E-01 -7.0317829303868E-02  1.2793017791803E+00
    99  9.8000000000000E-01 -8.9502200709695E-02  1.2963928210648E+00
   100  9.9000000000000E-01 -1.0743042359898E-01  1.3118160822681E+00
   101  1.0000000000000E+00 -1.2407474191821E-01  1.3256486240724E+00
   102  1.0100000000000E+00 -1.3941110739753E-01  1.3379746533435E+00
   103  1.0200000000000E+00 -1.5341964032574E-01  1.3488832191602E+00
   104  1.0300000000000E+00 -1.6608507666222E-01  1.3584658656481E+00
   105  1.0400000000000E+00 -1.7739719279104E-01  1.3668142819222E+00
   106  1.0500000000000E+00 -1.8735119934477E-01  1.3740179902181E+00
   107  1.0600000000000E+00 -1.9594809578642E-01  1.3801621128239E+00
   108  1.0700000000000E+00 -2.0319497783574E-01  1.3853252573108E+00
   109  1.0800000000000E+00 -2.0910529035669E-01  1.3895775578166E+00
   110  1.0900000000000E+00 -2.1369901897735E-01  1.3929789077928E+00
   111  1.1000000000000E+00 -2.1700281448822E-01  1.3955774166964E+00
   112  1.1100000000000E+00 -2.1905004494228E-01  1.3974081196583E+00
   113  1.1200000000000E+00 -2.1988077135777E-01  1.3984919652139E+00
   114  1.1300000000000E+00 -2.1954164397984E-01  1.3988351018164E+00
   115  1.1400000000000E+00 -2.1808571718386E-01  1.3984284791129E+00
   116  1.1500000000000E+00 -2.1557218227920E-01  1.3972477749368E+00
   117  1.1600000000000E+00 -2.1206601868826E-01  1.3952536536982E+00
   118  1.1700000000000E+00 -2.0763756520552E-01  1.3923923564599E+00
   119  1.1800000000000E+00 -2.0236201428225E-01  1.3885966174853E+00
   120  1.1900000000000E+00 -1.9631883349757E-01  1.3837868965943E+00
   121  1.2000000000000E+00 -1.8959111957353E-01  1.3778729112507E+00
   122  1.2100000000000E+00 -1.8226489142655E-01  1.3707554471103E+00
   123  1.2200000000000E+00 -1.7442832983001E-01  1.3623284207633E+00
   124  1.2300000000000E+00 -1.6617097225816E-01  1.3524811637529E+00
   125  1.2400000000000E+00 -1.5758287238436E-01  1.3411008926830E+00
   126  1.2500000000000E+00 -1.4875373450621E-01  1.3280753263922E+00
   127  1.2600000000000E+00 -1.3977203384378E-01  1.3132954078768E+00
   128  1.2700000000000E+00 -1.3072413420714E-01  1.2966580858851E+00
   129  1.2800000000000E+00 -1.2169341493660E-01  1.2780691089701E+00
   130  1.2900000000000E+00 -1.1275941928078E-01  1.2574457832989E+00
   131  1.3000000000000E+00 -1.0399703648687E-01  1.2347196447011E+00
   132  1.3100000000000E+00 -9.5475729828488E-02  1.2098389953289E+00
   133  1.3200000000000E+00 -8.7258822587656E-02  1.1827712559089E+00
   134  1.3300000000000E+00 -7.9402853638060E-02  1.1535050858888E+00
   135  1.3400000000000E+00 -7.1957013742740E-02  1.1220522258445E+00
   136  1.3500000000000E+00 -6.4962672986621E-02  1.0884490192804E+00
   137  1.3600000000000E+00 -5.8453008915701E-02  1.0527575744179E+00
   138  1.3700000000000E+00 -5.2452743947639E-02  1.0150665307311E+00
   139  1.3800000000000E+00 -4.6977999464405E-02  9.7549139978835E-01
   140  1.3900000000000E+00 -4.2036272699106E-02  9.3417445539506E-01
   141  1.4000000000000E+00 -3.7626541092729E-02  8.9128415404165E-01
   142  1.4100000000000E+00 -3.3739497230434E-02  8.4701407322489E-01
   143  1.4200000000000E+00 -3.0357915769417E-02  8.0158136230002E-01
   144  1.4300000000000E+00 -2.7457151964526E-02  7.5522470804017E-01
   145  1.4400000000000E+00 -2.5005769474356E-02  7.0820182504474E-01
   146  1.4500000000000E+00 -2.2966293102905E-02  6.6078648947815E-01
   147  1.4600000000000E+00 -2.1296080015346E-02  6.1326514325655E-01
   148  1.4700000000000E+00 -1.9948300737715E-02  5.6593310480534E-01
   149  1.4800000000000E+00 -1.8873018954274E-02  5.1909043168550E-01
   150  1.4900000000000E+00 -1.8018356722775E-02  4.7303748983238E-01
   151  1.5000000000000E+00 -1.7331729257264E-02  4.2807029376458E-01
   152  1.5100000000000E+00 -1.6761130876214E-02  3.8447569189787E-01
   153  1.5200000000000E+00 -1.6256451079306E-02  3.4252648102371E-01
   154  1.5300000000000E+00 -1.5770797013132E-02  3.0247654401254E-01
   155  1.5400000000000E+00 -1.5261795775101E-02  2.6455611500015E-01
   156  1.5500000000000E+00 -1.4692847131899E-02  2.2896728652487E-01
   157  1.5600000000000E+00 -1.4034294246481E-02  1.9587988345787E-01
   158  1.5700000000000E+00 -1.3264476929394E-02  1.6542783903933E-01
   159  1.5800000000000E+00 -1.2370628741515E-02  1.3770621893622E-01
   160  1.5900000000000E+00 -1.1349574928456E-02  1.1276905081828E-01
   161  1.6000000000000E+00 -1.0208196087288E-02  9.0628119442920E-02
   162  1.6100000000000E+00 -8.9635622252980E-03  7.1252935713334E-02
   163  1.6200000000000E+00 -7.6432186196607E-03  5.4571687057676E-02
   164  1.6300000000000E+00 -6.2862005952907E-03  4.0472373327848E-02
   165  1.6400000000000E+00 -4.9372142191286E-03  2.8811248777606E-02
   166  1.6500000000000E+00 -3.6469346950331E-03  1.9418683187899E-02
   167  1.6600000000000E+00 -2.4707770263672E-03  1.2107215030971E-02
   168  1.6700000000000E+00 -1.4660281032787E-03  6.6827102997070E-03
   169  1.6800000000000E+00 -6.8835768483285E-04  2.9584733427872E-03
   170  1.6900000000000E+00 -1.8665489405927E-04  7.6911822454612E-04
   171  1.7000000000000E+00 -3.3209270345693E-06  1.3203618936099E-05
   172  1.7100000000000E+00  1.4434968297681E-06 -5.6658915176667E-06
   173  1.7200000000000E+00 -7.3139405958277E-07  2.9168020891850E-06
   174  1.73  0.  0.
   175  1.74  0.  0.
   176  1.75  0.  0.
   177  1.76  0.  0.
   178  1.77  0.  0.
   179  1.78  0.  0.
   180  1.79  0.  0.
   181  1.80  0.  0.
   182  1.81  0.  0.
   183  1.82  0.  0.
   184  1.83  0.  0.
   185  1.84  0.  0.
   186  1.85  0.  0.
   187  1.86  0.  0.
   188  1.87  0.  0.
   189  1.88  0.  0.
   190  1.89  0.  0.
   191  1.90  0.  0.
   192  1.91  0.  0.
   193  1.92  0.  0.
   194  1.93  0.  0.
   195  1.94  0.  0.
   196  1.95  0.  0.
   197  1.96  0.  0.
   198  1.97  0.  0.
   199  1.98  0.  0.
   200  1.99  0.  0.
   201  2.00  0.  0.
   202  2.01  0.  0.
   203  2.02  0.  0.
   204  2.03  0.  0.
   205  2.04  0.  0.
   206  2.05  0.  0.
   207  2.06  0.  0.
   208  2.07  0.  0.
   209  2.08  0.  0.
   210  2.09  0.  0.
   211  2.10  0.  0.
   212  2.11  0.  0.
   213  2.12  0.  0.
   214  2.13  0.  0.
   215  2.14  0.  0.
   216  2.15  0.  0.
   217  2.16  0.  0.
   218  2.17  0.  0.
   219  2.18  0.  0.
   220  2.19  0.  0.
   221  2.20  0.  0.
   222  2.21  0.  0.
   223  2.22  0.  0.
   224  2.23  0.  0.
   225  2.24  0.  0.
   226  2.25  0.  0.
   227  2.26  0.  0.
   228  2.27  0.  0.
   229  2.28  0.  0.
   230  2.29  0.  0.
   231  2.30  0.  0.
   232  2.31  0.  0.
   233  2.32  0.  0.
   234  2.33  0.  0.
   235  2.34  0.  0.
   236  2.35  0.  0.
   237  2.36  0.  0.
   238  2.37  0.  0.
   239  2.38  0.  0.
   240  2.39  0.  0.
   241  2.40  0.  0.
   242  2.41  0.  0.
   243  2.42  0.  0.
   244  2.43  0.  0.
   245  2.44  0.  0.
   246  2.45  0.  0.
   247  2.46  0.  0.
   248  2.47  0.  0.
   249  2.48  0.  0.
   250  2.49  0.  0.
   251  2.50  0.  0.
   252  2.51  0.  0.
   253  2.52  0.  0.
   254  2.53  0.  0.
   255  2.54  0.  0.
   256  2.55  0.  0.
   257  2.56  0.  0.
   258  2.57  0.  0.
   259  2.58  0.  0.
   260  2.59  0.  0.
   261  2.60  0.  0.
   262  2.61  0.  0.
   263  2.62  0.  0.
   264  2.63  0.  0.
   265  2.64  0.  0.
   266  2.65  0.  0.
   267  2.66  0.  0.
   268  2.67  0.  0.
   269  2.68  0.  0.
   270  2.69  0.  0.
   271  2.70  0.  0.
   272  2.71  0.  0.
   273  2.72  0.  0.
   274  2.73  0.  0.
   275  2.74  0.  0.
   276  2.75  0.  0.
   277  2.76  0.  0.
   278  2.77  0.  0.
   279  2.78  0.  0.
   280  2.79  0.  0.
   281  2.80  0.  0.
   282  2.81  0.  0.
   283  2.82  0.  0.
   284  2.83  0.  0.
   285  2.84  0.  0.
   286  2.85  0.  0.
   287  2.86  0.  0.
   288  2.87  0.  0.
   289  2.88  0.  0.
   290  2.89  0.  0.
   291  2.90  0.  0.
   292  2.91  0.  0.
   293  2.92  0.  0.
   294  2.93  0.  0.
   295  2.94  0.  0.
   296  2.95  0.  0.
   297  2.96  0.  0.
   298  2.97  0.  0.
   299  2.98  0.  0.
   300  2.99  0.  0.
   301  3.00  0.  0.
   302  3.01  0.  0.
   303  3.02  0.  0.
   304  3.03  0.  0.
   305  3.04  0.  0.
   306  3.05  0.  0.
   307  3.06  0.  0.
   308  3.07  0.  0.
   309  3.08  0.  0.
   310  3.09  0.  0.
   311  3.10  0.  0.
   312  3.11  0.  0.
   313  3.12  0.  0.
   314  3.13  0.  0.
   315  3.14  0.  0.
   316  3.15  0.  0.
   317  3.16  0.  0.
   318  3.17  0.  0.
   319  3.18  0.  0.
   320  3.19  0.  0.
   321  3.20  0.  0.
   322  3.21  0.  0.
   323  3.22  0.  0.
   324  3.23  0.  0.
   325  3.24  0.  0.
   326  3.25  0.  0.
   327  3.26  0.  0.
   328  3.27  0.  0.
   329  3.28  0.  0.
   330  3.29  0.  0.
   331  3.30  0.  0.
   332  3.31  0.  0.
   333  3.32  0.  0.
   334  3.33  0.  0.
   335  3.34  0.  0.
   336  3.35  0.  0.
   337  3.36  0.  0.
   338  3.37  0.  0.
   339  3.38  0.  0.
   340  3.39  0.  0.
   341  3.40  0.  0.
   342  3.41  0.  0.
   343  3.42  0.  0.
   344  3.43  0.  0.
   345  3.44  0.  0.
   346  3.45  0.  0.
   347  3.46  0.  0.
   348  3.47  0.  0.
   349  3.48  0.  0.
   350  3.49  0.  0.
   351  3.50  0.  0.
   352  3.51  0.  0.
   353  3.52  0.  0.
   354  3.53  0.  0.
   355  3.54  0.  0.
   356  3.55  0.  0.
   357  3.56  0.  0.
   358  3.57  0.  0.
   359  3.58  0.  0.
   360  3.59  0.  0.
   361  3.60  0.  0.
   362  3.61  0.  0.
   363  3.62  0.  0.
   364  3.63  0.  0.
   365  3.64  0.  0.
   366  3.65  0.  0.
   367  3.66  0.  0.
   368  3.67  0.  0.
   369  3.68  0.  0.
   370  3.69  0.  0.
   371  3.70  0.  0.
   372  3.71  0.  0.
   373  3.72  0.  0.
   374  3.73  0.  0.
   375  3.74  0.  0.
   376  3.75  0.  0.
   377  3.76  0.  0.
   378  3.77  0.  0.
   379  3.78  0.  0.
   380  3.79  0.  0.
   381  3.80  0.  0.
   382  3.81  0.  0.
   383  3.82  0.  0.
   384  3.83  0.  0.
   385  3.84  0.  0.
   386  3.85  0.  0.
   387  3.86  0.  0.
   388  3.87  0.  0.
   389  3.88  0.  0.
   390  3.89  0.  0.
   391  3.90  0.  0.
   392  3.91  0.  0.
   393  3.92  0.  0.
   394  3.93  0.  0.
   395  3.94  0.  0.
   396  3.95  0.  0.
   397  3.96  0.  0.
   398  3.97  0.  0.
   399  3.98  0.  0.
   400  3.99  0.  0.
   401  4.00  0.  0.
   402  4.01  0.  0.
   403  4.02  0.  0.
   404  4.03  0.  0.
   405  4.04  0.  0.
   406  4.05  0.  0.
   407  4.06  0.  0.
   408  4.07  0.  0.
   409  4.08  0.  0.
   410  4.09  0.  0.
   411  4.10  0.  0.
   412  4.11  0.  0.
   413  4.12  0.  0.
   414  4.13  0.  0.
   415  4.14  0.  0.
   416  4.15  0.  0.
   417  4.16  0.  0.
   418  4.17  0.  0.
   419  4.18  0.  0.
   420  4.19  0.  0.
   421  4.20  0.  0.
   422  4.21  0.  0.
   423  4.22  0.  0.
   424  4.23  0.  0.
   425  4.24  0.  0.
   426  4.25  0.  0.
   427  4.26  0.  0.
   428  4.27  0.  0.
   429  4.28  0.  0.
   430  4.29  0.  0.
   431  4.30  0.  0.
   432  4.31  0.  0.
   433  4.32  0.  0.
   434  4.33  0.  0.
   435  4.34  0.  0.
   436  4.35  0.  0.
   437  4.36  0.  0.
   438  4.37  0.  0.
   439  4.38  0.  0.
   440  4.39  0.  0.
   441  4.40  0.  0.
   442  4.41  0.  0.
   443  4.42  0.  0.
   444  4.43  0.  0.
   445  4.44  0.  0.
   446  4.45  0.  0.
   447  4.46  0.  0.
   448  4.47  0.  0.
   449  4.48  0.  0.
   450  4.49  0.  0.
   451  4.50  0.  0.
   452  4.51  0.  0.
   453  4.52  0.  0.
   454  4.53  0.  0.
   455  4.54  0.  0.
   456  4.55  0.  0.
   457  4.56  0.  0.
   458  4.57  0.  0.
   459  4.58  0.  0.
   460  4.59  0.  0.
   461  4.60  0.  0.
   462  4.61  0.  0.
   463  4.62  0.  0.
   464  4.63  0.  0.
   465  4.64  0.  0.
   466  4.65  0.  0.
   467  4.66  0.  0.
   468  4.67  0.  0.
   469  4.68  0.  0.
   470  4.69  0.  0.
   471  4.70  0.  0.
   472  4.71  0.  0.
   473  4.72  0.  0.
   474  4.73  0.  0.
   475  4.74  0.  0.
   476  4.75  0.  0.
   477  4.76  0.  0.
   478  4.77  0.  0.
   479  4.78  0.  0.
   480  4.79  0.  0.
   481  4.80  0.  0.
   482  4.81  0.  0.
   483  4.82  0.  0.
   484  4.83  0.  0.
   485  4.84  0.  0.
   486  4.85  0.  0.
   487  4.86  0.  0.
   488  4.87  0.  0.
   489  4.88  0.  0.
   490  4.89  0.  0.
   491  4.90  0.  0.
   492  4.91  0.  0.
   493  4.92  0.  0.
   494  4.93  0.  0.
   495  4.94  0.  0.
   496  4.95  0.  0.
   497  4.96  0.  0.
   498  4.97  0.  0.
   499  4.98  0.  0.
   500  4.99  0.  0.
   501  5.00  0.  0.
   502  5.01  0.  0.
   503  5.02  0.  0.
   504  5.03  0.  0.
   505  5.04  0.  0.
   506  5.05  0.  0.
   507  5.06  0.  0.
   508  5.07  0.  0.
   509  5.08  0.  0.
   510  5.09  0.  0.
   511  5.10  0.  0.
   512  5.11  0.  0.
   513  5.12  0.  0.
   514  5.13  0.  0.
   515  5.14  0.  0.
   516  5.15  0.  0.
   517  5.16  0.  0.
   518  5.17  0.  0.
   519  5.18  0.  0.
   520  5.19  0.  0.
   521  5.20  0.  0.
   522  5.21  0.  0.
   523  5.22  0.  0.
   524  5.23  0.  0.
   525  5.24  0.  0.
   526  5.25  0.  0.
   527  5.26  0.  0.
   528  5.27  0.  0.
   529  5.28  0.  0.
   530  5.29  0.  0.
   531  5.30  0.  0.
   532  5.31  0.  0.
   533  5.32  0.  0.
   534  5.33  0.  0.
   535  5.34  0.  0.
   536  5.35  0.  0.
   537  5.36  0.  0.
   538  5.37  0.  0.
   539  5.38  0.  0.
   540  5.39  0.  0.
   541  5.40  0.  0.
   542  5.41  0.  0.
   543  5.42  0.  0.
   544  5.43  0.  0.
   545  5.44  0.  0.
   546  5.45  0.  0.
   547  5.46  0.  0.
   548  5.47  0.  0.
   549  5.48  0.  0.
   550  5.49  0.  0.
   551  5.50  0.  0.
   552  5.51  0.  0.
   553  5.52  0.  0.
   554  5.53  0.  0.
   555  5.54  0.  0.
   556  5.55  0.  0.
   557  5.56  0.  0.
   558  5.57  0.  0.
   559  5.58  0.  0.
   560  5.59  0.  0.
   561  5.60  0.  0.
   562  5.61  0.  0.
   563  5.62  0.  0.
   564  5.63  0.  0.
   565  5.64  0.  0.
   566  5.65  0.  0.
   567  5.66  0.  0.
   568  5.67  0.  0.
   569  5.68  0.  0.
   570  5.69  0.  0.
   571  5.70  0.  0.
   572  5.71  0.  0.
   573  5.72  0.  0.
   574  5.73  0.  0.
   575  5.74  0.  0.
   576  5.75  0.  0.
   577  5.76  0.  0.
   578  5.77  0.  0.
   579  5.78  0.  0.
   580  5.79  0.  0.
   581  5.80  0.  0.
   582  5.81  0.  0.
   583  5.82  0.  0.
   584  5.83  0.  0.
   585  5.84  0.  0.
   586  5.85  0.  0.
   587  5.86  0.  0.
   588  5.87  0.  0.
   589  5.88  0.  0.
   590  5.89  0.  0.
   591  5.90  0.  0.
   592  5.91  0.  0.
   593  5.92  0.  0.
   594  5.93  0.  0.
   595  5.94  0.  0.
   596  5.95  0.  0.
   597  5.96  0.  0.
   598  5.97  0.  0.
   599  5.98  0.  0.
   600  5.99  0.  0.
   1                         2.5168030882083E+00 -4.0107938045591E-01
     1  0.0000000000000E+00  1.0778105741238E-08  8.1457787208181E-09
     2  1.0000000000000E-02  1.5928732523534E-03 -1.0035586209184E-05
     3  2.0000000000000E-02  6.3559876776442E-03 -4.6718323760608E-05
     4  3.0000000000000E-02  1.4243123075865E-02 -1.2957430101625E-04
     5  4.0000000000000E-02  2.5178225267225E-02 -2.9047913851441E-04
     6  5.0000000000000E-02  3.9056852723770E-02 -5.7267347161213E-04
     7  6.0000000000000E-02  5.5748157165651E-02 -1.0294187599563E-03
     8  7.0000000000000E-02  7.5097354611256E-02 -1.7223266064894E-03
     9  8.0000000000000E-02  9.6928632592339E-02 -2.7194029144741E-03
    10  9.0000000000000E-02  1.2104842965792E-01 -4.0928553970303E-03
    11  1.0000000000000E-01  1.4724901510593E-01 -5.9167190110597E-03
    12  1.1000000000000E-01  1.7531229027988E-01 -8.2643586731604E-03
    13  1.2000000000000E-01  2.0501372789713E-01 -1.1205912014053E-02
    14  1.3000000000000E-01  2.3612636284433E-01 -1.4805736857152E-02
    15  1.4000000000000E-01  2.6842474675475E-01 -1.9119928515185E-02
    16  1.5000000000000E-01  3.0168877950044E-01 -2.4193970870620E-02
    17  1.6000000000000E-01  3.3570733347489E-01 -3.0060582559457E-02
    18  1.7000000000000E-01  3.7028159115504E-01 -3.6737815467229E-02
    19  1.8000000000000E-01  4.0522802281825E-01 -4.4227457257308E-02
    20  1.9000000000000E-01  4.4038093931574E-01 -5.2513782903506E-02
    21  2.0000000000000E-01  4.7559456429810E-01 -6.1562692338764E-02
    22  2.1000000000000E-01  5.1074458104761E-01 -7.1321262533305E-02
    23  2.2000000000000E-01  5.4572912086471E-01 -8.1717732774590E-02
    24  2.3000000000000E-01  5.8046917252761E-01 -9.2661931851900E-02
    25  2.4000000000000E-01  6.1490840542201E-01 -1.0404614547732E-01
    26  2.5000000000000E-01  6.4901241223722E-01 -1.1574641183828E-01
    27  2.6000000000000E-01  6.8276739035582E-01 -1.2762422291319E-01
    28  2.7000000000000E-01  7.1617829393446E-01 -1.3952859932783E-01
    29  2.8000000000000E-01  7.4926650090082E-01 -1.5129849731564E-01
    30  2.9000000000000E-01  7.8206705040341E-01 -1.6276549798609E-01
    31  3.0000000000000E-01  8.1462551639411E-01 -1.7375672180220E-01
    32  3.1000000000000E-01  8.4699459176917E-01 -1.8409790509717E-01
    33  3.2000000000000E-01  8.7923046464169E-01 -1.9361657077378E-01
    34  3.3000000000000E-01  9.1138907370190E-01 -2.0214522214848E-01
    35  3.4000000000000E-01  9.4352233310984E-01 -2.0952448731611E-01
    36  3.5000000000000E-01  9.7567441886958E-01 -2.1560614147265E-01
    37  3.6000000000000E-01  1.0078782081082E+00 -2.2025593636267E-01
    38  3.7000000000000E-01  1.0401519601212E+00 -2.2335616939348E-01
    39  3.8000000000000E-01  1.0724963234904E+00 -2.2480792992496E-01
    40  3.9000000000000E-01  1.1048917471152E+00 -2.2453296670920E-01
    41  4.0000000000000E-01  1.1372963647445E+00 -2.2247512829071E-01
    42  4.1000000000000E-01  1.1696444127258E+00 -2.1860133722740E-01
    43  4.2000000000000E-01  1.2018452293948E+00 -2.1290206906691E-01
    44  4.3000000000000E-01  1.2337828720497E+00 -2.0539131789955E-01
    45  4.4000000000000E-01  1.2653163740484E+00 -1.9610604177469E-01
    46  4.5000000000000E-01  1.2962806505184E+00 -1.8510509306315E-01
    47  4.6000000000000E-01  1.3264880467695E+00 -1.7246765071413E-01
    48  4.7000000000000E-01  1.3557305090706E+00 -1.5829118302786E-01
    49  4.8000000000000E-01  1.3837823432874E+00 -1.4268898078030E-01
    50  4.9000000000000E-01  1.4104035133038E+00 -1.2578731103771E-01
    51  5.0000000000000E-01  1.4353434184504E+00 -1.0772225154193E-01
    52  5.1000000000000E-01  1.4583450776343E+00 -8.8636273905277E-02
    53  5.2000000000000E-01  1.4791496377490E+00 -6.8674650823453E-02
    54  5.3000000000000E-01  1.4975011154939E+00 -4.7981767919268E-02
    55  5.4000000000000E-01  1.5131512751280E+00 -2.6697424526113E-02
    56  5.5000000000000E-01  1.5258645400999E+00 -4.9532095979089E-03
    57  5.6000000000000E-01  1.5354228340414E+00  1.7130961077783E-02
    58  5.7000000000000E-01  1.5416302463732E+00  3.9450062115897E-02
    59  5.8000000000000E-01  1.5443174197669E+00  6.1916849808365E-02
    60  5.9000000000000E-01  1.5433455609259E+00  8.4464352717989E-02
    61  6.0000000000000E-01  1.5386099825190E+00  1.0704789432601E-01
    62  6.1000000000000E-01  1.5300430925168E+00  1.2964658954895E-01
    63  6.2000000000000E-01  1.5176167574827E+00  1.5226426747904E-01
    64  6.3000000000000E-01  1.5013439783606E+00  1.7492978449372E-01
    65  6.4000000000000E-01  1.4812798307464E+00  1.9769670468869E-01
    66  6.5000000000000E-01  1.4575216362585E+00  2.2064233815547E-01
    67  6.6000000000000E-01  1.4302083471427E+00  2.4386614166664E-01
    68  6.7000000000000E-01  1.3995191423350E+00  2.6748750055644E-01
    69  6.8000000000000E-01  1.3656712495362E+00  2.9164292468557E-01
    70  6.9000000000000E-01  1.3289170240775E+00  3.1648270505250E-01
    71  7.0000000000000E-01  1.2895403311386E+00  3.4216709055707E-01
    72  7.1000000000000E-01  1.2478522928805E+00  3.6886205634610E-01
    73  7.2000000000000E-01  1.2041864759555E+00  3.9673474580169E-01
    74  7.3000000000000E-01  1.1588936073430E+00  4.2594867732061E-01
    75  7.4000000000000E-01  1.1123359172752E+00  4.5665881435818E-01
    76  7.5000000000000E-01  1.0648812168925E+00  4.8900660258451E-01
    77  7.6000000000000E-01  1.0168968250230E+00  5.2311508127694E-01
    78  7.7000000000000E-01  9.6874346293438E-01  5.5908417714476E-01
    79  7.8000000000000E-01  9.2076923795134E-01  5.9698628758898E-01
    80  7.9000000000000E-01  8.7330383639894E-01  6.3686225692703E-01
    81  8.0000000000000E-01  8.2665304340436E-01  6.7871784339482E-01
    82  8.1000000000000E-01  7.8109370170625E-01  7.2252076685614E-01
    83  8.2000000000000E-01  7.3686921386636E-01  7.6819841723287E-01
    84  8.3000000000000E-01  6.9418568229339E-01  8.1563629188927E-01
    85  8.4000000000000E-01  6.5320876945878E-01  8.6467721677702E-01
    86  8.5000000000000E-01  6.1406134683879E-01  9.1512139132473E-01
    87  8.6000000000000E-01  5.7682198572751E-01  9.6672728112345E-01
    88  8.7000000000000E-01  5.4152432643579E-01  1.0192133657296E+00
    89  8.8000000000000E-01  5.0815734485428E-01  1.0722607317130E+00
    90  8.9000000000000E-01  4.7666651727112E-01  1.1255164837685E+00
    91  9.0000000000000E-01  4.4695586606368E-01  1.1785979296400E+00
    92  9.1000000000000E-01  4.1889085080758E-01  1.2310974781305E+00
    93  9.2000000000000E-01  3.9230205183819E-01  1.2825881739415E+00
    94  9.3000000000000E-01  3.6698957672877E-01  1.3326297788290E+00
    95  9.4000000000000E-01  3.4272810486259E-01  1.3807752958950E+00
    96  9.5000000000000E-01  3.1927247160194E-01  1.4265778230350E+00
    97  9.6000000000000E-01  2.9636368178990E-01  1.4695976128821E+00
    98  9.7000000000000E-01  2.7373523271600E-01  1.5094092102297E+00
    99  9.8000000000000E-01  2.5111961945262E-01  1.5456085340429E+00
   100  9.9000000000000E-01  2.2825489078996E-01  1.5778197698989E+00
   101  1.0000000000000E+00  2.0489112198019E-01  1.6057019400805E+00
   102  1.0100000000000E+00  1.8079667120306E-01  1.6289550225978E+00
   103  1.0200000000000E+00  1.5576409009811E-01  1.6473254970857E+00
   104  1.0300000000000E+00  1.2961556481414E-01  1.6606112047082E+00
   105  1.0400000000000E+00  1.0220777269457E-01  1.6686654207403E+00
   106  1.0500000000000E+00  7.3436050807004E-02  1.6714000522108E+00
   107  1.0600000000000E+00  4.3237785789348E-02  1.6687878885836E+00
   108  1.0700000000000E+00  1.1594949695606E-02  1.6608638506735E+00
   109  1.0800000000000E+00 -2.1464276615711E-02  1.6477252015090E+00
   110  1.0900000000000E+00 -5.5864832897942E-02  1.6295307022455E+00
   111  1.1000000000000E+00 -9.1485082958142E-02  1.6064987162520E+00
   112  1.1100000000000E+00 -1.2815809377101E-01  1.5789042845617E+00
   113  1.1200000000000E+00 -1.6567387208675E-01  1.5470752157945E+00
   114  1.1300000000000E+00 -2.0378252087640E-01  1.5113872528335E+00
   115  1.1400000000000E+00 -2.4219825905998E-01  1.4722583967452E+00
   116  1.1500000000000E+00 -2.8060423017860E-01  1.4301424851604E+00
   117  1.1600000000000E+00 -3.1865800924156E-01  1.3855221373513E+00
   118  1.1700000000000E+00 -3.5599770237554E-01  1.3389011911306E+00
   119  1.1800000000000E+00 -3.9224852129426E-01  1.2907967672857E+00
   120  1.1900000000000E+00 -4.2702970441283E-01  1.2417311052153E+00