Pb    ONCVPSP-4.0.1  r_core=   2.40551   2.40551   2.10888
     82.0000     14.0000      250217    zatom,zion,pspd
     8       2   2     4   600     0    pspcod,pspxc,lmax,lloc,mmax,r2well
  5.99000000  6.00000000  0.00000000    rchrg fchrg qchrg
     2     3     2     0    nproj
     3     1           extension_switch
     3     3     0    nprojso
   0                         5.2447425967434E+00  8.4226371858410E-01
     1  0.0000000000000E+00 -1.1901452046104E-11  2.3234348472956E-11
     2  1.0000000000000E-02  1.9197786999585E-02 -2.4634238815714E-03
     3  2.0000000000000E-02  3.8376697435581E-02 -4.9098030515237E-03
     4  3.0000000000000E-02  5.7517957222311E-02 -7.3222456343925E-03
     5  4.0000000000000E-02  7.6602996640484E-02 -9.6841643858381E-03
     6  5.0000000000000E-02  9.5613551049821E-02 -1.1979426411129E-02
     7  6.0000000000000E-02  1.1453175984539E-01 -1.4192499783578E-02
     8  7.0000000000000E-02  1.3334026308624E-01 -1.6308596056894E-02
     9  8.0000000000000E-02  1.5202229523677E-01 -1.8313807688662E-02
    10  9.0000000000000E-02  1.7056177547609E-01 -2.0195239420968E-02
    11  1.0000000000000E-01  1.8894339404820E-01 -2.1941132698501E-02
    12  1.1000000000000E-01  2.0715269414598E-01 -2.3540982243975E-02
    13  1.2000000000000E-01  2.2517614884524E-01 -2.4985643955339E-02
    14  1.3000000000000E-01  2.4300123263007E-01 -2.6267433338736E-02
    15  1.4000000000000E-01  2.6061648707894E-01 -2.7380213745213E-02
    16  1.5000000000000E-01  2.7801158031090E-01 -2.8319473737594E-02
    17  1.6000000000000E-01  2.9517735982351E-01 -2.9082392976352E-02
    18  1.7000000000000E-01  3.1210589838840E-01 -2.9667896079433E-02
    19  1.8000000000000E-01  3.2879053270626E-01 -3.0076693980521E-02
    20  1.9000000000000E-01  3.4522589456074E-01 -3.0311312382733E-02
    21  2.0000000000000E-01  3.6140793425005E-01 -3.0376106979962E-02
    22  2.1000000000000E-01  3.7733393611508E-01 -3.0277265195430E-02
    23  2.2000000000000E-01  3.9300252602470E-01 -3.0022794266442E-02
    24  2.3000000000000E-01  4.0841367072102E-01 -2.9622495584959E-02
    25  2.4000000000000E-01  4.2356866897058E-01 -2.9087925285489E-02
    26  2.5000000000000E-01  4.3847013451087E-01 -2.8432341154106E-02
    27  2.6000000000000E-01  4.5312197082537E-01 -2.7670636015017E-02
    28  2.7000000000000E-01  4.6752933782419E-01 -2.6819257833365E-02
    29  2.8000000000000E-01  4.8169861055095E-01 -2.5896116854487E-02
    30  2.9000000000000E-01  4.9563733007991E-01 -2.4920480180462E-02
    31  3.0000000000000E-01  5.0935414681007E-01 -2.3912854263424E-02
    32  3.1000000000000E-01  5.2285875640464E-01 -2.2894855872174E-02
    33  3.2000000000000E-01  5.3616182866548E-01 -2.1889072162983E-02
    34  3.3000000000000E-01  5.4927492967149E-01 -2.0918910557147E-02
    35  3.4000000000000E-01  5.6221043754821E-01 -2.0008439196138E-02
    36  3.5000000000000E-01  5.7498145227266E-01 -1.9182218810173E-02
    37  3.6000000000000E-01  5.8760169995193E-01 -1.8465126896419E-02
    38  3.7000000000000E-01  6.0008543204731E-01 -1.7882175159940E-02
    39  3.8000000000000E-01  6.1244732004589E-01 -1.7458321221799E-02
    40  3.9000000000000E-01  6.2470234611024E-01 -1.7218275645830E-02
    41  4.0000000000000E-01  6.3686569026256E-01 -1.7186305376700E-02
    42  4.1000000000000E-01  6.4895261468278E-01 -1.7386034718196E-02
    43  4.2000000000000E-01  6.6097834572073E-01 -1.7840245010334E-02
    44  4.3000000000000E-01  6.7295795423996E-01 -1.8570674188452E-02
    45  4.4000000000000E-01  6.8490623492553E-01 -1.9597817424934E-02
    46  4.5000000000000E-01  6.9683758519950E-01 -2.0940730066126E-02
    47  4.6000000000000E-01  7.0876588439627E-01 -2.2616834081833E-02
    48  4.7000000000000E-01  7.2070437385526E-01 -2.4641729243548E-02
    49  4.8000000000000E-01  7.3266553858998E-01 -2.7029010239271E-02
    50  4.9000000000000E-01  7.4466099119141E-01 -2.9790090918180E-02
    51  5.0000000000000E-01  7.5670135861892E-01 -3.2934036836949E-02
    52  5.1000000000000E-01  7.6879617252356E-01 -3.6467407251556E-02
    53  5.2000000000000E-01  7.8095376373765E-01 -4.0394107663927E-02
    54  5.3000000000000E-01  7.9318116154964E-01 -4.4715253991769E-02
    55  5.4000000000000E-01  8.0548399836546E-01 -4.9429049382829E-02
    56  5.5000000000000E-01  8.1786642033656E-01 -5.4530674641441E-02
    57  5.6000000000000E-01  8.3033100451065E-01 -6.0012193176087E-02
    58  5.7000000000000E-01  8.4287868303397E-01 -6.5862471311824E-02
    59  5.8000000000000E-01  8.5550867490406E-01 -7.2067114741253E-02
    60  5.9000000000000E-01  8.6821842573894E-01 -7.8608421812458E-02
    61  6.0000000000000E-01  8.8100355599343E-01 -8.5465354272275E-02
    62  6.1000000000000E-01  8.9385781801525E-01 -9.2613525998959E-02
    63  6.2000000000000E-01  9.0677306229333E-01 -1.0002521016987E-01
    64  6.3000000000000E-01  9.1973921320851E-01 -1.0766936521800E-01
    65  6.4000000000000E-01  9.3274425455244E-01 -1.1551167983602E-01
    66  6.5000000000000E-01  9.4577422503432E-01 -1.2351463718873E-01
    67  6.6000000000000E-01  9.5881322394779E-01 -1.3163759839517E-01
    68  6.7000000000000E-01  9.7184342712106E-01 -1.3983690523950E-01
    69  6.8000000000000E-01  9.8484511322388E-01 -1.4806600196758E-01
    70  6.9000000000000E-01  9.9779670045349E-01 -1.5627557592193E-01
    71  7.0000000000000E-01  1.0106747935710E+00 -1.6441371666495E-01
    72  7.1000000000000E-01  1.0234542412073E+00 -1.7242609313615E-01
    73  7.2000000000000E-01  1.0361082033059E+00 -1.8025614828742E-01
    74  7.3000000000000E-01  1.0486082285191E+00 -1.8784531053943E-01
    75  7.4000000000000E-01  1.0609243413210E+00 -1.9513322130295E-01
    76  7.5000000000000E-01  1.0730251385520E+00 -2.0205797771329E-01
    77  7.6000000000000E-01  1.0848778950594E+00 -2.0855638963237E-01
    78  7.7000000000000E-01  1.0964486780483E+00 -2.1456424988332E-01
    79  7.8000000000000E-01  1.1077024697131E+00 -2.2001661659757E-01
    80  7.9000000000000E-01  1.1186032976728E+00 -2.2484810647267E-01
    81  8.0000000000000E-01  1.1291143726881E+00 -2.2899319766417E-01
    82  8.1000000000000E-01  1.1391982331022E+00 -2.3238654096400E-01
    83  8.2000000000000E-01  1.1488168954014E+00 -2.3496327785402E-01
    84  8.3000000000000E-01  1.1579320102612E+00 -2.3665936396502E-01
    85  8.4000000000000E-01  1.1665050234075E+00 -2.3741189642089E-01
    86  8.5000000000000E-01  1.1744973405911E+00 -2.3715944350338E-01
    87  8.6000000000000E-01  1.1818704959475E+00 -2.3584237503616E-01
    88  8.7000000000000E-01  1.1885863229917E+00 -2.3340319185851E-01
    89  8.8000000000000E-01  1.1946071274723E+00 -2.2978685273747E-01
    90  8.9000000000000E-01  1.1998958612971E+00 -2.2494109705514E-01
    91  9.0000000000000E-01  1.2044162967271E+00 -2.1881676160298E-01
    92  9.1000000000000E-01  1.2081332000254E+00 -2.1136808981900E-01
    93  9.2000000000000E-01  1.2110125037437E+00 -2.0255303181690E-01
    94  9.3000000000000E-01  1.2130214768264E+00 -1.9233353357635E-01
    95  9.4000000000000E-01  1.2141288917155E+00 -1.8067581369445E-01
    96  9.5000000000000E-01  1.2143051876453E+00 -1.6755062613599E-01
    97  9.6000000000000E-01  1.2135226293262E+00 -1.5293350746681E-01
    98  9.7000000000000E-01  1.2117554602316E+00 -1.3680500711006E-01
    99  9.8000000000000E-01  1.2089800497215E+00 -1.1915089922780E-01
   100  9.9000000000000E-01  1.2051750332560E+00 -9.9962374901499E-02
   101  1.0000000000000E+00  1.2003214449802E+00 -7.9236213363867E-02
   102  1.0100000000000E+00  1.1944028419918E+00 -5.6974931119787E-02
   103  1.0200000000000E+00  1.1874054196344E+00 -3.3186907887675E-02
   104  1.0300000000000E+00  1.1793181171980E+00 -7.8864883915963E-03
   105  1.0400000000000E+00  1.1701327134484E+00  1.8905940860211E-02
   106  1.0500000000000E+00  1.1598439114486E+00  4.7163900562832E-02
   107  1.0600000000000E+00  1.1484494121850E+00  7.6854794005115E-02
   108  1.0700000000000E+00  1.1359499765552E+00  1.0793990937867E-01
   109  1.0800000000000E+00  1.1223494753316E+00  1.4037444939579E-01
   110  1.0900000000000E+00  1.1076549267637E+00  1.7410758847902E-01
   111  1.1000000000000E+00  1.0918765215394E+00  2.0908255765320E-01
   112  1.1100000000000E+00  1.0750276348851E+00  2.4523675713757E-01
   113  1.1200000000000E+00  1.0571248256393E+00  2.8250189650085E-01
   114  1.1300000000000E+00  1.0381878221985E+00  3.2080416210624E-01
   115  1.1400000000000E+00  1.0182394952918E+00  3.6006441143721E-01
   116  1.1500000000000E+00  9.9730581760479E-01  4.0019839375996E-01
   117  1.1600000000000E+00  9.7541581033295E-01  4.4111699644385E-01
   118  1.1700000000000E+00  9.5260147680889E-01  4.8272651612923E-01
   119  1.1800000000000E+00  9.2889772340660E-01  5.2492895380212E-01
   120  1.1900000000000E+00  9.0434226798878E-01  5.6762233270944E-01
   121  1.2000000000000E+00  8.7897553622212E-01  6.1070103792550E-01
   122  1.2100000000000E+00  8.5284054614412E-01  6.5405617626379E-01
   123  1.2200000000000E+00  8.2598278142225E-01  6.9757595511468E-01
   124  1.2300000000000E+00  7.9845005380099E-01  7.4114607868448E-01
   125  1.2400000000000E+00  7.7029235528556E-01  7.8465016001053E-01
   126  1.2500000000000E+00  7.4156170066169E-01  8.2797014703487E-01
   127  1.2600000000000E+00  7.1231196099829E-01  8.7098676093388E-01
   128  1.2700000000000E+00  6.8259868882507E-01  9.1357994482424E-01
   129  1.2800000000000E+00  6.5247893571883E-01  9.5562932089763E-01
   130  1.2900000000000E+00  6.2201106307010E-01  9.9701465397720E-01
   131  1.3000000000000E+00  5.9125454683688E-01  1.0376163194392E+00
   132  1.3100000000000E+00  5.6026977712260E-01  1.0773157734035E+00
   133  1.3200000000000E+00  5.2911785344263E-01  1.1159960230658E+00
   134  1.3300000000000E+00  4.9786037656606E-01  1.1535420950269E+00
   135  1.3400000000000E+00  4.6655923783796E-01  1.1898414994631E+00
   136  1.3500000000000E+00  4.3527640690153E-01  1.2247846879847E+00
   137  1.3600000000000E+00  4.0407371874864E-01  1.2582655030414E+00
   138  1.3700000000000E+00  3.7301266103281E-01  1.2901816167569E+00
   139  1.3800000000000E+00  3.4215416257868E-01  1.3204349571091E+00
   140  1.3900000000000E+00  3.1155838401808E-01  1.3489321194142E+00
   141  1.4000000000000E+00  2.8128451147401E-01  1.3755847611322E+00
   142  1.4100000000000E+00  2.5139055420051E-01  1.4003099780724E+00
   143  1.4200000000000E+00  2.2193314706854E-01  1.4230306601547E+00
   144  1.4300000000000E+00  1.9296735876604E-01  1.4436758249668E+00
   145  1.4400000000000E+00  1.6454650655331E-01  1.4621809274525E+00
   146  1.4500000000000E+00  1.3672197838466E-01  1.4784881441676E+00
   147  1.4600000000000E+00  1.0954306317222E-01  1.4925466306523E+00
   148  1.4700000000000E+00  8.3056789929059E-02  1.5043127505903E+00
   149  1.4800000000000E+00  5.7307776486821E-02  1.5137502755475E+00
   150  1.4900000000000E+00  3.2338088436925E-02  1.5208305542220E+00
   151  1.5000000000000E+00  8.1871088956448E-03  1.5255326502721E+00
   152  1.5100000000000E+00 -1.5108580358842E-02  1.5278434479366E+00
   153  1.5200000000000E+00 -3.7515305883846E-02  1.5277577248123E+00
   154  1.5300000000000E+00 -5.9002397267700E-02  1.5252781913050E+00
   155  1.5400000000000E+00 -7.9542269146382E-02  1.5204154964299E+00
   156  1.5500000000000E+00 -9.9110490225378E-02  1.5131881997949E+00
   157  1.5600000000000E+00 -1.1768583905347E-01  1.5036227097621E+00
   158  1.5700000000000E+00 -1.3525034635913E-01  1.4917531879462E+00
   159  1.5800000000000E+00 -1.5178932382469E-01  1.4776214203671E+00
   160  1.5900000000000E+00 -1.6729137923908E-01  1.4612766557374E+00
   161  1.6000000000000E+00 -1.8174841803488E-01  1.4427754115254E+00
   162  1.6100000000000E+00 -1.9515563128098E-01  1.4221812485869E+00
   163  1.6200000000000E+00 -2.0751147026691E-01  1.3995645153182E+00
   164  1.6300000000000E+00 -2.1881760787868E-01  1.3750020624263E+00
   165  1.6400000000000E+00 -2.2907888702864E-01  1.3485769295592E+00
   166  1.6500000000000E+00 -2.3830325646341E-01  1.3203780051789E+00
   167  1.6600000000000E+00 -2.4650169433296E-01  1.2904996611872E+00
   168  1.6700000000000E+00 -2.5368811996133E-01  1.2590413639439E+00
   169  1.6800000000000E+00 -2.5987929431432E-01  1.2261072634294E+00
   170  1.6900000000000E+00 -2.6509470971136E-01  1.1918057624172E+00
   171  1.7000000000000E+00 -2.6935646937813E-01  1.1562490676139E+00
   172  1.7100000000000E+00 -2.7268915748190E-01  1.1195527248212E+00
   173  1.7200000000000E+00 -2.7511970033418E-01  1.0818351402482E+00
   174  1.7300000000000E+00 -2.7667721948372E-01  1.0432170901731E+00
   175  1.7400000000000E+00 -2.7739287745745E-01  1.0038212212126E+00
   176  1.7500000000000E+00 -2.7729971693766E-01  9.6377154349950E-01
   177  1.7600000000000E+00 -2.7643249418987E-01  9.2319291910829E-01
   178  1.7700000000000E+00 -2.7482750757783E-01  8.8221054808873E-01
   179  1.7800000000000E+00 -2.7252242201952E-01  8.4094945447865E-01
   180  1.7900000000000E+00 -2.6955609025065E-01  7.9953397466682E-01
   181  1.8000000000000E+00 -2.6596837177064E-01  7.5808725046309E-01
   182  1.8100000000000E+00 -2.6179995034945E-01  7.1673072920759E-01
   183  1.8200000000000E+00 -2.5709215097237E-01  6.7558367321391E-01
   184  1.8300000000000E+00 -2.5188675709439E-01  6.3476268079197E-01
   185  1.8400000000000E+00 -2.4622582906501E-01  5.9438122103583E-01
   186  1.8500000000000E+00 -2.4015152456983E-01  5.5454918449017E-01
   187  1.8600000000000E+00 -2.3370592191540E-01  5.1537245172633E-01
   188  1.8700000000000E+00 -2.2693084696082E-01  4.7695248176606E-01
   189  1.8800000000000E+00 -2.1986770447060E-01  4.3938592218696E-01
   190  1.8900000000000E+00 -2.1255731463323E-01  4.0276424263420E-01
   191  1.9000000000000E+00 -2.0503975545223E-01  3.6717339333770E-01
   192  1.9100000000000E+00 -1.9735421167872E-01  3.3269349010765E-01
   193  1.9200000000000E+00 -1.8953883091131E-01  2.9939852714279E-01
   194  1.9300000000000E+00 -1.8163058744334E-01  2.6735611884226E-01
   195  1.9400000000000E+00 -1.7366515438929E-01  2.3662727166218E-01
   196  1.9500000000000E+00 -1.6567678457089E-01  2.0726618690319E-01
   197  1.9600000000000E+00 -1.5769820058939E-01  1.7932009515319E-01
   198  1.9700000000000E+00 -1.4976049445688E-01  1.5282912295152E-01
   199  1.9800000000000E+00 -1.4189303710076E-01  1.2782619206992E-01
   200  1.9900000000000E+00 -1.3412339799785E-01  1.0433695163962E-01
   201  2.0000000000000E+00 -1.2647727513567E-01  8.2379743186033E-02
   202  2.0100000000000E+00 -1.1897843543825E-01  6.1965598463274E-02
   203  2.0200000000000E+00 -1.1164866573368E-01  4.3098269812753E-02
   204  2.0300000000000E+00 -1.0450773427980E-01  2.5774292602226E-02
   205  2.0400000000000E+00 -9.7573362807639E-02  9.9830791462831E-03
   206  2.0500000000000E+00 -9.0861208978568E-02 -4.2929566631529E-03
   207  2.0600000000000E+00 -8.4384859097106E-02 -1.7078244932940E-02
   208  2.0700000000000E+00 -7.8155830863331E-02 -2.8403876622005E-02
   209  2.0800000000000E+00 -7.2183585831918E-02 -3.8307393149933E-02
   210  2.0900000000000E+00 -6.6475551224208E-02 -4.6832550179752E-02
   211  2.1000000000000E+00 -6.1037154134786E-02 -5.4029042929186E-02
   212  2.1100000000000E+00 -5.5871849253802E-02 -5.9952272137988E-02
   213  2.1200000000000E+00 -5.0981206377756E-02 -6.4662869255615E-02
   214  2.1300000000000E+00 -4.6365098456306E-02 -6.8225816365659E-02
   215  2.1400000000000E+00 -4.2021905217707E-02 -7.0709549209085E-02
   216  2.1500000000000E+00 -3.7948623408103E-02 -7.2185485674140E-02
   217  2.1600000000000E+00 -3.4140963888091E-02 -7.2727624775925E-02
   218  2.1700000000000E+00 -3.0593461015801E-02 -7.2412102170015E-02
   219  2.1800000000000E+00 -2.7299584252469E-02 -7.1316746479574E-02
   220  2.1900000000000E+00 -2.4251852952538E-02 -6.9520630848878E-02
   221  2.2000000000000E+00 -2.1441953727293E-02 -6.7103621448676E-02
   222  2.2100000000000E+00 -1.8860859537764E-02 -6.4145925599088E-02
   223  2.2200000000000E+00 -1.6498949742670E-02 -6.0727641845468E-02
   224  2.2300000000000E+00 -1.4346130326683E-02 -5.6928314313147E-02
   225  2.2400000000000E+00 -1.2391953058032E-02 -5.2826494627505E-02
   226  2.2500000000000E+00 -1.0625735003777E-02 -4.8499309162757E-02
   227  2.2600000000000E+00 -9.0366821626524E-03 -4.4022024628674E-02
   228  2.2700000000000E+00 -7.6139687930407E-03 -3.9467711497368E-02
   229  2.2800000000000E+00 -6.3468913894570E-03 -3.4906764430584E-02
   230  2.2900000000000E+00 -5.2253825377061E-03 -3.0405687604583E-02
   231  2.3000000000000E+00 -4.2409527628507E-03 -2.6025004407272E-02
   232  2.3100000000000E+00 -3.3840588424960E-03 -2.1824527312957E-02
   233  2.3200000000000E+00 -2.6446595891009E-03 -1.7862098312632E-02
   234  2.3300000000000E+00 -2.0135562659225E-03 -1.4190727127052E-02
   235  2.3400000000000E+00 -1.4821681936866E-03 -1.0858943014785E-02
   236  2.3500000000000E+00 -1.0426687657598E-03 -7.9104212451392E-03
   237  2.3600000000000E+00 -6.8804345358067E-04 -5.3837808295129E-03
   238  2.3700000000000E+00 -4.1230310717299E-04 -3.3136574553586E-03
   239  2.3800000000000E+00 -2.0929005001828E-04 -1.7198539107965E-03
   240  2.3900000000000E+00 -7.6413951310317E-05 -6.3898050472160E-04
   241  2.4000000000000E+00 -1.2809557730841E-05 -1.0812810366187E-04
   242  2.4100000000000E+00  3.0368192641574E-06  2.6702273778554E-05
   243  2.4200000000000E+00 -1.6944824333682E-08 -1.4641048677143E-07
   244  2.43  0.  0.
   245  2.44  0.  0.
   246  2.45  0.  0.
   247  2.46  0.  0.
   248  2.47  0.  0.
   249  2.48  0.  0.
   250  2.49  0.  0.
   251  2.50  0.  0.
   252  2.51  0.  0.
   253  2.52  0.  0.
   254  2.53  0.  0.
   255  2.54  0.  0.
   256  2.55  0.  0.
   257  2.56  0.  0.
   258  2.57  0.  0.
   259  2.58  0.  0.
   260  2.59  0.  0.
   261  2.60  0.  0.
   262  2.61  0.  0.
   263  2.62  0.  0.
   264  2.63  0.  0.
   265  2.64  0.  0.
   266  2.65  0.  0.
   267  2.66  0.  0.
   268  2.67  0.  0.
   269  2.68  0.  0.
   270  2.69  0.  0.
   271  2.70  0.  0.
   272  2.71  0.  0.
   273  2.72  0.  0.
   274  2.73  0.  0.
   275  2.74  0.  0.
   276  2.75  0.  0.
   277  2.76  0.  0.
   278  2.77  0.  0.
   279  2.78  0.  0.
   280  2.79  0.  0.
   281  2.80  0.  0.
   282  2.81  0.  0.
   283  2.82  0.  0.
   284  2.83  0.  0.
   285  2.84  0.  0.
   286  2.85  0.  0.
   287  2.86  0.  0.
   288  2.87  0.  0.
   289  2.88  0.  0.
   290  2.89  0.  0.
   291  2.90  0.  0.
   292  2.91  0.  0.
   293  2.92  0.  0.
   294  2.93  0.  0.
   295  2.94  0.  0.
   296  2.95  0.  0.
   297  2.96  0.  0.
   298  2.97  0.  0.
   299  2.98  0.  0.
   300  2.99  0.  0.
   301  3.00  0.  0.
   302  3.01  0.  0.
   303  3.02  0.  0.
   304  3.03  0.  0.
   305  3.04  0.  0.
   306  3.05  0.  0.
   307  3.06  0.  0.
   308  3.07  0.  0.
   309  3.08  0.  0.
   310  3.09  0.  0.
   311  3.10  0.  0.
   312  3.11  0.  0.
   313  3.12  0.  0.
   314  3.13  0.  0.
   315  3.14  0.  0.
   316  3.15  0.  0.
   317  3.16  0.  0.
   318  3.17  0.  0.
   319  3.18  0.  0.
   320  3.19  0.  0.
   321  3.20  0.  0.
   322  3.21  0.  0.
   323  3.22  0.  0.
   324  3.23  0.  0.
   325  3.24  0.  0.
   326  3.25  0.  0.
   327  3.26  0.  0.
   328  3.27  0.  0.
   329  3.28  0.  0.
   330  3.29  0.  0.
   331  3.30  0.  0.
   332  3.31  0.  0.
   333  3.32  0.  0.
   334  3.33  0.  0.
   335  3.34  0.  0.
   336  3.35  0.  0.
   337  3.36  0.  0.
   338  3.37  0.  0.
   339  3.38  0.  0.
   340  3.39  0.  0.
   341  3.40  0.  0.
   342  3.41  0.  0.
   343  3.42  0.  0.
   344  3.43  0.  0.
   345  3.44  0.  0.
   346  3.45  0.  0.
   347  3.46  0.  0.
   348  3.47  0.  0.
   349  3.48  0.  0.
   350  3.49  0.  0.
   351  3.50  0.  0.
   352  3.51  0.  0.
   353  3.52  0.  0.
   354  3.53  0.  0.
   355  3.54  0.  0.
   356  3.55  0.  0.
   357  3.56  0.  0.
   358  3.57  0.  0.
   359  3.58  0.  0.
   360  3.59  0.  0.
   361  3.60  0.  0.
   362  3.61  0.  0.
   363  3.62  0.  0.
   364  3.63  0.  0.
   365  3.64  0.  0.
   366  3.65  0.  0.
   367  3.66  0.  0.
   368  3.67  0.  0.
   369  3.68  0.  0.
   370  3.69  0.  0.
   371  3.70  0.  0.
   372  3.71  0.  0.
   373  3.72  0.  0.
   374  3.73  0.  0.
   375  3.74  0.  0.
   376  3.75  0.  0.
   377  3.76  0.  0.
   378  3.77  0.  0.
   379  3.78  0.  0.
   380  3.79  0.  0.
   381  3.80  0.  0.
   382  3.81  0.  0.
   383  3.82  0.  0.
   384  3.83  0.  0.
   385  3.84  0.  0.
   386  3.85  0.  0.
   387  3.86  0.  0.
   388  3.87  0.  0.
   389  3.88  0.  0.
   390  3.89  0.  0.
   391  3.90  0.  0.
   392  3.91  0.  0.
   393  3.92  0.  0.
   394  3.93  0.  0.
   395  3.94  0.  0.
   396  3.95  0.  0.
   397  3.96  0.  0.
   398  3.97  0.  0.
   399  3.98  0.  0.
   400  3.99  0.  0.
   401  4.00  0.  0.
   402  4.01  0.  0.
   403  4.02  0.  0.
   404  4.03  0.  0.
   405  4.04  0.  0.
   406  4.05  0.  0.
   407  4.06  0.  0.
   408  4.07  0.  0.
   409  4.08  0.  0.
   410  4.09  0.  0.
   411  4.10  0.  0.
   412  4.11  0.  0.
   413  4.12  0.  0.
   414  4.13  0.  0.
   415  4.14  0.  0.
   416  4.15  0.  0.
   417  4.16  0.  0.
   418  4.17  0.  0.
   419  4.18  0.  0.
   420  4.19  0.  0.
   421  4.20  0.  0.
   422  4.21  0.  0.
   423  4.22  0.  0.
   424  4.23  0.  0.
   425  4.24  0.  0.
   426  4.25  0.  0.
   427  4.26  0.  0.
   428  4.27  0.  0.
   429  4.28  0.  0.
   430  4.29  0.  0.
   431  4.30  0.  0.
   432  4.31  0.  0.
   433  4.32  0.  0.
   434  4.33  0.  0.
   435  4.34  0.  0.
   436  4.35  0.  0.
   437  4.36  0.  0.
   438  4.37  0.  0.
   439  4.38  0.  0.
   440  4.39  0.  0.
   441  4.40  0.  0.
   442  4.41  0.  0.
   443  4.42  0.  0.
   444  4.43  0.  0.
   445  4.44  0.  0.
   446  4.45  0.  0.
   447  4.46  0.  0.
   448  4.47  0.  0.
   449  4.48  0.  0.
   450  4.49  0.  0.
   451  4.50  0.  0.
   452  4.51  0.  0.
   453  4.52  0.  0.
   454  4.53  0.  0.
   455  4.54  0.  0.
   456  4.55  0.  0.
   457  4.56  0.  0.
   458  4.57  0.  0.
   459  4.58  0.  0.
   460  4.59  0.  0.
   461  4.60  0.  0.
   462  4.61  0.  0.
   463  4.62  0.  0.
   464  4.63  0.  0.
   465  4.64  0.  0.
   466  4.65  0.  0.
   467  4.66  0.  0.
   468  4.67  0.  0.
   469  4.68  0.  0.
   470  4.69  0.  0.
   471  4.70  0.  0.
   472  4.71  0.  0.
   473  4.72  0.  0.
   474  4.73  0.  0.
   475  4.74  0.  0.
   476  4.75  0.  0.
   477  4.76  0.  0.
   478  4.77  0.  0.
   479  4.78  0.  0.
   480  4.79  0.  0.
   481  4.80  0.  0.
   482  4.81  0.  0.
   483  4.82  0.  0.
   484  4.83  0.  0.
   485  4.84  0.  0.
   486  4.85  0.  0.
   487  4.86  0.  0.
   488  4.87  0.  0.
   489  4.88  0.  0.
   490  4.89  0.  0.
   491  4.90  0.  0.
   492  4.91  0.  0.
   493  4.92  0.  0.
   494  4.93  0.  0.
   495  4.94  0.  0.
   496  4.95  0.  0.
   497  4.96  0.  0.
   498  4.97  0.  0.
   499  4.98  0.  0.
   500  4.99  0.  0.
   501  5.00  0.  0.
   502  5.01  0.  0.
   503  5.02  0.  0.
   504  5.03  0.  0.
   505  5.04  0.  0.
   506  5.05  0.  0.
   507  5.06  0.  0.
   508  5.07  0.  0.
   509  5.08  0.  0.
   510  5.09  0.  0.
   511  5.10  0.  0.
   512  5.11  0.  0.
   513  5.12  0.  0.
   514  5.13  0.  0.
   515  5.14  0.  0.
   516  5.15  0.  0.
   517  5.16  0.  0.
   518  5.17  0.  0.
   519  5.18  0.  0.
   520  5.19  0.  0.
   521  5.20  0.  0.
   522  5.21  0.  0.
   523  5.22  0.  0.
   524  5.23  0.  0.
   525  5.24  0.  0.
   526  5.25  0.  0.
   527  5.26  0.  0.
   528  5.27  0.  0.
   529  5.28  0.  0.
   530  5.29  0.  0.
   531  5.30  0.  0.
   532  5.31  0.  0.
   533  5.32  0.  0.
   534  5.33  0.  0.
   535  5.34  0.  0.
   536  5.35  0.  0.
   537  5.36  0.  0.
   538  5.37  0.  0.
   539  5.38  0.  0.
   540  5.39  0.  0.
   541  5.40  0.  0.
   542  5.41  0.  0.
   543  5.42  0.  0.
   544  5.43  0.  0.
   545  5.44  0.  0.
   546  5.45  0.  0.
   547  5.46  0.  0.
   548  5.47  0.  0.
   549  5.48  0.  0.
   550  5.49  0.  0.
   551  5.50  0.  0.
   552  5.51  0.  0.
   553  5.52  0.  0.
   554  5.53  0.  0.
   555  5.54  0.  0.
   556  5.55  0.  0.
   557  5.56  0.  0.
   558  5.57  0.  0.
   559  5.58  0.  0.
   560  5.59  0.  0.
   561  5.60  0.  0.
   562  5.61  0.  0.
   563  5.62  0.  0.
   564  5.63  0.  0.
   565  5.64  0.  0.
   566  5.65  0.  0.
   567  5.66  0.  0.
   568  5.67  0.  0.
   569  5.68  0.  0.
   570  5.69  0.  0.
   571  5.70  0.  0.
   572  5.71  0.  0.
   573  5.72  0.  0.
   574  5.73  0.  0.
   575  5.74  0.  0.
   576  5.75  0.  0.
   577  5.76  0.  0.
   578  5.77  0.  0.
   579  5.78  0.  0.
   580  5.79  0.  0.
   581  5.80  0.  0.
   582  5.81  0.  0.
   583  5.82  0.  0.
   584  5.83  0.  0.
   585  5.84  0.  0.
   586  5.85  0.  0.
   587  5.86  0.  0.
   588  5.87  0.  0.
   589  5.88  0.  0.
   590  5.89  0.  0.
   591  5.90  0.  0.
   592  5.91  0.  0.
   593  5.92  0.  0.
   594  5.93  0.  0.
   595  5.94  0.  0.
   596  5.95  0.  0.
   597  5.96  0.  0.
   598  5.97  0.  0.
   599  5.98  0.  0.
   600  5.99  0.  0.
   1                        -2.0429960964906E+00  1.8565353916284E+00  7.3201859597390E-02
     1  0.0000000000000E+00 -6.8606613445876E-11  2.7108990616545E-11 -2.7156392586047E-10
     2  1.0000000000000E-02  5.2562103111838E-04  1.6658904402669E-05  1.2861396812718E-04
     3  2.0000000000000E-02  2.1020164875334E-03  6.6705198699062E-05  5.1538594518049E-04
     4  3.0000000000000E-02  4.7277802995851E-03  1.5034879382139E-04  1.1630912941997E-03
     5  4.0000000000000E-02  8.4005585250776E-03  2.6794341898398E-04  2.0763062493660E-03
     6  5.0000000000000E-02  1.3117033738309E-02  4.1999238732866E-04  3.2613343684403E-03
     7  6.0000000000000E-02  1.8872903429943E-02  6.0715656660405E-04  4.7261045791889E-03
     8  7.0000000000000E-02  2.5662852670273E-02  8.3026445476586E-04  6.4800418218971E-03
     9  8.0000000000000E-02  3.3480521357056E-02  1.0903242332766E-03  8.5339115616328E-03
    10  9.0000000000000E-02  4.2318466434626E-02  1.3885376450162E-03  1.0899639703518E-02
    11  1.0000000000000E-01  5.2168119533572E-02  1.7263155191374E-03  1.3590109691027E-02
    12  1.1000000000000E-01  6.3019740538846E-02  2.1052947422505E-03  1.6618938798094E-02
    13  1.2000000000000E-01  7.4862367648337E-02  2.5273564542168E-03  2.0000235838731E-02
    14  1.3000000000000E-01  8.7683764533507E-02  2.9946452276584E-03  2.3748342711548E-02
    15  1.4000000000000E-01  1.0147036525784E-01  3.5095889733525E-03  2.7877562368584E-02
    16  1.5000000000000E-01  1.1620721764739E-01  4.0749192990834E-03  3.2401875946841E-02
    17  1.6000000000000E-01  1.3187792584048E-01  4.6936920373406E-03  3.7334651926209E-02
    18  1.7000000000000E-01  1.4846459276969E-01  5.3693076477715E-03  4.2688350276542E-02
    19  1.8000000000000E-01  1.6594776334943E-01  6.1055311934217E-03  4.8474224629964E-02
    20  1.9000000000000E-01  1.8430636915532E-01  6.9065115857195E-03  5.4702025560566E-02
    21  2.0000000000000E-01  2.0351767538787E-01  7.7767997919581E-03  6.1379708071817E-02
    22  2.1000000000000E-01  2.2355723091267E-01  8.7213657005704E-03  6.8513146383024E-02
    23  2.2000000000000E-01  2.4439882216135E-01  9.7456133440010E-03  7.6105859068603E-02
    24  2.3000000000000E-01  2.6601443166355E-01  1.0855394186229E-02  8.4158747539477E-02
    25  2.4000000000000E-01  2.8837420195849E-01  1.2057018192101E-02  9.2669850763618E-02
    26  2.5000000000000E-01  3.1144640560733E-01  1.3357262408415E-02  1.0163411900465E-01
    27  2.6000000000000E-01  3.3519742199257E-01  1.4763376802114E-02  1.1104320921331E-01
    28  2.7000000000000E-01  3.5959172155069E-01  1.6283087118923E-02  1.2088530453837E-01
    29  2.8000000000000E-01  3.8459185803747E-01  1.7924594546043E-02  1.3114496023224E-01
    30  2.9000000000000E-01  4.1015846937341E-01  1.9696571985087E-02  1.4180297801361E-01
    31  3.0000000000000E-01  4.3625028755970E-01  2.1608156766031E-02  1.5283631071715E-01
    32  3.1000000000000E-01  4.6282415809303E-01  2.3668939659379E-02  1.6421799880970E-01
    33  3.2000000000000E-01  4.8983506924169E-01  2.5888950071881E-02  1.7591714008657E-01
    34  3.3000000000000E-01  5.1723619147547E-01  2.8278637340591E-02  1.8789889358170E-01
    35  3.4000000000000E-01  5.4497892726880E-01  3.0848848070813E-02  2.0012451843502E-01
    36  3.5000000000000E-01  5.7301297142132E-01  3.3610799495069E-02  2.1255144816057E-01
    37  3.6000000000000E-01  6.0128638196222E-01  3.6576048862560E-02  2.2513340045350E-01
    38  3.7000000000000E-01  6.2974566162595E-01  3.9756458901297E-02  2.3782052236470E-01
    39  3.8000000000000E-01  6.5833584980715E-01  4.3164159427972E-02  2.5055957036157E-01
    40  3.9000000000000E-01  6.8700062482312E-01  4.6811505213353E-02  2.6329412448511E-01
    41  4.0000000000000E-01  7.1568241623254E-01  5.0711030243360E-02  2.7596483550894E-01
    42  4.1000000000000E-01  7.4432252688150E-01  5.4875398547653E-02  2.8850970370901E-01
    43  4.2000000000000E-01  7.7286126427123E-01  5.9317351798291E-02  3.0086438756495E-01
    44  4.3000000000000E-01  8.0123808076850E-01  6.4049653910606E-02  3.1296254043819E-01
    45  4.4000000000000E-01  8.2939172210838E-01  6.9085032906521E-02  3.2473617301123E-01
    46  4.5000000000000E-01  8.5726038357192E-01  7.4436120327005E-02  3.3611603902756E-01
    47  4.6000000000000E-01  8.8478187315838E-01  8.0115388504845E-02  3.4703204164686E-01
    48  4.7000000000000E-01  9.1189378101253E-01  8.6135086031341E-02  3.5741365752509E-01
    49  4.8000000000000E-01  9.3853365431477E-01  9.2507171770608E-02  3.6719037554801E-01
    50  4.9000000000000E-01  9.6463917679338E-01  9.9243247792748E-02  3.7629214698908E-01
    51  5.0000000000000E-01  9.9014835197655E-01  1.0635449161209E-01  3.8464984373196E-01
    52  5.1000000000000E-01  1.0149996892661E+00  1.1385158812886E-01  3.9219572109364E-01
    53  5.2000000000000E-01  1.0391323918856E+00  1.2174466168179E-01  3.9886388170895E-01
    54  5.3000000000000E-01  1.0624865457337E+00  1.3004320862555E-01  4.0459073689025E-01