Pb    ONCVPSP-4.0.1  r_core=   2.40551   2.40551   2.10888
     82.0000     14.0000      250925    zatom,zion,pspd
     8   -1012   2     4   600     0    pspcod,pspxc,lmax,lloc,mmax,r2well
  5.99000000  6.00000000  0.00000000    rchrg fchrg qchrg
     2     3     2     0    nproj
     3     1           extension_switch
     3     3     0    nprojso
   0                         5.2465267728789E+00  8.4282650010140E-01
     1  0.0000000000000E+00 -1.1909084829398E-11  2.3244097618891E-11
     2  1.0000000000000E-02  1.9197342352171E-02 -2.4641932142565E-03
     3  2.0000000000000E-02  3.8375812590716E-02 -4.9113455001525E-03
     4  3.0000000000000E-02  5.7516641056285E-02 -7.3245687272663E-03
     5  4.0000000000000E-02  7.6601262408771E-02 -9.6872793201222E-03
     6  5.0000000000000E-02  9.5611416316687E-02 -1.1983347939226E-02
     7  6.0000000000000E-02  1.1452924639064E-01 -1.4197246062810E-02
     8  7.0000000000000E-02  1.3333739678960E-01 -1.6314188463498E-02
     9  8.0000000000000E-02  1.5201910594057E-01 -1.8320270597349E-02
    10  9.0000000000000E-02  1.7055829682693E-01 -2.0202599951518E-02
    11  1.0000000000000E-01  1.8893966331854E-01 -2.1949420431101E-02
    12  1.1000000000000E-01  2.0714875203657E-01 -2.3550228905181E-02
    13  1.2000000000000E-01  2.2517203926945E-01 -2.4995883076802E-02
    14  1.3000000000000E-01  2.4299700248135E-01 -2.6278699890943E-02
    15  1.4000000000000E-01  2.6061218598256E-01 -2.7392543748735E-02
    16  1.5000000000000E-01  2.7800726036141E-01 -2.8332903854418E-02
    17  1.6000000000000E-01  2.9517307530926E-01 -2.9096960084053E-02
    18  1.7000000000000E-01  3.1210170550457E-01 -2.9683636831059E-02
    19  1.8000000000000E-01  3.2878648925794E-01 -3.0093644353113E-02
    20  1.9000000000000E-01  3.4522205965771E-01 -3.0329507217568E-02
    21  2.0000000000000E-01  3.6140436799465E-01 -3.0395579517555E-02
    22  2.1000000000000E-01  3.7733069928505E-01 -3.0298046608498E-02
    23  2.2000000000000E-01  3.9299967975238E-01 -3.0044913193921E-02
    24  2.3000000000000E-01  4.0841127617078E-01 -2.9645977670274E-02
    25  2.4000000000000E-01  4.2356678701599E-01 -2.9112792722174E-02
    26  2.5000000000000E-01  4.3846882541322E-01 -2.8458612241899E-02
    27  2.6000000000000E-01  4.5312129391528E-01 -2.7698324729414E-02
    28  2.7000000000000E-01  4.6752935118772E-01 -2.6848373411592E-02
    29  2.8000000000000E-01  4.8169937072187E-01 -2.5926663400803E-02
    30  2.9000000000000E-01  4.9563889173955E-01 -2.4952456293382E-02
    31  3.0000000000000E-01  5.0935656249618E-01 -2.3946252687603E-02
    32  3.1000000000000E-01  5.2286207623064E-01 -2.2929663177290E-02
    33  3.2000000000000E-01  5.3616610005140E-01 -2.1925268451967E-02
    34  3.3000000000000E-01  5.4928019708771E-01 -2.0956469205792E-02
    35  3.4000000000000E-01  5.6221674227328E-01 -2.0047326626081E-02
    36  3.5000000000000E-01  5.7498883216606E-01 -1.9222394296844E-02
    37  3.6000000000000E-01  5.8761018924287E-01 -1.8506542413544E-02
    38  3.7000000000000E-01  6.0009506114026E-01 -1.7924775261804E-02
    39  3.8000000000000E-01  6.1245811534363E-01 -1.7502042964359E-02
    40  3.9000000000000E-01  6.2471432985511E-01 -1.7263048547419E-02
    41  4.0000000000000E-01  6.3687888039631E-01 -1.7232051418971E-02
    42  4.1000000000000E-01  6.4896702472554E-01 -1.7432668387526E-02
    43  4.2000000000000E-01  6.6099398466930E-01 -1.7887673379949E-02
    44  4.3000000000000E-01  6.7297482648569E-01 -1.8618797040892E-02
    45  4.4000000000000E-01  6.8492434019184E-01 -1.9646527414720E-02
    46  4.5000000000000E-01  6.9685691849892E-01 -2.0989912921776E-02
    47  4.6000000000000E-01  7.0878643600712E-01 -2.2666368846590E-02
    48  4.7000000000000E-01  7.2072612931741E-01 -2.4691488553591E-02
    49  4.8000000000000E-01  7.3268847871958E-01 -2.7078860638235E-02
    50  4.9000000000000E-01  7.4468509211418E-01 -2.9839893206456E-02
    51  5.0000000000000E-01  7.5672659182132E-01 -3.2983646454127E-02
    52  5.1000000000000E-01  7.6882250492137E-01 -3.6516674690130E-02
    53  5.2000000000000E-01  7.8098115776130E-01 -4.0442878912282E-02
    54  5.3000000000000E-01  7.9320957524549E-01 -4.4763371004269E-02
    55  5.4000000000000E-01  8.0551338551225E-01 -4.9476350574739E-02
    56  5.5000000000000E-01  8.1789673057616E-01 -5.4576995406173E-02
    57  5.6000000000000E-01  8.3036218349219E-01 -6.0057366422380E-02
    58  5.7000000000000E-01  8.4291067257045E-01 -6.5906328018131E-02
    59  5.8000000000000E-01  8.5554141314037E-01 -7.2109484524717E-02
    60  5.9000000000000E-01  8.6825184733035E-01 -7.8649133509709E-02
    61  6.0000000000000E-01  8.8103759229343E-01 -8.5504236529297E-02
    62  6.1000000000000E-01  8.9389239727176E-01 -9.2650407867219E-02
    63  6.2000000000000E-01  9.0680810985222E-01 -1.0005992170593E-01
    64  6.3000000000000E-01  9.1977465172337E-01 -1.0770173808385E-01
    65  6.4000000000000E-01  9.3278000419956E-01 -1.1554154789736E-01
    66  6.5000000000000E-01  9.4581020373182E-01 -1.2354183710855E-01
    67  6.6000000000000E-01  9.5884934757799E-01 -1.3166197021989E-01
    68  6.7000000000000E-01  9.7187960975506E-01 -1.3985829297531E-01
    69  6.8000000000000E-01  9.8488126734741E-01 -1.4808425414429E-01
    70  6.9000000000000E-01  9.9783273719321E-01 -1.5629054614222E-01
    71  7.0000000000000E-01  1.0107106229203E+00 -1.6442526413652E-01
    72  7.1000000000000E-01  1.0234897722508E+00 -1.7243408318492E-01
    73  7.2000000000000E-01  1.0361433444423E+00 -1.8026045284966E-01
    74  7.3000000000000E-01  1.0486428876809E+00 -1.8784580863098E-01
    75  7.4000000000000E-01  1.0609584261911E+00 -1.9512979946398E-01
    76  7.5000000000000E-01  1.0730585567768E+00 -2.0205053042708E-01
    77  7.6000000000000E-01  1.0849105544569E+00 -2.0854481971656E-01
    78  7.7000000000000E-01  1.0964804868120E+00 -2.1454846885281E-01
    79  7.8000000000000E-01  1.1077333366106E+00 -2.1999654499776E-01
    80  7.9000000000000E-01  1.1186331322386E+00 -2.2482367418242E-01
    81  8.0000000000000E-01  1.1291430854114E+00 -2.2896434416773E-01
    82  8.1000000000000E-01  1.1392257356079E+00 -2.3235321559147E-01
    83  8.2000000000000E-01  1.1488431006258E+00 -2.3492543998994E-01
    84  8.3000000000000E-01  1.1579568326216E+00 -2.3661698322512E-01
    85  8.4000000000000E-01  1.1665283789655E+00 -2.3736495279688E-01
    86  8.5000000000000E-01  1.1745191472096E+00 -2.3710792747588E-01
    87  8.6000000000000E-01  1.1818906734427E+00 -2.3578628765631E-01
    88  8.7000000000000E-01  1.1886047932779E+00 -2.3334254479845E-01
    89  8.8000000000000E-01  1.1946238147023E+00 -2.2972166831050E-01
    90  8.9000000000000E-01  1.1999106919964E+00 -2.2487140820608E-01
    91  9.0000000000000E-01  1.2044291999231E+00 -2.1874261186961E-01
    92  9.1000000000000E-01  1.2081441073717E+00 -2.1128953326552E-01
    93  9.2000000000000E-01  1.2110213496389E+00 -2.0247013294032E-01
    94  9.3000000000000E-01  1.2130281985297E+00 -1.9224636718693E-01
    95  9.4000000000000E-01  1.2141334294571E+00 -1.8058446477141E-01
    96  9.5000000000000E-01  1.2143074847330E+00 -1.6745518965940E-01
    97  9.6000000000000E-01  1.2135226322484E+00 -1.5283408822722E-01
    98  9.7000000000000E-01  1.2117531187572E+00 -1.3670171949687E-01
    99  9.8000000000000E-01  1.2089753169958E+00 -1.1904386699781E-01
   100  9.9000000000000E-01  1.2051678658944E+00 -9.9851730928769E-02
   101  1.0000000000000E+00  1.2003118031586E+00 -7.9122099372238E-02
   102  1.0100000000000E+00  1.1943906895343E+00 -5.6857497399297E-02
   103  1.0200000000000E+00  1.1873907240986E+00 -3.3066312996151E-02
   104  1.0300000000000E+00  1.1793008499578E+00 -7.7628988423940E-03
   105  1.0400000000000E+00  1.1701128497739E+00  1.9032350922831E-02
   106  1.0500000000000E+00  1.1598214305843E+00  4.7292949699921E-02
   107  1.0600000000000E+00  1.1484242974243E+00  7.6986293829641E-02
   108  1.0700000000000E+00  1.1359222153133E+00  1.0807366491152E-01
   109  1.0800000000000E+00  1.1223190592151E+00  1.4051025943039E-01
   110  1.0900000000000E+00  1.1076218516365E+00  1.7424524595370E-01
   111  1.1000000000000E+00  1.0918407875865E+00  2.0922185003043E-01
   112  1.1100000000000E+00  1.0749892466715E+00  2.4537746678958E-01
   113  1.1200000000000E+00  1.0570837921660E+00  2.8264380110094E-01
   114  1.1300000000000E+00  1.0381441569531E+00  3.2094703502523E-01
   115  1.1400000000000E+00  1.0181932162947E+00  3.6020802214463E-01
   116  1.1500000000000E+00  9.9725694744968E-01  4.0034250822968E-01
   117  1.1600000000000E+00  9.7536437622203E-01  4.4126137756365E-01
   118  1.1700000000000E+00  9.5254751058086E-01  4.8287092411430E-01
   119  1.1800000000000E+00  9.2884126155799E-01  5.2507314661220E-01
   120  1.1900000000000E+00  9.0428335168750E-01  5.6776606646941E-01
   121  1.2000000000000E+00  8.7891421131268E-01  6.1084406734962E-01
   122  1.2100000000000E+00  8.5277686314397E-01  6.5419825508312E-01
   123  1.2200000000000E+00  8.2591679550842E-01  6.9771683650817E-01
   124  1.2300000000000E+00  7.9838182478660E-01  7.4128551571332E-01
   125  1.2400000000000E+00  7.7022194758543E-01  7.8478790605613E-01
   126  1.2500000000000E+00  7.4148918324645E-01  8.2810595624029E-01
   127  1.2600000000000E+00  7.1223740733643E-01  8.7112038864875E-01
   128  1.2700000000000E+00  6.8252217681240E-01  9.1371114805339E-01
   129  1.2800000000000E+00  6.5240054759469E-01  9.5575785875318E-01
   130  1.2900000000000E+00  6.2193088532002E-01  9.9714028813419E-01
   131  1.3000000000000E+00  5.9117267008110E-01  1.0377388145947E+00
   132  1.3100000000000E+00  5.6018629599018E-01  1.0774348977387E+00
   133  1.3200000000000E+00  5.2903286643081E-01  1.1161115487116E+00
   134  1.3300000000000E+00  4.9777398588459E-01  1.1536537985322E+00
   135  1.3400000000000E+00  4.6647154923835E-01  1.1899491622652E+00
   136  1.3500000000000E+00  4.3518752949093E-01  1.2248880968818E+00
   137  1.3600000000000E+00  4.0398376478858E-01  1.2583644506665E+00
   138  1.3700000000000E+00  3.7292174572277E-01  1.2902759020529E+00
   139  1.3800000000000E+00  3.4206240382466E-01  1.3205243858033E+00
   140  1.3900000000000E+00  3.1146590218651E-01  1.3490165044923E+00
   141  1.4000000000000E+00  2.8119142913136E-01  1.3756639233105E+00
   142  1.4100000000000E+00  2.5129699583901E-01  1.4003837462671E+00
   143  1.4200000000000E+00  2.2183923881874E-01  1.4230988719470E+00
   144  1.4300000000000E+00  1.9287322809669E-01  1.4437383270630E+00
   145  1.4400000000000E+00  1.6445228195951E-01  1.4622375761371E+00
   146  1.4500000000000E+00  1.3662778906509E-01  1.4785388057479E+00
   147  1.4600000000000E+00  1.0944903869636E-01  1.4925911818937E+00
   148  1.4700000000000E+00  8.2963059895624E-02  1.5043510791393E+00
   149  1.4800000000000E+00  5.7214470174408E-02  1.5137822803420E+00
   150  1.4900000000000E+00  3.2245334448198E-02  1.5208561458860E+00
   151  1.5000000000000E+00  8.0950347963889E-03  1.5255517514928E+00
   152  1.5100000000000E+00 -1.5199848404464E-02  1.5278559938233E+00
   153  1.5200000000000E+00 -3.7605643480304E-02  1.5277636632331E+00
   154  1.5300000000000E+00 -5.9091682155854E-02  1.5252774832007E+00
   155  1.5400000000000E+00 -7.9630381570478E-02  1.5204081161021E+00
   156  1.5500000000000E+00 -9.9197313297569E-02  1.5131741351669E+00
   157  1.5600000000000E+00 -1.1777125911426E-01  1.5036019626101E+00
   158  1.5700000000000E+00 -1.3533425333202E-01  1.4917257740984E+00
   159  1.5800000000000E+00 -1.5187161156340E-01  1.4775873698693E+00
   160  1.5900000000000E+00 -1.6737194586552E-01  1.4612360129832E+00
   161  1.6000000000000E+00 -1.8182716626625E-01  1.4427282353477E+00
   162  1.6100000000000E+00 -1.9523246874432E-01  1.4221276123112E+00
   163  1.6200000000000E+00 -2.0758630979942E-01  1.3995045067734E+00
   164  1.6300000000000E+00 -2.1889036781205E-01  1.3749357839133E+00
   165  1.6400000000000E+00 -2.2914949145608E-01  1.3485044977756E+00
   166  1.6500000000000E+00 -2.3837163548759E-01  1.3202995510970E+00
   167  1.6600000000000E+00 -2.4656778429356E-01  1.2904153298860E+00
   168  1.6700000000000E+00 -2.5375186364074E-01  1.2589513143929E+00
   169  1.6800000000000E+00 -2.5994064112016E-01  1.2260116682246E+00
   170  1.6900000000000E+00 -2.6515361583482E-01  1.1917048074667E+00
   171  1.7000000000000E+00 -2.6941289792672E-01  1.1561429517753E+00
   172  1.7100000000000E+00 -2.7274307858588E-01  1.1194416594886E+00
   173  1.7200000000000E+00 -2.7517109122570E-01  1.0817193488899E+00
   174  1.7300000000000E+00 -2.7672606454792E-01  1.0430968078206E+00
   175  1.7400000000000E+00 -2.7743916825498E-01  1.0036966939002E+00
   176  1.7500000000000E+00 -2.7734345219807E-01  9.6364302765673E-01
   177  1.7600000000000E+00 -2.7647367977563E-01  9.2306068090596E-01
   178  1.7700000000000E+00 -2.7486615641878E-01  8.8207486273927E-01
   179  1.7800000000000E+00 -2.7255855401764E-01  8.4081060549313E-01
   180  1.7900000000000E+00 -2.6958973215545E-01  7.9939225307029E-01
   181  1.8000000000000E+00 -2.6599955702532E-01  7.5794295397027E-01
   182  1.8100000000000E+00 -2.6182871890827E-01  7.1658416136143E-01
   183  1.8200000000000E+00 -2.5711854908992E-01  6.7543514248964E-01
   184  1.8300000000000E+00 -2.5191083708736E-01  6.3461249966932E-01
   185  1.8400000000000E+00 -2.4624764904750E-01  5.9422970504279E-01
   186  1.8500000000000E+00 -2.4017114816308E-01  5.5439665122128E-01
   187  1.8600000000000E+00 -2.3372341793327E-01  5.1521921983916E-01
   188  1.8700000000000E+00 -2.2694628907213E-01  4.7679886995941E-01
   189  1.8800000000000E+00 -2.1988117084006E-01  4.3923224816482E-01
   190  1.8900000000000E+00 -2.1256888754217E-01  4.0261082205901E-01
   191  1.9000000000000E+00 -2.0504952090106E-01  3.6702053877747E-01
   192  1.9100000000000E+00 -1.9736225897283E-01  3.3254150998083E-01
   193  1.9200000000000E+00 -1.8954525223215E-01  2.9924772466516E-01
   194  1.9300000000000E+00 -1.8163547740687E-01  2.6720679098036E-01
   195  1.9400000000000E+00 -1.7366860959359E-01  2.3647970809751E-01
   196  1.9500000000000E+00 -1.6567890313520E-01  2.0712066901150E-01
   197  1.9600000000000E+00 -1.5769908168661E-01  1.7917689500346E-01
   198  1.9700000000000E+00 -1.4976023784178E-01  1.5268850232875E-01
   199  1.9800000000000E+00 -1.4189174263601E-01  1.2768840152614E-01
   200  1.9900000000000E+00 -1.3412116518025E-01  1.0420222957730E-01
   201  2.0000000000000E+00 -1.2647420262464E-01  8.2248314978026E-02
   202  2.0100000000000E+00 -1.1897462058889E-01  6.1837675613144E-02
   203  2.0200000000000E+00 -1.1164420413659E-01  4.2974049159551E-02
   204  2.0300000000000E+00 -1.0450271930974E-01  2.5653955573184E-02
   205  2.0400000000000E+00 -9.7567885183223E-02  9.8667910609264E-03
   206  2.0500000000000E+00 -9.0855356334994E-02 -4.4050472341188E-03
   207  2.0600000000000E+00 -8.4378715573918E-02 -1.7186006751018E-02
   208  2.0700000000000E+00 -7.8149476709074E-02 -2.8507196303798E-02
   209  2.0800000000000E+00 -7.2177097027519E-02 -3.8406175626974E-02
   210  2.0900000000000E+00 -6.6468999126671E-02 -4.6926719093250E-02
   211  2.1000000000000E+00 -6.1030605144615E-02 -5.4118540953875E-02
   212  2.1100000000000E+00 -5.5865364499423E-02 -6.0037061250886E-02
   213  2.1200000000000E+00 -5.0974841446491E-02 -6.4742930887539E-02
   214  2.1300000000000E+00 -4.6358903223363E-02 -6.8301151328361E-02
   215  2.1400000000000E+00 -4.2015923776908E-02 -7.0780177399548E-02
   216  2.1500000000000E+00 -3.7942894049168E-02 -7.2251445680870E-02
   217  2.1600000000000E+00 -3.4135519110365E-02 -7.2788973411477E-02
   218  2.1700000000000E+00 -3.0588327582782E-02 -7.2468913921438E-02
   219  2.1800000000000E+00 -2.7294783286091E-02 -7.1369112880746E-02
   220  2.1900000000000E+00 -2.4247400066811E-02 -6.9568659776920E-02
   221  2.2000000000000E+00 -2.1437859200980E-02 -6.7147436346522E-02
   222  2.2100000000000E+00 -1.8857128525430E-02 -6.4185664626772E-02
   223  2.2200000000000E+00 -1.6495582523330E-02 -6.0763456963001E-02
   224  2.2300000000000E+00 -1.4343122589085E-02 -5.6960370297999E-02
   225  2.2400000000000E+00 -1.2389296221483E-02 -5.2854968029787E-02
   226  2.2500000000000E+00 -1.0623416573158E-02 -4.8524387202450E-02
   227  2.2600000000000E+00 -9.0346861164089E-03 -4.4043904040791E-02
   228  2.2700000000000E+00 -7.6122759997158E-03 -3.9486597317142E-02
   229  2.2800000000000E+00 -6.3454800662200E-03 -3.4922868728597E-02
   230  2.2900000000000E+00 -5.2242287007679E-03 -3.0419228404968E-02
   231  2.3000000000000E+00 -4.2400306078186E-03 -2.6036205069912E-02
   232  2.3100000000000E+00 -3.3833412687055E-03 -2.1833614578424E-02
   233  2.3200000000000E+00 -2.6441188021234E-03 -1.7869300410558E-02
   234  2.3300000000000E+00 -2.0131644133039E-03 -1.4196272343997E-02
   235  2.3400000000000E+00 -1.4818979946536E-03 -1.0863058160327E-02
   236  2.3500000000000E+00 -1.0424941491358E-03 -7.9133301415331E-03
   237  2.3600000000000E+00 -6.8794019872857E-04 -5.3857028062779E-03
   238  2.3700000000000E+00 -4.1224948626225E-04 -3.3148062430402E-03
   239  2.3800000000000E+00 -2.0926747981211E-04 -1.7204333053020E-03
   240  2.3900000000000E+00 -7.6407581530721E-05 -6.3918976449733E-04
   241  2.4000000000000E+00 -1.2808816845455E-05 -1.0816257804215E-04
   242  2.4100000000000E+00  3.0367487853071E-06  2.6710448129781E-05
   243  2.4200000000000E+00 -1.6944021388959E-08 -1.4645647283083E-07
   244  2.43  0.  0.
   245  2.44  0.  0.
   246  2.45  0.  0.
   247  2.46  0.  0.
   248  2.47  0.  0.
   249  2.48  0.  0.
   250  2.49  0.  0.
   251  2.50  0.  0.
   252  2.51  0.  0.
   253  2.52  0.  0.
   254  2.53  0.  0.
   255  2.54  0.  0.
   256  2.55  0.  0.
   257  2.56  0.  0.
   258  2.57  0.  0.
   259  2.58  0.  0.
   260  2.59  0.  0.
   261  2.60  0.  0.
   262  2.61  0.  0.
   263  2.62  0.  0.
   264  2.63  0.  0.
   265  2.64  0.  0.
   266  2.65  0.  0.
   267  2.66  0.  0.
   268  2.67  0.  0.
   269  2.68  0.  0.
   270  2.69  0.  0.
   271  2.70  0.  0.
   272  2.71  0.  0.
   273  2.72  0.  0.
   274  2.73  0.  0.
   275  2.74  0.  0.
   276  2.75  0.  0.
   277  2.76  0.  0.
   278  2.77  0.  0.
   279  2.78  0.  0.
   280  2.79  0.  0.
   281  2.80  0.  0.
   282  2.81  0.  0.
   283  2.82  0.  0.
   284  2.83  0.  0.
   285  2.84  0.  0.
   286  2.85  0.  0.
   287  2.86  0.  0.
   288  2.87  0.  0.
   289  2.88  0.  0.
   290  2.89  0.  0.
   291  2.90  0.  0.
   292  2.91  0.  0.
   293  2.92  0.  0.
   294  2.93  0.  0.
   295  2.94  0.  0.
   296  2.95  0.  0.
   297  2.96  0.  0.
   298  2.97  0.  0.
   299  2.98  0.  0.
   300  2.99  0.  0.
   301  3.00  0.  0.
   302  3.01  0.  0.
   303  3.02  0.  0.
   304  3.03  0.  0.
   305  3.04  0.  0.
   306  3.05  0.  0.
   307  3.06  0.  0.
   308  3.07  0.  0.
   309  3.08  0.  0.
   310  3.09  0.  0.
   311  3.10  0.  0.
   312  3.11  0.  0.
   313  3.12  0.  0.
   314  3.13  0.  0.
   315  3.14  0.  0.
   316  3.15  0.  0.
   317  3.16  0.  0.
   318  3.17  0.  0.
   319  3.18  0.  0.
   320  3.19  0.  0.
   321  3.20  0.  0.
   322  3.21  0.  0.
   323  3.22  0.  0.
   324  3.23  0.  0.
   325  3.24  0.  0.
   326  3.25  0.  0.
   327  3.26  0.  0.
   328  3.27  0.  0.
   329  3.28  0.  0.
   330  3.29  0.  0.
   331  3.30  0.  0.
   332  3.31  0.  0.
   333  3.32  0.  0.
   334  3.33  0.  0.
   335  3.34  0.  0.
   336  3.35  0.  0.
   337  3.36  0.  0.
   338  3.37  0.  0.
   339  3.38  0.  0.
   340  3.39  0.  0.
   341  3.40  0.  0.
   342  3.41  0.  0.
   343  3.42  0.  0.
   344  3.43  0.  0.
   345  3.44  0.  0.
   346  3.45  0.  0.
   347  3.46  0.  0.
   348  3.47  0.  0.
   349  3.48  0.  0.
   350  3.49  0.  0.
   351  3.50  0.  0.
   352  3.51  0.  0.
   353  3.52  0.  0.
   354  3.53  0.  0.
   355  3.54  0.  0.
   356  3.55  0.  0.
   357  3.56  0.  0.
   358  3.57  0.  0.
   359  3.58  0.  0.
   360  3.59  0.  0.
   361  3.60  0.  0.
   362  3.61  0.  0.
   363  3.62  0.  0.
   364  3.63  0.  0.
   365  3.64  0.  0.
   366  3.65  0.  0.
   367  3.66  0.  0.
   368  3.67  0.  0.
   369  3.68  0.  0.
   370  3.69  0.  0.
   371  3.70  0.  0.
   372  3.71  0.  0.
   373  3.72  0.  0.
   374  3.73  0.  0.
   375  3.74  0.  0.
   376  3.75  0.  0.
   377  3.76  0.  0.
   378  3.77  0.  0.
   379  3.78  0.  0.
   380  3.79  0.  0.
   381  3.80  0.  0.
   382  3.81  0.  0.
   383  3.82  0.  0.
   384  3.83  0.  0.
   385  3.84  0.  0.
   386  3.85  0.  0.
   387  3.86  0.  0.
   388  3.87  0.  0.
   389  3.88  0.  0.
   390  3.89  0.  0.
   391  3.90  0.  0.
   392  3.91  0.  0.
   393  3.92  0.  0.
   394  3.93  0.  0.
   395  3.94  0.  0.
   396  3.95  0.  0.
   397  3.96  0.  0.
   398  3.97  0.  0.
   399  3.98  0.  0.
   400  3.99  0.  0.
   401  4.00  0.  0.
   402  4.01  0.  0.
   403  4.02  0.  0.
   404  4.03  0.  0.
   405  4.04  0.  0.
   406  4.05  0.  0.
   407  4.06  0.  0.
   408  4.07  0.  0.
   409  4.08  0.  0.
   410  4.09  0.  0.
   411  4.10  0.  0.
   412  4.11  0.  0.
   413  4.12  0.  0.
   414  4.13  0.  0.
   415  4.14  0.  0.
   416  4.15  0.  0.
   417  4.16  0.  0.
   418  4.17  0.  0.
   419  4.18  0.  0.
   420  4.19  0.  0.
   421  4.20  0.  0.
   422  4.21  0.  0.
   423  4.22  0.  0.
   424  4.23  0.  0.
   425  4.24  0.  0.
   426  4.25  0.  0.
   427  4.26  0.  0.
   428  4.27  0.  0.
   429  4.28  0.  0.
   430  4.29  0.  0.
   431  4.30  0.  0.
   432  4.31  0.  0.
   433  4.32  0.  0.
   434  4.33  0.  0.
   435  4.34  0.  0.
   436  4.35  0.  0.
   437  4.36  0.  0.
   438  4.37  0.  0.
   439  4.38  0.  0.
   440  4.39  0.  0.
   441  4.40  0.  0.
   442  4.41  0.  0.
   443  4.42  0.  0.
   444  4.43  0.  0.
   445  4.44  0.  0.
   446  4.45  0.  0.
   447  4.46  0.  0.
   448  4.47  0.  0.
   449  4.48  0.  0.
   450  4.49  0.  0.
   451  4.50  0.  0.
   452  4.51  0.  0.
   453  4.52  0.  0.
   454  4.53  0.  0.
   455  4.54  0.  0.
   456  4.55  0.  0.
   457  4.56  0.  0.
   458  4.57  0.  0.
   459  4.58  0.  0.
   460  4.59  0.  0.
   461  4.60  0.  0.
   462  4.61  0.  0.
   463  4.62  0.  0.
   464  4.63  0.  0.
   465  4.64  0.  0.
   466  4.65  0.  0.
   467  4.66  0.  0.
   468  4.67  0.  0.
   469  4.68  0.  0.
   470  4.69  0.  0.
   471  4.70  0.  0.
   472  4.71  0.  0.
   473  4.72  0.  0.
   474  4.73  0.  0.
   475  4.74  0.  0.
   476  4.75  0.  0.
   477  4.76  0.  0.
   478  4.77  0.  0.
   479  4.78  0.  0.
   480  4.79  0.  0.
   481  4.80  0.  0.
   482  4.81  0.  0.
   483  4.82  0.  0.
   484  4.83  0.  0.
   485  4.84  0.  0.
   486  4.85  0.  0.
   487  4.86  0.  0.
   488  4.87  0.  0.
   489  4.88  0.  0.
   490  4.89  0.  0.
   491  4.90  0.  0.
   492  4.91  0.  0.
   493  4.92  0.  0.
   494  4.93  0.  0.
   495  4.94  0.  0.
   496  4.95  0.  0.
   497  4.96  0.  0.
   498  4.97  0.  0.
   499  4.98  0.  0.
   500  4.99  0.  0.
   501  5.00  0.  0.
   502  5.01  0.  0.
   503  5.02  0.  0.
   504  5.03  0.  0.
   505  5.04  0.  0.
   506  5.05  0.  0.
   507  5.06  0.  0.
   508  5.07  0.  0.
   509  5.08  0.  0.
   510  5.09  0.  0.
   511  5.10  0.  0.
   512  5.11  0.  0.
   513  5.12  0.  0.
   514  5.13  0.  0.
   515  5.14  0.  0.
   516  5.15  0.  0.
   517  5.16  0.  0.
   518  5.17  0.  0.
   519  5.18  0.  0.
   520  5.19  0.  0.
   521  5.20  0.  0.
   522  5.21  0.  0.
   523  5.22  0.  0.
   524  5.23  0.  0.
   525  5.24  0.  0.
   526  5.25  0.  0.
   527  5.26  0.  0.
   528  5.27  0.  0.
   529  5.28  0.  0.
   530  5.29  0.  0.
   531  5.30  0.  0.
   532  5.31  0.  0.
   533  5.32  0.  0.
   534  5.33  0.  0.
   535  5.34  0.  0.
   536  5.35  0.  0.
   537  5.36  0.  0.
   538  5.37  0.  0.
   539  5.38  0.  0.
   540  5.39  0.  0.
   541  5.40  0.  0.
   542  5.41  0.  0.
   543  5.42  0.  0.
   544  5.43  0.  0.
   545  5.44  0.  0.
   546  5.45  0.  0.
   547  5.46  0.  0.
   548  5.47  0.  0.
   549  5.48  0.  0.
   550  5.49  0.  0.
   551  5.50  0.  0.
   552  5.51  0.  0.
   553  5.52  0.  0.
   554  5.53  0.  0.
   555  5.54  0.  0.
   556  5.55  0.  0.
   557  5.56  0.  0.
   558  5.57  0.  0.
   559  5.58  0.  0.
   560  5.59  0.  0.
   561  5.60  0.  0.
   562  5.61  0.  0.
   563  5.62  0.  0.
   564  5.63  0.  0.
   565  5.64  0.  0.
   566  5.65  0.  0.
   567  5.66  0.  0.
   568  5.67  0.  0.
   569  5.68  0.  0.
   570  5.69  0.  0.
   571  5.70  0.  0.
   572  5.71  0.  0.
   573  5.72  0.  0.
   574  5.73  0.  0.
   575  5.74  0.  0.
   576  5.75  0.  0.
   577  5.76  0.  0.
   578  5.77  0.  0.
   579  5.78  0.  0.
   580  5.79  0.  0.
   581  5.80  0.  0.
   582  5.81  0.  0.
   583  5.82  0.  0.
   584  5.83  0.  0.
   585  5.84  0.  0.
   586  5.85  0.  0.
   587  5.86  0.  0.
   588  5.87  0.  0.
   589  5.88  0.  0.
   590  5.89  0.  0.
   591  5.90  0.  0.
   592  5.91  0.  0.
   593  5.92  0.  0.
   594  5.93  0.  0.
   595  5.94  0.  0.
   596  5.95  0.  0.
   597  5.96  0.  0.
   598  5.97  0.  0.
   599  5.98  0.  0.
   600  5.99  0.  0.
   1                        -2.0418490843312E+00  1.8571399654238E+00  7.3132560608972E-02
     1  0.0000000000000E+00 -6.8735211966597E-11  2.7121414922920E-11 -2.7181929276865E-10
     2  1.0000000000000E-02  5.2513855593337E-04  1.6855378187587E-05  1.2802108313752E-04
     3  2.0000000000000E-02  2.1000887975341E-03  6.7490370305428E-05  5.1301783378898E-04
     4  3.0000000000000E-02  4.7234512770106E-03  1.5211271944376E-04  1.1577758817838E-03
     5  4.0000000000000E-02  8.3928830540568E-03  2.7107255095982E-04  2.0668885095214E-03
     6  5.0000000000000E-02  1.3105082033237E-02  4.2486815190048E-04  3.2466830101395E-03
     7  6.0000000000000E-02  1.8855765291959E-02  6.1415396088755E-04  4.7051186027958E-03
     8  7.0000000000000E-02  2.5639641651941E-02  8.3975066827163E-04  6.4516569078981E-03
     9  8.0000000000000E-02  3.3450378815822E-02  1.1026572992389E-03  8.4971062569399E-03
    10  9.0000000000000E-02  4.2280565456288E-02  1.4040651266414E-03  1.0853441371496E-02
    11  1.0000000000000E-01  5.2121668707586E-02  1.7453732357528E-03  1.3533600192693E-02
    12  1.1000000000000E-01  6.2963987568149E-02  2.1282055401645E-03  1.6551259873599E-02
    13  1.2000000000000E-01  7.4796602777205E-02  2.5544290269062E-03  1.9920594160044E-02
    14  1.3000000000000E-01  8.7607323777927E-02  3.0261729897042E-03  2.3656014579214E-02
    15  1.4000000000000E-01  1.0138263342391E-01  3.5458489923183E-03  2.7771898027429E-02
    16  1.5000000000000E-01  1.1610763112440E-01  4.1161712892786E-03  3.2282303497976E-02
    17  1.6000000000000E-01  1.3176597515636E-01  4.7401774191779E-03  3.7200680814817E-02
    18  1.7000000000000E-01  1.4833982489805E-01  5.4212486761287E-03  4.2539574337662E-02
    19  1.8000000000000E-01  1.6580978375826E-01  6.1631301581505E-03  4.8310324676914E-02
    20  1.9000000000000E-01  1.8415484358913E-01  6.9699500871477E-03  5.4522771503394E-02
    21  2.0000000000000E-01  2.0335233137630E-01  7.8462380939032E-03  6.1184960555957E-02
    22  2.1000000000000E-01  2.2337785899978E-01  8.7969421630886E-03  6.8302857941025E-02
    23  2.2000000000000E-01  2.4420527685157E-01  9.8274439377570E-03  7.5880074780671E-02
    24  2.3000000000000E-01  2.6580663208137E-01  1.0943572090038E-02  8.3917605201388E-02
    25  2.4000000000000E-01  2.8815213222066E-01  1.2151613474861E-02  9.2413580563375E-02
    26  2.5000000000000E-01  3.1121011490744E-01  1.3458321796299E-02  1.0136304271206E-01
    27  2.6000000000000E-01  3.3494702439968E-01  1.4870923531567E-02  1.1075773888937E-01
    28  2.7000000000000E-01  3.5932739552476E-01  1.6397120875631E-02  1.2058594077406E-01
    29  2.8000000000000E-01  3.8431384566575E-01  1.8045091489732E-02  1.3083228992895E-01
    30  2.9000000000000E-01  4.0986707533343E-01  1.9823484859648E-02  1.4147767171987E-01
    31  3.0000000000000E-01  4.3594587781560E-01  2.1741415094138E-02  1.5249911953888E-01
    32  3.1000000000000E-01  4.6250715833326E-01  2.3808450020437E-02  1.6386975091330E-01
    33  3.2000000000000E-01  4.8950596306732E-01  2.6034596461805E-02  1.7555873681642E-01
    34  3.3000000000000E-01  5.1689551834933E-01  2.8430281611627E-02  1.8753130521564E-01
    35  3.4000000000000E-01  5.4462728023696E-01  3.1006330449275E-02  1.9974877960313E-01
    36  3.5000000000000E-01  5.7265099461904E-01  3.3773939174588E-02  2.1216865295436E-01
    37  3.6000000000000E-01  6.0091476791768E-01  3.6744644670161E-02  2.2474469725394E-01
    38  3.7000000000000E-01  6.2936514837572E-01  3.9930290033341E-02  2.3742710841888E-01
    39  3.8000000000000E-01  6.5794721783814E-01  4.3342986252747E-02  2.5016268613897E-01
    40  3.9000000000000E-01  6.8660469385633E-01  4.6995070136866E-02  2.6289504784508E-01
    41  4.0000000000000E-01  7.1528004186451E-01  5.0899058634658E-02  2.7556487571196E-01
    42  4.1000000000000E-01  7.4391459709976E-01  5.5067599719778E-02  2.8811019530465E-01
    43  4.2000000000000E-01  7.7244869586051E-01  5.9513420040820E-02  3.0046668418962E-01
    44  4.3000000000000E-01  8.0082181562454E-01  6.4249269569530E-02  3.1256800855603E-01
    45  4.4000000000000E-01  8.2897272347646E-01  6.9287863507087E-02  3.2434618563109E-01
    46  4.5000000000000E-01  8.5683963222736E-01  7.4641821734998E-02  3.3573196942903E-01
    47  4.6000000000000E-01  8.8436036354601E-01  8.0323606121701E-02  3.4665525714727E-01
    48  4.7000000000000E-01  9.1147251736230E-01  8.6345456018384E-02  3.5704551331916E-01
    49  4.8000000000000E-01  9.3811364675024E-01  9.2719322297624E-02  3.6683220865050E-01
    50  4.9000000000000E-01  9.6422143744966E-01  9.9456800306092E-02  3.7594527030999E-01
    51  5.0000000000000E-01  9.8973389114391E-01  1.0656906211747E-01  3.8431554031236E-01
    52  5.1000000000000E-01  1.0145895115749E+00  1.1406678848394E-01  3.9187523852889E-01
    53  5.2000000000000E-01  1.0387274925479E+00  1.2196010089383E-01  3.9855842678449E-01
    54  5.3000000000000E-01  1.0620879068559E+00  1.3025849414918E-01  4.0430147045351E-01