Pb    ONCVPSP-4.0.1  r_core=   2.40551   2.40551   2.10888
     82.0000     14.0000      231019    zatom,zion,pspd
     8       2   2     4   600     0    pspcod,pspxc,lmax,lloc,mmax,r2well
  5.99000000  6.00000000  0.00000000    rchrg fchrg qchrg
     2     2     2     0     0    nproj
     1     1           extension_switch
   0                         5.2475705501340E+00  8.4634079058785E-01
     1  0.0000000000000E+00 -1.2082224110088E-11  2.3517295749675E-11
     2  1.0000000000000E-02  1.9313661825144E-02 -2.5153246567082E-03
     3  2.0000000000000E-02  3.8608093125076E-02 -5.0131433604742E-03
     4  3.0000000000000E-02  5.7864167446161E-02 -7.4761053556901E-03
     5  4.0000000000000E-02  7.7062965880366E-02 -9.8871692280894E-03
     6  5.0000000000000E-02  9.6185879347234E-02 -1.2229754948050E-02
     7  6.0000000000000E-02  1.1521470909540E-01 -1.4487892777676E-02
     8  7.0000000000000E-02  1.3413176484435E-01 -1.6646368023832E-02
     9  8.0000000000000E-02  1.5291995999911E-01 -1.8690860642852E-02
    10  9.0000000000000E-02  1.7156290338573E-01 -2.0608078731671E-02
    11  1.0000000000000E-01  1.9004498697290E-01 -2.2385884974876E-02
    12  1.1000000000000E-01  2.0835146906608E-01 -2.4013415157049E-02
    13  1.2000000000000E-01  2.2646855248316E-01 -2.5481187894899E-02
    14  1.3000000000000E-01  2.4438345724710E-01 -2.6781204793676E-02
    15  1.4000000000000E-01  2.6208448735870E-01 -2.7907040286978E-02
    16  1.5000000000000E-01  2.7956109124336E-01 -2.8853920478077E-02
    17  1.6000000000000E-01  2.9680391549847E-01 -2.9618790363978E-02
    18  1.7000000000000E-01  3.1380485160250E-01 -3.0200368890235E-02
    19  1.8000000000000E-01  3.3055707528354E-01 -3.0599191354828E-02
    20  1.9000000000000E-01  3.4705507828307E-01 -3.0817638752652E-02
    21  2.0000000000000E-01  3.6329469229063E-01 -3.0859953728157E-02
    22  2.1000000000000E-01  3.7927310486565E-01 -3.0732242882008E-02
    23  2.2000000000000E-01  3.9498886720493E-01 -3.0442465257584E-02
    24  2.3000000000000E-01  4.1044189365743E-01 -3.0000406915007E-02
    25  2.4000000000000E-01  4.2563345293101E-01 -2.9417641582788E-02
    26  2.5000000000000E-01  4.4056615098059E-01 -2.8707477460611E-02
    27  2.6000000000000E-01  4.5524390561106E-01 -2.7884890330116E-02
    28  2.7000000000000E-01  4.6967191287290E-01 -2.6966443213777E-02
    29  2.8000000000000E-01  4.8385660537267E-01 -2.5970192904364E-02
    30  2.9000000000000E-01  4.9780560266438E-01 -2.4915583768814E-02
    31  3.0000000000000E-01  5.1152765393106E-01 -2.3823329310124E-02
    32  3.1000000000000E-01  5.2503257320813E-01 -2.2715282048397E-02
    33  3.2000000000000E-01  5.3833116744193E-01 -2.1614292357727E-02
    34  3.3000000000000E-01  5.5143515771642E-01 -2.0544056967647E-02
    35  3.4000000000000E-01  5.6435709402037E-01 -1.9528957907299E-02
    36  3.5000000000000E-01  5.7711026396395E-01 -1.8593892735836E-02
    37  3.6000000000000E-01  5.8970859588924E-01 -1.7764096963914E-02
    38  3.7000000000000E-01  6.0216655685223E-01 -1.7064959628417E-02
    39  3.8000000000000E-01  6.1449904598504E-01 -1.6521833034677E-02
    40  3.9000000000000E-01  6.2672128377564E-01 -1.6159837727837E-02
    41  4.0000000000000E-01  6.3884869782881E-01 -1.6003663796899E-02
    42  4.1000000000000E-01  6.5089680569518E-01 -1.6077369651484E-02
    43  4.2000000000000E-01  6.6288109537645E-01 -1.6404179441520E-02
    44  4.3000000000000E-01  6.7481690413209E-01 -1.7006280314869E-02
    45  4.4000000000000E-01  6.8671929622826E-01 -1.7904620725771E-02
    46  4.5000000000000E-01  6.9860294028086E-01 -1.9118711018927E-02
    47  4.6000000000000E-01  7.1048198685327E-01 -2.0666427519156E-02
    48  4.7000000000000E-01  7.2236994697480E-01 -2.2563821355268E-02
    49  4.8000000000000E-01  7.3427957224730E-01 -2.4824933238635E-02
    50  4.9000000000000E-01  7.4622273720641E-01 -2.7461615402089E-02
    51  5.0000000000000E-01  7.5821032459886E-01 -3.0483361883425E-02
    52  5.1000000000000E-01  7.7025211422910E-01 -3.3897148309450E-02
    53  5.2000000000000E-01  7.8235667601716E-01 -3.7707282301838E-02
    54  5.3000000000000E-01  7.9453126789465E-01 -4.1915265584763E-02
    55  5.4000000000000E-01  8.0678173914772E-01 -4.6519668826666E-02
    56  5.5000000000000E-01  8.1911243979449E-01 -5.1516020194908E-02
    57  5.6000000000000E-01  8.3152613656011E-01 -5.6896708542162E-02
    58  5.7000000000000E-01  8.4402393598482E-01 -6.2650902078239E-02
    59  5.8000000000000E-01  8.5660521517029E-01 -6.8764483309952E-02
    60  5.9000000000000E-01  8.6926756063594E-01 -7.5220000956028E-02
    61  6.0000000000000E-01  8.8200671572132E-01 -8.1996639463085E-02
    62  6.1000000000000E-01  8.9481653693210E-01 -8.9070206663675E-02
    63  6.2000000000000E-01  9.0768895958634E-01 -9.6413140028270E-02
    64  6.3000000000000E-01  9.2061397307511E-01 -1.0399453187034E-01
    65  6.4000000000000E-01  9.3357960600624E-01 -1.1178017376766E-01
    66  6.5000000000000E-01  9.4657192145378E-01 -1.1973262036438E-01
    67  6.6000000000000E-01  9.5957502248709E-01 -1.2781127261767E-01
    68  6.7000000000000E-01  9.7257106810440E-01 -1.3597248045010E-01
    69  6.8000000000000E-01  9.8554029964479E-01 -1.4416966466509E-01
    70  6.9000000000000E-01  9.9846107770115E-01 -1.5235345787840E-01
    71  7.0000000000000E-01  1.0113099295047E+00 -1.6047186411403E-01
    72  7.1000000000000E-01  1.0240616066992E+00 -1.6847043660855E-01
    73  7.2000000000000E-01  1.0366891533702E+00 -1.7629247326469E-01
    74  7.3000000000000E-01  1.0491639841433E+00 -1.8387922909338E-01
    75  7.4000000000000E-01  1.0614559721120E+00 -1.9117014488318E-01
    76  7.5000000000000E-01  1.0735335463057E+00 -1.9810309123947E-01
    77  7.6000000000000E-01  1.0853637983573E+00 -2.0461462704127E-01
    78  7.7000000000000E-01  1.0969125979827E+00 -2.1064027127310E-01
    79  7.8000000000000E-01  1.1081447168325E+00 -2.1611478710347E-01
    80  7.9000000000000E-01  1.1190239602367E+00 -2.2097247699916E-01
    81  8.0000000000000E-01  1.1295133063123E+00 -2.2514748758886E-01
    82  8.1000000000000E-01  1.1395750518683E+00 -2.2857412291800E-01
    83  8.2000000000000E-01  1.1491709644981E+00 -2.3118716467230E-01
    84  8.3000000000000E-01  1.1582624402158E+00 -2.3292219788876E-01
    85  8.4000000000000E-01  1.1668106659576E+00 -2.3371594062143E-01
    86  8.5000000000000E-01  1.1747767862393E+00 -2.3350657598466E-01
    87  8.6000000000000E-01  1.1821220732323E+00 -2.3223408495978E-01
    88  8.7000000000000E-01  1.1888080994974E+00 -2.2984057832166E-01
    89  8.8000000000000E-01  1.1947969125931E+00 -2.2627062602092E-01
    90  8.9000000000000E-01  1.2000512107612E+00 -2.2147158234426E-01
    91  9.0000000000000E-01  1.2045345188752E+00 -2.1539390517082E-01
    92  9.1000000000000E-01  1.2082113638294E+00 -2.0799146764704E-01
    93  9.2000000000000E-01  1.2110474485431E+00 -1.9922186061434E-01
    94  9.3000000000000E-01  1.2130098237477E+00 -1.8904668414599E-01
    95  9.4000000000000E-01  1.2140670567328E+00 -1.7743182657878E-01
    96  9.5000000000000E-01  1.2141893962288E+00 -1.6434772946430E-01
    97  9.6000000000000E-01  1.2133489326183E+00 -1.4976963691111E-01
    98  9.7000000000000E-01  1.2115197526799E+00 -1.3367782784485E-01
    99  9.8000000000000E-01  1.2086780880903E+00 -1.1605782977678E-01
   100  9.9000000000000E-01  1.2048024569289E+00 -9.6900612743025E-02
   101  1.0000000000000E+00  1.1998737974591E+00 -7.6202762155550E-02
   102  1.0100000000000E+00  1.1938755934906E+00 -5.3966629393063E-02
   103  1.0200000000000E+00  1.1867939906573E+00 -3.0200459053267E-02
   104  1.0300000000000E+00  1.1786179029880E+00 -4.9184918882202E-03
   105  1.0400000000000E+00  1.1693391091837E+00  2.1858957448984E-02
   106  1.0500000000000E+00  1.1589523380613E+00  5.0105448606087E-02
   107  1.0600000000000E+00  1.1474553426694E+00  7.9788390324457E-02
   108  1.0700000000000E+00  1.1348489626326E+00  1.1086904234357E-01
   109  1.0800000000000E+00  1.1211371743317E+00  1.4330254481160E-01
   110  1.0900000000000E+00  1.1063271285813E+00  1.7703797546740E-01
   111  1.1000000000000E+00  1.0904291755256E+00  2.1201843472662E-01
   112  1.1100000000000E+00  1.0734568765265E+00  2.4818115867052E-01
   113  1.1200000000000E+00  1.0554270028830E+00  2.8545765979947E-01
   114  1.1300000000000E+00  1.0363595212773E+00  3.2377389527699E-01
   115  1.1400000000000E+00  1.0162775659082E+00  3.6305046225234E-01
   116  1.1500000000000E+00  9.9520739733198E-01  4.0320281971394E-01
   117  1.1600000000000E+00  9.7317834809532E-01  4.4414153618990E-01
   118  1.1700000000000E+00  9.5022275530656E-01  4.8577256247935E-01
   119  1.1800000000000E+00  9.2637588035399E-01  5.2799752846687E-01
   120  1.1900000000000E+00  9.0167581604110E-01  5.7071406294596E-01
   121  1.2000000000000E+00  8.7616338146984E-01  6.1381613525299E-01
   122  1.2100000000000E+00  8.4988200506130E-01  6.5719441739582E-01
   123  1.2200000000000E+00  8.2287759616175E-01  7.0073666524704E-01
   124  1.2300000000000E+00  7.9519840573708E-01  7.4432811726522E-01
   125  1.2400000000000E+00  7.6689487671245E-01  7.8785190910670E-01
   126  1.2500000000000E+00  7.3801948456505E-01  8.3118950239687E-01
   127  1.2600000000000E+00  7.0862656882617E-01  8.7422112584482E-01
   128  1.2700000000000E+00  6.7877215619406E-01  9.1682622680689E-01
   129  1.2800000000000E+00  6.4851377600129E-01  9.5888393133655E-01
   130  1.2900000000000E+00  6.1791026881874E-01  1.0002735106983E+00
   131  1.3000000000000E+00  5.8702158901343E-01  1.0408748522733E+00
   132  1.3100000000000E+00  5.5590860210845E-01  1.0805689327431E+00
   133  1.3200000000000E+00  5.2463287782036E-01  1.1192382914106E+00
   134  1.3300000000000E+00  4.9325647967176E-01  1.1567675014937E+00
   135  1.3400000000000E+00  4.6184175209609E-01  1.1930436372218E+00
   136  1.3500000000000E+00  4.3045110596483E-01  1.2279567345650E+00
   137  1.3600000000000E+00  3.9914680347744E-01  1.2614002434382E+00
   138  1.3700000000000E+00  3.6799074335895E-01  1.2932714692467E+00
   139  1.3800000000000E+00  3.3704424731044E-01  1.3234720016729E+00
   140  1.3900000000000E+00  3.0636784865350E-01  1.3519081286503E+00
   141  1.4000000000000E+00  2.7602108410023E-01  1.3784912335229E+00
   142  1.4100000000000E+00  2.4606228956737E-01  1.4031381734582E+00
   143  1.4200000000000E+00  2.1654840093436E-01  1.4257716372543E+00
   144  1.4300000000000E+00  1.8753476062285E-01  1.4463204807691E+00
   145  1.4400000000000E+00  1.5907493084793E-01  1.4647200382939E+00
   146  1.4500000000000E+00  1.3122051436030E-01  1.4809124082981E+00
   147  1.4600000000000E+00  1.0402098346298E-01  1.4948467120830E+00
   148  1.4700000000000E+00  7.7523518047141E-02  1.5064793240054E+00
   149  1.4800000000000E+00  5.1772853348503E-02  1.5157740720577E+00
   150  1.4900000000000E+00  2.6811138079206E-02  1.5227024077269E+00
   151  1.5000000000000E+00  2.6778035405644E-03  1.5272435441949E+00
   152  1.5100000000000E+00 -2.0590555731023E-02  1.5293845620903E+00
   153  1.5200000000000E+00 -4.2960289287947E-02  1.5291204821521E+00
   154  1.5300000000000E+00 -6.4400785626104E-02  1.5264543043208E+00
   155  1.5400000000000E+00 -8.4884554191691E-02  1.5213970129306E+00
   156  1.5500000000000E+00 -1.0438729422317E-01  1.5139675478393E+00
   157  1.5600000000000E+00 -1.2288795017526E-01  1.5041927414909E+00
   158  1.5700000000000E+00 -1.4036875353614E-01  1.4921072220731E+00
   159  1.5800000000000E+00 -1.5681525091517E-01  1.4777532830937E+00
   160  1.5900000000000E+00 -1.7221631834398E-01  1.4611807198601E+00
   161  1.6000000000000E+00 -1.8656416180043E-01  1.4424466335098E+00
   162  1.6100000000000E+00 -1.9985430403106E-01  1.4216152033963E+00
   163  1.6200000000000E+00 -2.1208555781280E-01  1.3987574287888E+00
   164  1.6300000000000E+00 -2.2325998586010E-01  1.3739508409946E+00
   165  1.6400000000000E+00 -2.3338284764644E-01  1.3472791871596E+00
   166  1.6500000000000E+00 -2.4246253347172E-01  1.3188320871397E+00
   167  1.6600000000000E+00 -2.5051048616676E-01  1.2887046649707E+00
   168  1.6700000000000E+00 -2.5754111088427E-01  1.2569971565882E+00
   169  1.6800000000000E+00 -2.6357167348084E-01  1.2238144955681E+00
   170  1.6900000000000E+00 -2.6862218804748E-01  1.1892658787660E+00
   171  1.7000000000000E+00 -2.7271529419548E-01  1.1534643138354E+00
   172  1.7100000000000E+00 -2.7587612475085E-01  1.1165261506923E+00
   173  1.7200000000000E+00 -2.7813216455317E-01  1.0785705990757E+00
   174  1.7300000000000E+00 -2.7951310109382E-01  1.0397192344222E+00
   175  1.7400000000000E+00 -2.8005066776321E-01  1.0000954943295E+00
   176  1.7500000000000E+00 -2.7977848050760E-01  9.5982416793271E-01
   177  1.7600000000000E+00 -2.7873186872262E-01  9.1903088054915E-01
   178  1.7700000000000E+00 -2.7694770123243E-01  8.7784157597387E-01
   179  1.7800000000000E+00 -2.7446420822105E-01  8.3638199881533E-01
   180  1.7900000000000E+00 -2.7132079999506E-01  7.9477717926222E-01
   181  1.8000000000000E+00 -2.6755788346529E-01  7.5315092265736E-01
   182  1.8100000000000E+00 -2.6321667723803E-01  7.1162530622957E-01
   183  1.8200000000000E+00 -2.5833902620532E-01  6.7032018529646E-01
   184  1.8300000000000E+00 -2.5296721651763E-01  6.2935271120188E-01
   185  1.8400000000000E+00 -2.4714379181154E-01  5.8883686319027E-01
   186  1.8500000000000E+00 -2.4091137154971E-01  5.4888299634788E-01
   187  1.8600000000000E+00 -2.3431247231046E-01  5.0959740765733E-01
   188  1.8700000000000E+00 -2.2738933284048E-01  4.7108192211841E-01
   189  1.8800000000000E+00 -2.2018374365489E-01  4.3343350078228E-01
   190  1.8900000000000E+00 -2.1273688193782E-01  3.9674387243639E-01
   191  1.9000000000000E+00 -2.0508915245888E-01  3.6109919055065E-01
   192  1.9100000000000E+00 -1.9728003518178E-01  3.2657971696765E-01
   193  1.9200000000000E+00 -1.8934794019780E-01  2.9325953368020E-01
   194  1.9300000000000E+00 -1.8133007057026E-01  2.6120628389478E-01
   195  1.9400000000000E+00 -1.7326229362672E-01  2.3048094342777E-01
   196  1.9500000000000E+00 -1.6517902118388E-01  2.0113762332557E-01
   197  1.9600000000000E+00 -1.5711309913499E-01  1.7322340443629E-01
   198  1.9700000000000E+00 -1.4909570677517E-01  1.4677820450076E-01
   199  1.9800000000000E+00 -1.4115626618030E-01  1.2183467815872E-01
   200  1.9900000000000E+00 -1.3332236189672E-01  9.8418150098335E-02
   201  2.0000000000000E+00 -1.2561967113882E-01  7.6546581407809E-02
   202  2.0100000000000E+00 -1.1807190463088E-01  5.6230569017275E-02
   203  2.0200000000000E+00 -1.1070075816808E-01  3.7473377949543E-02
   204  2.0300000000000E+00 -1.0352587491014E-01  2.0271005929172E-02
   205  2.0400000000000E+00 -9.6564818363181E-02  4.6122797422664E-03
   206  2.0500000000000E+00 -8.9833055941123E-02 -9.5210174340340E-03
   207  2.0600000000000E+00 -8.3343952942683E-02 -2.2153988660326E-02
   208  2.0700000000000E+00 -7.7108776721563E-02 -3.3318436904823E-02
   209  2.0800000000000E+00 -7.1136710709412E-02 -4.3052651245094E-02
   210  2.0900000000000E+00 -6.5434877929867E-02 -5.1401167035089E-02
   211  2.1000000000000E+00 -6.0008377047319E-02 -5.8414487454928E-02
   212  2.1100000000000E+00 -5.4860312001024E-02 -6.4148845331708E-02
   213  2.1200000000000E+00 -4.9991881715235E-02 -6.8665724738320E-02
   214  2.1300000000000E+00 -4.5402570740843E-02 -7.2030978487809E-02
   215  2.1400000000000E+00 -4.1090355499289E-02 -7.4313928769909E-02
   216  2.1500000000000E+00 -3.7051816829613E-02 -7.5586891792930E-02
   217  2.1600000000000E+00 -3.3282239379916E-02 -7.5924772584427E-02
   218  2.1700000000000E+00 -2.9775723362685E-02 -7.5404616372280E-02
   219  2.1800000000000E+00 -2.6525298560216E-02 -7.4105160718034E-02
   220  2.1900000000000E+00 -2.3523041537217E-02 -7.2106382858836E-02
   221  2.2000000000000E+00 -2.0760195437648E-02 -6.9489044005789E-02
   222  2.2100000000000E+00 -1.8227291508763E-02 -6.6334233283732E-02
   223  2.2200000000000E+00 -1.5914271565735E-02 -6.2722913668069E-02
   224  2.2300000000000E+00 -1.3810610609772E-02 -5.8735472264570E-02
   225  2.2400000000000E+00 -1.1905438334162E-02 -5.4451278238791E-02
   226  2.2500000000000E+00 -1.0187660945178E-02 -4.9948246176238E-02
   227  2.2600000000000E+00 -8.6460870717671E-03 -4.5302397890473E-02
   228  2.2700000000000E+00 -7.2695090556467E-03 -4.0587522317627E-02
   229  2.2800000000000E+00 -6.0468593456171E-03 -3.5874692206273E-02
   230  2.2900000000000E+00 -4.9677281299487E-03 -3.1231046178228E-02
   231  2.3000000000000E+00 -4.0233105625344E-03 -2.6717695750711E-02
   232  2.3100000000000E+00 -3.2037637762828E-03 -2.2394994139444E-02
   233  2.3200000000000E+00 -2.4987672273683E-03 -1.8321272413655E-02
   234  2.3300000000000E+00 -1.8988712596591E-03 -1.4549973264952E-02
   235  2.3400000000000E+00 -1.3952723124440E-03 -1.1130001415299E-02
   236  2.3500000000000E+00 -9.7995044706409E-04 -8.1053481557880E-03
   237  2.3600000000000E+00 -6.4572832357783E-04 -5.5148875542353E-03
   238  2.3700000000000E+00 -3.8647581422745E-04 -3.3934776104608E-03
   239  2.3800000000000E+00 -1.9599701027993E-04 -1.7608626419622E-03
   240  2.3900000000000E+00 -7.1528163507937E-05 -6.5404758065954E-04
   241  2.4000000000000E+00 -1.2017764649339E-05 -1.1059585782189E-04
   242  2.4100000000000E+00  2.8112825781449E-06  2.7372339990339E-05
   243  2.4200000000000E+00 -1.5759346894161E-08 -1.4998492164091E-07
   244  2.43 -0. -0.
   245  2.44  0.  0.
   246  2.45  0. -0.
   247  2.46  0. -0.
   248  2.47  0.  0.
   249  2.48  0.  0.
   250  2.49  0.  0.
   251  2.50  0.  0.
   252  2.51  0.  0.
   253  2.52  0.  0.
   254  2.53  0.  0.
   255  2.54  0.  0.
   256  2.55  0.  0.
   257  2.56  0.  0.
   258  2.57  0.  0.
   259  2.58  0.  0.
   260  2.59  0.  0.
   261  2.60  0.  0.
   262  2.61  0.  0.
   263  2.62  0.  0.
   264  2.63  0.  0.
   265  2.64  0.  0.
   266  2.65  0.  0.
   267  2.66  0.  0.
   268  2.67  0.  0.
   269  2.68  0.  0.
   270  2.69  0.  0.
   271  2.70  0.  0.
   272  2.71  0.  0.
   273  2.72  0.  0.
   274  2.73  0.  0.
   275  2.74  0.  0.
   276  2.75  0.  0.
   277  2.76  0.  0.
   278  2.77  0.  0.
   279  2.78  0.  0.
   280  2.79  0.  0.
   281  2.80  0.  0.
   282  2.81  0.  0.
   283  2.82  0.  0.
   284  2.83  0.  0.
   285  2.84  0.  0.
   286  2.85  0.  0.
   287  2.86  0.  0.
   288  2.87  0.  0.
   289  2.88  0.  0.
   290  2.89  0.  0.
   291  2.90  0.  0.
   292  2.91  0.  0.
   293  2.92  0.  0.
   294  2.93  0.  0.
   295  2.94  0.  0.
   296  2.95  0.  0.
   297  2.96  0.  0.
   298  2.97  0.  0.
   299  2.98  0.  0.
   300  2.99  0.  0.
   301  3.00  0.  0.
   302  3.01  0.  0.
   303  3.02  0.  0.
   304  3.03  0.  0.
   305  3.04  0.  0.
   306  3.05  0.  0.
   307  3.06  0.  0.
   308  3.07  0.  0.
   309  3.08  0.  0.
   310  3.09  0.  0.
   311  3.10  0.  0.
   312  3.11  0.  0.
   313  3.12  0.  0.
   314  3.13  0.  0.
   315  3.14  0.  0.
   316  3.15  0.  0.
   317  3.16  0.  0.
   318  3.17  0.  0.
   319  3.18  0.  0.
   320  3.19  0.  0.
   321  3.20  0.  0.
   322  3.21  0.  0.
   323  3.22  0.  0.
   324  3.23  0.  0.
   325  3.24  0.  0.
   326  3.25  0.  0.
   327  3.26  0.  0.
   328  3.27  0.  0.
   329  3.28  0.  0.
   330  3.29  0.  0.
   331  3.30  0.  0.
   332  3.31  0.  0.
   333  3.32  0.  0.
   334  3.33  0.  0.
   335  3.34  0.  0.
   336  3.35  0.  0.
   337  3.36  0.  0.
   338  3.37  0.  0.
   339  3.38  0.  0.
   340  3.39  0.  0.
   341  3.40  0.  0.
   342  3.41  0.  0.
   343  3.42  0.  0.
   344  3.43  0.  0.
   345  3.44  0.  0.
   346  3.45  0.  0.
   347  3.46  0.  0.
   348  3.47  0.  0.
   349  3.48  0.  0.
   350  3.49  0.  0.
   351  3.50  0.  0.
   352  3.51  0.  0.
   353  3.52  0.  0.
   354  3.53  0.  0.
   355  3.54  0.  0.
   356  3.55  0.  0.
   357  3.56  0.  0.
   358  3.57  0.  0.
   359  3.58  0.  0.
   360  3.59  0.  0.
   361  3.60  0.  0.
   362  3.61  0.  0.
   363  3.62  0.  0.
   364  3.63  0.  0.
   365  3.64  0.  0.
   366  3.65  0.  0.
   367  3.66  0.  0.
   368  3.67  0.  0.
   369  3.68  0.  0.
   370  3.69  0.  0.
   371  3.70  0.  0.
   372  3.71  0.  0.
   373  3.72  0.  0.
   374  3.73  0.  0.
   375  3.74  0.  0.
   376  3.75  0.  0.
   377  3.76  0.  0.
   378  3.77  0.  0.
   379  3.78  0.  0.
   380  3.79  0.  0.
   381  3.80  0.  0.
   382  3.81  0.  0.
   383  3.82  0.  0.
   384  3.83  0.  0.
   385  3.84  0.  0.
   386  3.85  0.  0.
   387  3.86  0.  0.
   388  3.87  0.  0.
   389  3.88  0.  0.
   390  3.89  0.  0.
   391  3.90  0.  0.
   392  3.91  0.  0.
   393  3.92  0.  0.
   394  3.93  0.  0.
   395  3.94  0.  0.
   396  3.95  0.  0.
   397  3.96  0.  0.
   398  3.97  0.  0.
   399  3.98  0.  0.
   400  3.99  0.  0.
   401  4.00  0.  0.
   402  4.01  0.  0.
   403  4.02  0.  0.
   404  4.03  0.  0.
   405  4.04  0.  0.
   406  4.05  0.  0.
   407  4.06  0.  0.
   408  4.07  0.  0.
   409  4.08  0.  0.
   410  4.09  0.  0.
   411  4.10  0.  0.
   412  4.11  0.  0.
   413  4.12  0.  0.
   414  4.13  0.  0.
   415  4.14  0.  0.
   416  4.15  0.  0.
   417  4.16  0.  0.
   418  4.17  0.  0.
   419  4.18  0.  0.
   420  4.19  0.  0.
   421  4.20  0.  0.
   422  4.21  0.  0.
   423  4.22  0.  0.
   424  4.23  0.  0.
   425  4.24  0.  0.
   426  4.25  0.  0.
   427  4.26  0.  0.
   428  4.27  0.  0.
   429  4.28  0.  0.
   430  4.29  0.  0.
   431  4.30  0.  0.
   432  4.31  0.  0.
   433  4.32  0.  0.
   434  4.33  0.  0.
   435  4.34  0.  0.
   436  4.35  0.  0.
   437  4.36  0.  0.
   438  4.37  0.  0.
   439  4.38  0.  0.
   440  4.39  0.  0.
   441  4.40  0.  0.
   442  4.41  0.  0.
   443  4.42  0.  0.
   444  4.43  0.  0.
   445  4.44  0.  0.
   446  4.45  0.  0.
   447  4.46  0.  0.
   448  4.47  0.  0.
   449  4.48  0.  0.
   450  4.49  0.  0.
   451  4.50  0.  0.
   452  4.51  0.  0.
   453  4.52  0.  0.
   454  4.53  0.  0.
   455  4.54  0.  0.
   456  4.55  0.  0.
   457  4.56  0.  0.
   458  4.57  0.  0.
   459  4.58  0.  0.
   460  4.59  0.  0.
   461  4.60  0.  0.
   462  4.61  0.  0.
   463  4.62  0.  0.
   464  4.63  0.  0.
   465  4.64  0.  0.
   466  4.65  0.  0.
   467  4.66  0.  0.
   468  4.67  0.  0.
   469  4.68  0.  0.
   470  4.69  0.  0.
   471  4.70  0.  0.
   472  4.71  0.  0.
   473  4.72  0.  0.
   474  4.73  0.  0.
   475  4.74  0.  0.
   476  4.75  0.  0.
   477  4.76  0.  0.
   478  4.77  0.  0.
   479  4.78  0.  0.
   480  4.79  0.  0.
   481  4.80  0.  0.
   482  4.81  0.  0.
   483  4.82  0.  0.
   484  4.83  0.  0.
   485  4.84  0.  0.
   486  4.85  0.  0.
   487  4.86  0.  0.
   488  4.87  0.  0.
   489  4.88  0.  0.
   490  4.89  0.  0.
   491  4.90  0.  0.
   492  4.91  0.  0.
   493  4.92  0.  0.
   494  4.93  0.  0.
   495  4.94  0.  0.
   496  4.95  0.  0.
   497  4.96  0.  0.
   498  4.97  0.  0.
   499  4.98  0.  0.
   500  4.99  0.  0.
   501  5.00  0.  0.
   502  5.01  0.  0.
   503  5.02  0.  0.
   504  5.03  0.  0.
   505  5.04  0.  0.
   506  5.05  0.  0.
   507  5.06  0.  0.
   508  5.07  0.  0.
   509  5.08  0.  0.
   510  5.09  0.  0.
   511  5.10  0.  0.
   512  5.11  0.  0.
   513  5.12  0.  0.
   514  5.13  0.  0.
   515  5.14  0.  0.
   516  5.15  0.  0.
   517  5.16  0.  0.
   518  5.17  0.  0.
   519  5.18  0.  0.
   520  5.19  0.  0.
   521  5.20  0.  0.
   522  5.21  0.  0.
   523  5.22  0.  0.
   524  5.23  0.  0.
   525  5.24  0.  0.
   526  5.25  0.  0.
   527  5.26  0.  0.
   528  5.27  0.  0.
   529  5.28  0.  0.
   530  5.29  0.  0.
   531  5.30  0.  0.
   532  5.31  0.  0.
   533  5.32  0.  0.
   534  5.33  0.  0.
   535  5.34  0.  0.
   536  5.35  0.  0.
   537  5.36  0.  0.
   538  5.37  0.  0.
   539  5.38  0.  0.
   540  5.39  0.  0.
   541  5.40  0.  0.
   542  5.41  0.  0.
   543  5.42  0.  0.
   544  5.43  0.  0.
   545  5.44  0.  0.
   546  5.45  0.  0.
   547  5.46  0.  0.
   548  5.47  0.  0.
   549  5.48  0.  0.
   550  5.49  0.  0.
   551  5.50  0.  0.
   552  5.51  0.  0.
   553  5.52  0.  0.
   554  5.53  0.  0.
   555  5.54  0.  0.
   556  5.55  0.  0.
   557  5.56  0.  0.
   558  5.57  0.  0.
   559  5.58  0.  0.
   560  5.59  0.  0.
   561  5.60  0.  0.
   562  5.61  0.  0.
   563  5.62  0.  0.
   564  5.63  0.  0.
   565  5.64  0.  0.
   566  5.65  0.  0.
   567  5.66  0.  0.
   568  5.67  0.  0.
   569  5.68  0.  0.
   570  5.69  0.  0.
   571  5.70  0.  0.
   572  5.71  0.  0.
   573  5.72  0.  0.
   574  5.73  0.  0.
   575  5.74  0.  0.
   576  5.75  0.  0.
   577  5.76  0.  0.
   578  5.77  0.  0.
   579  5.78  0.  0.
   580  5.79  0.  0.
   581  5.80  0.  0.
   582  5.81  0.  0.
   583  5.82  0.  0.
   584  5.83  0.  0.
   585  5.84  0.  0.
   586  5.85  0.  0.
   587  5.86  0.  0.
   588  5.87  0.  0.
   589  5.88  0.  0.
   590  5.89  0.  0.
   591  5.90  0.  0.
   592  5.91  0.  0.
   593  5.92  0.  0.
   594  5.93  0.  0.
   595  5.94  0.  0.
   596  5.95  0.  0.
   597  5.96  0.  0.
   598  5.97  0.  0.
   599  5.98  0.  0.
   600  5.99  0.  0.
   1                        -3.9182754138763E+00  1.6462851945124E+00
     1  0.0000000000000E+00 -5.2944267026067E-11  1.6078731662067E-11
     2  1.0000000000000E-02  5.3370086831099E-04 -3.6462919264783E-05
     3  2.0000000000000E-02  2.1342534137319E-03 -1.4565252087446E-04
     4  3.0000000000000E-02  4.8000052347240E-03 -3.2697087465444E-04
     5  4.0000000000000E-02  8.5281949471040E-03 -5.7941990023718E-04
     6  5.0000000000000E-02  1.3314941210570E-02 -9.0159910210743E-04
     7  6.0000000000000E-02  1.9155227562972E-02 -1.2917024587397E-03
     8  7.0000000000000E-02  2.6042883257342E-02 -1.7475145252098E-03
     9  8.0000000000000E-02  3.3970560349669E-02 -2.2664058247403E-03
    10  9.0000000000000E-02  4.2929707336072E-02 -2.8453276199810E-03
    11  1.0000000000000E-01  5.2910539686239E-02 -3.4808061693382E-03
    12  1.1000000000000E-01  6.3902007665231E-02 -4.1689365872623E-03
    13  1.2000000000000E-01  7.5891761877530E-02 -4.9053764398350E-03
    14  1.3000000000000E-01  8.8866117005406E-02 -5.6853392183027E-03
    15  1.4000000000000E-01  1.0281001424767E-01 -6.5035878431183E-03
    16  1.5000000000000E-01  1.1770698299459E-01 -7.3544283596270E-03
    17  1.6000000000000E-01  1.3353910229982E-01 -8.2317039935409E-03
    18  1.7000000000000E-01  1.5028696273032E-01 -9.1287897398377E-03
    19  1.8000000000000E-01  1.6792962919049E-01 -1.0038587662555E-02
    20  1.9000000000000E-01  1.8644460532660E-01 -1.0953523085112E-02
    21  2.0000000000000E-01  2.0580780012229E-01 -1.1865541851249E-02
    22  2.1000000000000E-01  2.2599349729516E-01 -1.2766108835381E-02
    23  2.2000000000000E-01  2.4697432809847E-01 -1.3646207878194E-02
    24  2.3000000000000E-01  2.6872124812021E-01 -1.4496343318521E-02
    25  2.4000000000000E-01  2.9120351865553E-01 -1.5306543286159E-02
    26  2.5000000000000E-01  3.1438869320602E-01 -1.6066364912164E-02
    27  2.6000000000000E-01  3.3824260963273E-01 -1.6764901603469E-02
    28  2.7000000000000E-01  3.6272938845797E-01 -1.7390792517423E-02
    29  2.8000000000000E-01  3.8781143777434E-01 -1.7932234359169E-02
    30  2.9000000000000E-01  4.1344946517886E-01 -1.8376995610648E-02
    31  3.0000000000000E-01  4.3960249710537E-01 -1.8712433284730E-02
    32  3.1000000000000E-01  4.6622790587974E-01 -1.8925512281430E-02
    33  3.2000000000000E-01  4.9328144477088E-01 -1.9002827405636E-02
    34  3.3000000000000E-01  5.2071729125580E-01 -1.8930628087363E-02
    35  3.4000000000000E-01  5.4848809865999E-01 -1.8694845826351E-02
    36  3.5000000000000E-01  5.7654505627490E-01 -1.8281124362990E-02
    37  3.6000000000000E-01  6.0483795799400E-01 -1.7674852557359E-02
    38  3.7000000000000E-01  6.3331527944679E-01 -1.6861199937550E-02
    39  3.8000000000000E-01  6.6192426354763E-01 -1.5825154857805E-02
    40  3.9000000000000E-01  6.9061101431400E-01 -1.4551565186272E-02
    41  4.0000000000000E-01  7.1932059874621E-01 -1.3025181421770E-02
    42  4.1000000000000E-01  7.4799715649959E-01 -1.1230702118764E-02
    43  4.2000000000000E-01  7.7658401701995E-01 -9.1528214801875E-03
    44  4.3000000000000E-01  8.0502382375525E-01 -6.7762789587760E-03
    45  4.4000000000000E-01  8.3325866500006E-01 -4.0859106894735E-03
    46  4.5000000000000E-01  8.6123021087692E-01 -1.0667025583214E-03
    47  4.6000000000000E-01  8.8887985590823E-01  2.2961553027875E-03
    48  4.7000000000000E-01  9.1614886658607E-01  6.0172128209119E-03
    49  4.8000000000000E-01  9.4297853330500E-01  1.0110703325242E-02
    50  4.9000000000000E-01  9.6931032598458E-01  1.4590486179437E-02
    51  5.0000000000000E-01  9.9508605267468E-01  1.9469988964248E-02
    52  5.1000000000000E-01  1.0202480204081E+00  2.4762149480252E-02
    53  5.2000000000000E-01  1.0447391975414E+00  3.0479357847441E-02
    54  5.3000000000000E-01  1.0685033768057E+00  3.6633398983562E-02
    55  5.4000000000000E-01  1.0914853382781E+00  4.3235395746332E-02
    56  5.5000000000000E-01  1.1136310114741E+00  5.0295753026061E-02
    57  5.6000000000000E-01  1.1348876357633E+00  5.7824103074620E-02
    58  5.7000000000000E-01  1.1552039183106E+00  6.5829252354238E-02
    59  5.8000000000000E-01  1.1745301887576E+00  7.4319130185226E-02
    60  5.9000000000000E-01  1.1928185498724E+00  8.3300739465409E-02
    61  6.0000000000000E-01  1.2100230234166E+00  9.2780109725974E-02
    62  6.1000000000000E-01  1.2260996905046E+00  1.0276225277842E-01
    63  6.2000000000000E-01  1.2410068257594E+00  1.1325112119572E-01
    64  6.3000000000000E-01  1.2547050246064E+00  1.2424956985746E-01
    65  6.4000000000000E-01  1.2671573230870E+00  1.3575932077377E-01
    66  6.5000000000000E-01  1.2783293096147E+00  1.4778093138668E-01
    67  6.6000000000000E-01  1.2881892281492E+00  1.6031376652978E-01
    68  6.7000000000000E-01  1.2967080723130E+00  1.7335597420811E-01
    69  6.8000000000000E-01  1.3038596700296E+00  1.8690446534058E-01
    70  6.9000000000000E-01  1.3096207583207E+00  2.0095489758597E-01
    71  7.0000000000000E-01  1.3139710479600E+00  2.1550166335210E-01