As    ONCVPSP-4.0.1  r_core=   1.80680   1.60306   1.80680
33.0000     15.0000      251119    zatom,zion,pspd
8   -1012   2     4   600     0    pspcod,pspxc,lmax,lloc,mmax,r2well
5.99000000  5.00000000  0.00000000    rchrg fchrg qchrg
2     3     2     0    nproj
3     1           extension_switch
4     3     0    nprojso
0                         7.5158401656335E+00  8.3186002302228E-01
1  0.0000000000000E+00 -1.2557599404772E-10  3.1068413119950E-10
2  1.0000000000000E-02  3.4100634258307E-02 -1.5134749133365E-02
3  2.0000000000000E-02  6.8151532632107E-02 -3.0187984170804E-02
4  3.0000000000000E-02  1.0210331491924E-01 -4.5078982603284E-02
5  4.0000000000000E-02  1.3590730880271E-01 -5.9728596847920E-02
6  5.0000000000000E-02  1.6951589512661E-01 -7.4060021171420E-02
7  6.0000000000000E-02  2.0288284286145E-01 -8.7999534187724E-02
8  7.0000000000000E-02  2.3596363047078E-01 -1.0147720915535E-01
9  8.0000000000000E-02  2.6871575051609E-01 -1.1442758461064E-01
10  9.0000000000000E-02  3.0109899449222E-01 -1.2679028825612E-01
11  1.0000000000000E-01  3.3307571506825E-01 -1.3851060747528E-01
12  1.1000000000000E-01  3.6461106311817E-01 -1.4954000036164E-01
13  1.2000000000000E-01  3.9567319715946E-01 -1.5983654172713E-01
14  1.3000000000000E-01  4.2623346307396E-01 -1.6936529918658E-01
15  1.4000000000000E-01  4.5626654226200E-01 -1.7809863509588E-01
16  1.5000000000000E-01  4.8575056667538E-01 -1.8601643084572E-01
17  1.6000000000000E-01  5.1466719948416E-01 -1.9310623077280E-01
18  1.7000000000000E-01  5.4300168045455E-01 -1.9936330374020E-01
19  1.8000000000000E-01  5.7074283544709E-01 -2.0479062125055E-01
20  1.9000000000000E-01  5.9788304978271E-01 -2.0939875178209E-01
21  2.0000000000000E-01  6.2441820556682E-01 -2.1320567187145E-01
22  2.1000000000000E-01  6.5034758340436E-01 -2.1623649529996E-01
23  2.2000000000000E-01  6.7567372927940E-01 -2.1852312256475E-01
24  2.3000000000000E-01  7.0040228770834E-01 -2.2010381362474E-01
25  2.4000000000000E-01  7.2454180260204E-01 -2.2102268769622E-01
26  2.5000000000000E-01  7.4810348758787E-01 -2.2132915462648E-01
27  2.6000000000000E-01  7.7110096784385E-01 -2.2107728308953E-01
28  2.7000000000000E-01  7.9354999578064E-01 -2.2032511151831E-01
29  2.8000000000000E-01  8.1546814317198E-01 -2.1913390830646E-01
30  2.9000000000000E-01  8.3687447257631E-01 -2.1756738837395E-01
31  3.0000000000000E-01  8.5778919111019E-01 -2.1569089368848E-01
32  3.1000000000000E-01  8.7823328982549E-01 -2.1357054576439E-01
33  3.2000000000000E-01  8.9822817210590E-01 -2.1127237851753E-01
34  3.3000000000000E-01  9.1779527463080E-01 -2.0886146013480E-01
35  3.4000000000000E-01  9.3695568455711E-01 -2.0640101281769E-01
36  3.5000000000000E-01  9.5572975663882E-01 -2.0395153937776E-01
37  3.6000000000000E-01  9.7413673404039E-01 -2.0156996569627E-01
38  3.7000000000000E-01  9.9219437660264E-01 -1.9930880801029E-01
39  3.8000000000000E-01  1.0099186002883E+00 -1.9721537385171E-01
40  3.9000000000000E-01  1.0273231314688E+00 -1.9533100524642E-01
41  4.0000000000000E-01  1.0444191796158E+00 -1.9369037247712E-01
42  4.1000000000000E-01  1.0612151318267E+00 -1.9232082632954E-01
43  4.2000000000000E-01  1.0777162724530E+00 -1.9124181627893E-01
44  4.3000000000000E-01  1.0939245309011E+00 -1.9046438153682E-01
45  4.4000000000000E-01  1.1098382604558E+00 -1.8999072126995E-01
46  4.5000000000000E-01  1.1254520507214E+00 -1.8981384963021E-01
47  4.6000000000000E-01  1.1407565759999E+00 -1.8991734050122E-01
48  4.7000000000000E-01  1.1557384816261E+00 -1.9027516608002E-01
49  4.8000000000000E-01  1.1703803099558E+00 -1.9085163257840E-01
50  4.9000000000000E-01  1.1846604673685E+00 -1.9160141545418E-01
51  5.0000000000000E-01  1.1985532332860E+00 -1.9246969567664E-01
52  5.1000000000000E-01  1.2120288118474E+00 -1.9339239759953E-01
53  5.2000000000000E-01  1.2250534265008E+00 -1.9429652806831E-01
54  5.3000000000000E-01  1.2375894573929E+00 -1.9510061543440E-01
55  5.4000000000000E-01  1.2495956210546E+00 -1.9571524619532E-01
56  5.5000000000000E-01  1.2610271914930E+00 -1.9604369603686E-01
57  5.6000000000000E-01  1.2718362614277E+00 -1.9598265112806E-01
58  5.7000000000000E-01  1.2819720420323E+00 -1.9542301462172E-01
59  5.8000000000000E-01  1.2913811991846E+00 -1.9425079245100E-01
60  5.9000000000000E-01  1.3000082238821E+00 -1.9234805169403E-01
61  6.0000000000000E-01  1.3077958341489E+00 -1.8959394401086E-01
62  6.1000000000000E-01  1.3146854054551E+00 -1.8586578594962E-01
63  6.2000000000000E-01  1.3206174263792E+00 -1.8104018727671E-01
64  6.3000000000000E-01  1.3255319759889E+00 -1.7499421791626E-01
65  6.4000000000000E-01  1.3293692191819E+00 -1.6760660359415E-01
66  6.5000000000000E-01  1.3320699160289E+00 -1.5875893987427E-01
67  6.6000000000000E-01  1.3335759409924E+00 -1.4833691395672E-01
68  6.7000000000000E-01  1.3338308077602E+00 -1.3623152338106E-01
69  6.8000000000000E-01  1.3327801953379E+00 -1.2234028064658E-01
70  6.9000000000000E-01  1.3303724709785E+00 -1.0656839272778E-01
71  7.0000000000000E-01  1.3265592055078E+00 -8.8829904527943E-02
72  7.1000000000000E-01  1.3212956766187E+00 -6.9048795477724E-02
73  7.2000000000000E-01  1.3145413557562E+00 -4.7160018747677E-02
74  7.3000000000000E-01  1.3062603743128E+00 -2.3110472904124E-02
75  7.4000000000000E-01  1.2964219649762E+00  3.1401037081678E-03
76  7.5000000000000E-01  1.2850008742412E+00  3.1618325026145E-02
77  7.6000000000000E-01  1.2719777422963E+00  6.2336444306583E-02
78  7.7000000000000E-01  1.2573394467301E+00  9.5291743959742E-02
79  7.8000000000000E-01  1.2410794067724E+00  1.3046603520117E-01
80  7.9000000000000E-01  1.2231978450792E+00  1.6782527367818E-01
81  8.0000000000000E-01  1.2037020043970E+00  2.0731929629711E-01
82  8.1000000000000E-01  1.1826063167918E+00  2.4888168349174E-01
83  8.2000000000000E-01  1.1599325235009E+00  2.9242975013781E-01
84  8.3000000000000E-01  1.1357097438541E+00  3.3786466724635E-01
85  8.4000000000000E-01  1.1099744921214E+00  3.8507171546344E-01
86  8.5000000000000E-01  1.0827706415603E+00  4.3392067028164E-01
87  8.6000000000000E-01  1.0541493353654E+00  4.8426631773257E-01
88  8.7000000000000E-01  1.0241688446550E+00  5.3594909819656E-01
89  8.8000000000000E-01  9.9289437406346E-01  5.8879587483892E-01
90  8.9000000000000E-01  9.6039781593993E-01  6.4262082207806E-01
91  9.0000000000000E-01  9.2675745457977E-01  6.9722642841448E-01
92  9.1000000000000E-01  8.9205762232866E-01  7.5240460691437E-01
93  9.2000000000000E-01  8.5638830980286E-01  8.0793790565466E-01
94  9.3000000000000E-01  8.1984473285224E-01  8.6360080950890E-01
95  9.4000000000000E-01  7.8252685925689E-01  9.1916112379195E-01
96  9.5000000000000E-01  7.4453889848794E-01  9.7438142949662E-01
97  9.6000000000000E-01  7.0598875817565E-01  1.0290205991531E+00
98  9.7000000000000E-01  6.6698747121157E-01  1.0828353617298E+00
99  9.8000000000000E-01  6.2764859766170E-01  1.1355819044768E+00
100  9.9000000000000E-01  5.8808760588417E-01  1.1870174992008E+00
101  1.0000000000000E+00  5.4842123742396E-01  1.2369021401483E+00
102  1.0100000000000E+00  5.0876686039895E-01  1.2850001804761E+00
103  1.0200000000000E+00  4.6924181619269E-01  1.3310819541987E+00
104  1.0300000000000E+00  4.2996276433064E-01  1.3749253705298E+00
105  1.0400000000000E+00  3.9104503043638E-01  1.4163174676701E+00
106  1.0500000000000E+00  3.5260196214264E-01  1.4550559133502E+00
107  1.0600000000000E+00  3.1474429776922E-01  1.4909504398000E+00
108  1.0700000000000E+00  2.7757955247632E-01  1.5238242012868E+00
109  1.0800000000000E+00  2.4121142645777E-01  1.5535150429479E+00
110  1.0900000000000E+00  2.0573923955712E-01  1.5798766703179E+00
111  1.1000000000000E+00  1.7125739646944E-01  1.6027797097312E+00
112  1.1100000000000E+00  1.3785488643792E-01  1.6221126506377E+00
113  1.1200000000000E+00  1.0561482106619E-01  1.6377826618239E+00
114  1.1300000000000E+00  7.4614013550579E-02  1.6497162745405E+00
115  1.1400000000000E+00  4.4922602289975E-02  1.6578599266324E+00
116  1.1500000000000E+00  1.6603721462806E-02  1.6621803628958E+00
117  1.1600000000000E+00 -1.0286779231904E-02  1.6626648880818E+00
118  1.1700000000000E+00 -3.5700563878641E-02  1.6593214701756E+00
119  1.1800000000000E+00 -5.9596987328675E-02  1.6521786928335E+00
120  1.1900000000000E+00 -8.1943218926559E-02  1.6412855571085E+00
121  1.2000000000000E+00 -1.0271431248454E-01  1.6267111338594E+00
122  1.2100000000000E+00 -1.2189322244925E-01  1.6085440694839E+00
123  1.2200000000000E+00 -1.3947076664468E-01  1.5868919488446E+00
124  1.2300000000000E+00 -1.5544553640996E-01  1.5618805204561E+00
125  1.2400000000000E+00 -1.6982375537244E-01  1.5336527901469E+00
126  1.2500000000000E+00 -1.8261908851010E-01  1.5023679905192E+00
127  1.2600000000000E+00 -1.9385240354914E-01  1.4682004345587E+00
128  1.2700000000000E+00 -2.0355148711601E-01  1.4313382627121E+00
129  1.2800000000000E+00 -2.1175071841387E-01  1.3919820936328E+00
130  1.2900000000000E+00 -2.1849070351470E-01  1.3503435895870E+00
131  1.3000000000000E+00 -2.2381787365111E-01  1.3066439482027E+00
132  1.3100000000000E+00 -2.2778405115317E-01  1.2611123328417E+00
133  1.3200000000000E+00 -2.3044598690098E-01  1.2139842543512E+00
134  1.3300000000000E+00 -2.3186487335262E-01  1.1654999173210E+00
135  1.3400000000000E+00 -2.3210583735973E-01  1.1159025442247E+00
136  1.3500000000000E+00 -2.3123741709436E-01  1.0654366909539E+00
137  1.3600000000000E+00 -2.2933102748322E-01  1.0143465672648E+00
138  1.3700000000000E+00 -2.2646041857747E-01  9.6287437554930E-01
139  1.3800000000000E+00 -2.2270113127727E-01  9.1125868111081E-01
140  1.3900000000000E+00 -2.1812995478141E-01  8.5973282678050E-01
141  1.4000000000000E+00 -2.1282439004429E-01  8.0852340424606E-01
142  1.4100000000000E+00 -2.0686212339569E-01  7.5784879389737E-01
143  1.4200000000000E+00 -2.0032051431543E-01  7.0791778431492E-01
144  1.4300000000000E+00 -1.9327610115611E-01  6.5892828175438E-01
145  1.4400000000000E+00 -1.8580412837597E-01  6.1106611911596E-01
146  1.4500000000000E+00 -1.7797809858148E-01  5.6450397293863E-01
147  1.4600000000000E+00 -1.6986935239000E-01  5.1940039593946E-01
148  1.4700000000000E+00 -1.6154667880834E-01  4.7589897153244E-01
149  1.4800000000000E+00 -1.5307595848643E-01  4.3412759561938E-01
150  1.4900000000000E+00 -1.4451984185199E-01  3.9419788976550E-01
151  1.5000000000000E+00 -1.3593746376307E-01  3.5620474865560E-01
152  1.5100000000000E+00 -1.2738419593621E-01  3.2022602349224E-01
153  1.5200000000000E+00 -1.1891143802143E-01  2.8632234175227E-01
154  1.5300000000000E+00 -1.1056644780537E-01  2.5453706247535E-01
155  1.5400000000000E+00 -1.0239221063668E-01  2.2489636503549E-01
156  1.5500000000000E+00 -9.4427347781309E-02  1.9740946813904E-01
157  1.5600000000000E+00 -8.6706063041199E-02  1.7206897463348E-01
158  1.5700000000000E+00 -7.9258126605424E-02  1.4885133659461E-01
159  1.5800000000000E+00 -7.2108894709920E-02  1.2771743382372E-01
160  1.5900000000000E+00 -6.5279363434620E-02  1.0861325846834E-01
161  1.6000000000000E+00 -5.8786256740868E-02  9.1470710054344E-02
162  1.6100000000000E+00 -5.2642138764877E-02  7.6208444999691E-02
163  1.6200000000000E+00 -4.6855743334892E-02  6.2733973607014E-02
164  1.6300000000000E+00 -4.1432473689189E-02  5.0946621513858E-02
165  1.6400000000000E+00 -3.6374736749218E-02  4.0739284610767E-02
166  1.6500000000000E+00 -3.1682205538445E-02  3.1999658429921E-02
167  1.6600000000000E+00 -2.7352101863081E-02  2.4611543966790E-02
168  1.6700000000000E+00 -2.3379485157535E-02  1.8456149829397E-02
169  1.6800000000000E+00 -1.9757545471439E-02  1.3413388970001E-02
170  1.6900000000000E+00 -1.6477892948542E-02  9.3631467491365E-03
171  1.7000000000000E+00 -1.3530882933550E-02  6.1866220229768E-03
172  1.7100000000000E+00 -1.0905767921383E-02  3.7671805132126E-03
173  1.7200000000000E+00 -8.5925940711232E-03  1.9958423330712E-03
174  1.7300000000000E+00 -6.5898359350827E-03  7.9200781496688E-04
175  1.7400000000000E+00 -4.8858610599422E-03  5.4352851089126E-05
176  1.7500000000000E+00 -3.4634973060321E-03 -3.2658232657620E-04
177  1.7600000000000E+00 -2.3067641316740E-03 -4.5012879615426E-04
178  1.7700000000000E+00 -1.4003176739327E-03 -4.0673707934358E-04
179  1.7800000000000E+00 -7.3007508514036E-04 -2.7695448531089E-04
180  1.7900000000000E+00 -2.8068300446492E-04 -1.2895145412193E-04
181  1.8000000000000E+00 -4.9817527650905E-05 -2.6421537325165E-05
182  1.8100000000000E+00  5.2471252958906E-06  3.3691478010981E-06
183  1.8200000000000E+00 -1.2283872290425E-06 -7.2297259344239E-07
184  1.83  0.  0.
185  1.84  0.  0.
186  1.85  0.  0.
187  1.86  0.  0.
188  1.87  0.  0.
189  1.88  0.  0.
190  1.89  0.  0.
191  1.90  0.  0.
192  1.91  0.  0.
193  1.92  0.  0.
194  1.93  0.  0.
195  1.94  0.  0.
196  1.95  0.  0.
197  1.96  0.  0.
198  1.97  0.  0.
199  1.98  0.  0.
200  1.99  0.  0.
201  2.00  0.  0.
202  2.01  0.  0.
203  2.02  0.  0.
204  2.03  0.  0.
205  2.04  0.  0.
206  2.05  0.  0.
207  2.06  0.  0.
208  2.07  0.  0.
209  2.08  0.  0.
210  2.09  0.  0.
211  2.10  0.  0.
212  2.11  0.  0.
213  2.12  0.  0.
214  2.13  0.  0.
215  2.14  0.  0.
216  2.15  0.  0.
217  2.16  0.  0.
218  2.17  0.  0.
219  2.18  0.  0.
220  2.19  0.  0.
221  2.20  0.  0.
222  2.21  0.  0.
223  2.22  0.  0.
224  2.23  0.  0.
225  2.24  0.  0.
226  2.25  0.  0.
227  2.26  0.  0.
228  2.27  0.  0.
229  2.28  0.  0.
230  2.29  0.  0.
231  2.30  0.  0.
232  2.31  0.  0.
233  2.32  0.  0.
234  2.33  0.  0.
235  2.34  0.  0.
236  2.35  0.  0.
237  2.36  0.  0.
238  2.37  0.  0.
239  2.38  0.  0.
240  2.39  0.  0.
241  2.40  0.  0.
242  2.41  0.  0.
243  2.42  0.  0.
244  2.43  0.  0.
245  2.44  0.  0.
246  2.45  0.  0.
247  2.46  0.  0.
248  2.47  0.  0.
249  2.48  0.  0.
250  2.49  0.  0.
251  2.50  0.  0.
252  2.51  0.  0.
253  2.52  0.  0.
254  2.53  0.  0.
255  2.54  0.  0.
256  2.55  0.  0.
257  2.56  0.  0.
258  2.57  0.  0.
259  2.58  0.  0.
260  2.59  0.  0.
261  2.60  0.  0.
262  2.61  0.  0.
263  2.62  0.  0.
264  2.63  0.  0.
265  2.64  0.  0.
266  2.65  0.  0.
267  2.66  0.  0.
268  2.67  0.  0.
269  2.68  0.  0.
270  2.69  0.  0.
271  2.70  0.  0.
272  2.71  0.  0.
273  2.72  0.  0.
274  2.73  0.  0.
275  2.74  0.  0.
276  2.75  0.  0.
277  2.76  0.  0.
278  2.77  0.  0.
279  2.78  0.  0.
280  2.79  0.  0.
281  2.80  0.  0.
282  2.81  0.  0.
283  2.82  0.  0.
284  2.83  0.  0.
285  2.84  0.  0.
286  2.85  0.  0.
287  2.86  0.  0.
288  2.87  0.  0.
289  2.88  0.  0.
290  2.89  0.  0.
291  2.90  0.  0.
292  2.91  0.  0.
293  2.92  0.  0.
294  2.93  0.  0.
295  2.94  0.  0.
296  2.95  0.  0.
297  2.96  0.  0.
298  2.97  0.  0.
299  2.98  0.  0.
300  2.99  0.  0.
301  3.00  0.  0.
302  3.01  0.  0.
303  3.02  0.  0.
304  3.03  0.  0.
305  3.04  0.  0.
306  3.05  0.  0.
307  3.06  0.  0.
308  3.07  0.  0.
309  3.08  0.  0.
310  3.09  0.  0.
311  3.10  0.  0.
312  3.11  0.  0.
313  3.12  0.  0.
314  3.13  0.  0.
315  3.14  0.  0.
316  3.15  0.  0.
317  3.16  0.  0.
318  3.17  0.  0.
319  3.18  0.  0.
320  3.19  0.  0.
321  3.20  0.  0.
322  3.21  0.  0.
323  3.22  0.  0.
324  3.23  0.  0.
325  3.24  0.  0.
326  3.25  0.  0.
327  3.26  0.  0.
328  3.27  0.  0.
329  3.28  0.  0.
330  3.29  0.  0.
331  3.30  0.  0.
332  3.31  0.  0.
333  3.32  0.  0.
334  3.33  0.  0.
335  3.34  0.  0.
336  3.35  0.  0.
337  3.36  0.  0.
338  3.37  0.  0.
339  3.38  0.  0.
340  3.39  0.  0.
341  3.40  0.  0.
342  3.41  0.  0.
343  3.42  0.  0.
344  3.43  0.  0.
345  3.44  0.  0.
346  3.45  0.  0.
347  3.46  0.  0.
348  3.47  0.  0.
349  3.48  0.  0.
350  3.49  0.  0.
351  3.50  0.  0.
352  3.51  0.  0.
353  3.52  0.  0.
354  3.53  0.  0.
355  3.54  0.  0.
356  3.55  0.  0.
357  3.56  0.  0.
358  3.57  0.  0.
359  3.58  0.  0.
360  3.59  0.  0.
361  3.60  0.  0.
362  3.61  0.  0.
363  3.62  0.  0.
364  3.63  0.  0.
365  3.64  0.  0.
366  3.65  0.  0.
367  3.66  0.  0.
368  3.67  0.  0.
369  3.68  0.  0.
370  3.69  0.  0.
371  3.70  0.  0.
372  3.71  0.  0.
373  3.72  0.  0.
374  3.73  0.  0.
375  3.74  0.  0.
376  3.75  0.  0.
377  3.76  0.  0.
378  3.77  0.  0.
379  3.78  0.  0.
380  3.79  0.  0.
381  3.80  0.  0.
382  3.81  0.  0.
383  3.82  0.  0.
384  3.83  0.  0.
385  3.84  0.  0.
386  3.85  0.  0.
387  3.86  0.  0.
388  3.87  0.  0.
389  3.88  0.  0.
390  3.89  0.  0.
391  3.90  0.  0.
392  3.91  0.  0.
393  3.92  0.  0.
394  3.93  0.  0.
395  3.94  0.  0.
396  3.95  0.  0.
397  3.96  0.  0.
398  3.97  0.  0.
399  3.98  0.  0.
400  3.99  0.  0.
401  4.00  0.  0.
402  4.01  0.  0.
403  4.02  0.  0.
404  4.03  0.  0.
405  4.04  0.  0.
406  4.05  0.  0.
407  4.06  0.  0.
408  4.07  0.  0.
409  4.08  0.  0.
410  4.09  0.  0.
411  4.10  0.  0.
412  4.11  0.  0.
413  4.12  0.  0.
414  4.13  0.  0.
415  4.14  0.  0.
416  4.15  0.  0.
417  4.16  0.  0.
418  4.17  0.  0.
419  4.18  0.  0.
420  4.19  0.  0.
421  4.20  0.  0.
422  4.21  0.  0.
423  4.22  0.  0.
424  4.23  0.  0.
425  4.24  0.  0.
426  4.25  0.  0.
427  4.26  0.  0.
428  4.27  0.  0.
429  4.28  0.  0.
430  4.29  0.  0.
431  4.30  0.  0.
432  4.31  0.  0.
433  4.32  0.  0.
434  4.33  0.  0.
435  4.34  0.  0.
436  4.35  0.  0.
437  4.36  0.  0.
438  4.37  0.  0.
439  4.38  0.  0.
440  4.39  0.  0.
441  4.40  0.  0.
442  4.41  0.  0.
443  4.42  0.  0.
444  4.43  0.  0.
445  4.44  0.  0.
446  4.45  0.  0.
447  4.46  0.  0.
448  4.47  0.  0.
449  4.48  0.  0.
450  4.49  0.  0.
451  4.50  0.  0.
452  4.51  0.  0.
453  4.52  0.  0.
454  4.53  0.  0.
455  4.54  0.  0.
456  4.55  0.  0.
457  4.56  0.  0.
458  4.57  0.  0.
459  4.58  0.  0.
460  4.59  0.  0.
461  4.60  0.  0.
462  4.61  0.  0.
463  4.62  0.  0.
464  4.63  0.  0.
465  4.64  0.  0.
466  4.65  0.  0.
467  4.66  0.  0.
468  4.67  0.  0.
469  4.68  0.  0.
470  4.69  0.  0.
471  4.70  0.  0.
472  4.71  0.  0.
473  4.72  0.  0.
474  4.73  0.  0.
475  4.74  0.  0.
476  4.75  0.  0.
477  4.76  0.  0.
478  4.77  0.  0.
479  4.78  0.  0.
480  4.79  0.  0.
481  4.80  0.  0.
482  4.81  0.  0.
483  4.82  0.  0.
484  4.83  0.  0.
485  4.84  0.  0.
486  4.85  0.  0.
487  4.86  0.  0.
488  4.87  0.  0.
489  4.88  0.  0.
490  4.89  0.  0.
491  4.90  0.  0.
492  4.91  0.  0.
493  4.92  0.  0.
494  4.93  0.  0.
495  4.94  0.  0.
496  4.95  0.  0.
497  4.96  0.  0.
498  4.97  0.  0.
499  4.98  0.  0.
500  4.99  0.  0.
501  5.00  0.  0.
502  5.01  0.  0.
503  5.02  0.  0.
504  5.03  0.  0.
505  5.04  0.  0.
506  5.05  0.  0.
507  5.06  0.  0.
508  5.07  0.  0.
509  5.08  0.  0.
510  5.09  0.  0.
511  5.10  0.  0.
512  5.11  0.  0.
513  5.12  0.  0.
514  5.13  0.  0.
515  5.14  0.  0.
516  5.15  0.  0.
517  5.16  0.  0.
518  5.17  0.  0.
519  5.18  0.  0.
520  5.19  0.  0.
521  5.20  0.  0.
522  5.21  0.  0.
523  5.22  0.  0.
524  5.23  0.  0.
525  5.24  0.  0.
526  5.25  0.  0.
527  5.26  0.  0.
528  5.27  0.  0.
529  5.28  0.  0.
530  5.29  0.  0.
531  5.30  0.  0.
532  5.31  0.  0.
533  5.32  0.  0.
534  5.33  0.  0.
535  5.34  0.  0.
536  5.35  0.  0.
537  5.36  0.  0.
538  5.37  0.  0.
539  5.38  0.  0.
540  5.39  0.  0.
541  5.40  0.  0.
542  5.41  0.  0.
543  5.42  0.  0.
544  5.43  0.  0.
545  5.44  0.  0.
546  5.45  0.  0.
547  5.46  0.  0.
548  5.47  0.  0.
549  5.48  0.  0.
550  5.49  0.  0.
551  5.50  0.  0.
552  5.51  0.  0.
553  5.52  0.  0.
554  5.53  0.  0.
555  5.54  0.  0.
556  5.55  0.  0.
557  5.56  0.  0.
558  5.57  0.  0.
559  5.58  0.  0.
560  5.59  0.  0.
561  5.60  0.  0.
562  5.61  0.  0.
563  5.62  0.  0.
564  5.63  0.  0.
565  5.64  0.  0.
566  5.65  0.  0.
567  5.66  0.  0.
568  5.67  0.  0.
569  5.68  0.  0.
570  5.69  0.  0.
571  5.70  0.  0.
572  5.71  0.  0.
573  5.72  0.  0.
574  5.73  0.  0.
575  5.74  0.  0.
576  5.75  0.  0.
577  5.76  0.  0.
578  5.77  0.  0.
579  5.78  0.  0.
580  5.79  0.  0.
581  5.80  0.  0.
582  5.81  0.  0.
583  5.82  0.  0.
584  5.83  0.  0.
585  5.84  0.  0.
586  5.85  0.  0.
587  5.86  0.  0.
588  5.87  0.  0.
589  5.88  0.  0.
590  5.89  0.  0.
591  5.90  0.  0.
592  5.91  0.  0.
593  5.92  0.  0.
594  5.93  0.  0.
595  5.94  0.  0.
596  5.95  0.  0.
597  5.96  0.  0.
598  5.97  0.  0.
599  5.98  0.  0.
600  5.99  0.  0.
1                         5.4028167733468E+00  1.0100134363940E+00  8.9059432870954E-03
1  0.0000000000000E+00  2.6200136227228E-08 -3.4730885251077E-08  4.0094683795289E-08
2  1.0000000000000E-02  2.0779532409295E-03 -1.9656536097738E-03  1.6282942082282E-03
3  2.0000000000000E-02  8.2749793059464E-03 -7.8161696754044E-03  6.4602304841988E-03
4  3.0000000000000E-02  1.8481341184775E-02 -1.7413212553229E-02  1.4338133764451E-02
5  4.0000000000000E-02  3.2516674920592E-02 -3.0529531094962E-02  2.5003068533259E-02
6  5.0000000000000E-02  5.0133732314692E-02 -4.6853849460639E-02  3.8100540775598E-02
7  6.0000000000000E-02  7.1023514034212E-02 -6.5997572577381E-02  5.3188317514776E-02
8  7.0000000000000E-02  9.4821688972533E-02 -8.7503167961617E-02  6.9746204598195E-02
9  8.0000000000000E-02  1.2111616951184E-01 -1.1085405089155E-01  8.7187583300025E-02
10  9.0000000000000E-02  1.4945568871031E-01 -1.3548576864120E-01  1.0487247014412E-01
11  1.0000000000000E-01  1.7935920485101E-01 -1.6079825229543E-01  1.2212183282878E-01
12  1.1000000000000E-01  2.1032594165574E-01 -1.8616888210528E-01  1.3823286888544E-01
13  1.2000000000000E-01  2.4184585912810E-01 -2.1096609487312E-01  1.5249493324858E-01
14  1.3000000000000E-01  2.7341034071476E-01 -2.3456324983591E-01  1.6420578666973E-01
15  1.4000000000000E-01  3.0452287745462E-01 -2.5635246319442E-01  1.7268782916594E-01
16  1.5000000000000E-01  3.3470952912866E-01 -2.7575812095727E-01  1.7730398161900E-01
17  1.6000000000000E-01  3.6352894615401E-01 -2.9224978515619E-01  1.7747288427700E-01
18  1.7000000000000E-01  3.9058174402097E-01 -3.0535421965461E-01  1.7268309315944E-01
19  1.8000000000000E-01  4.1551903430564E-01 -3.1466627851058E-01  1.6250597401147E-01
20  1.9000000000000E-01  4.3804993247522E-01 -3.1985842185505E-01  1.4660701814760E-01
21  2.0000000000000E-01  4.5794788253240E-01 -3.2068865108829E-01  1.2475533480344E-01
22  2.1000000000000E-01  4.7505566164227E-01 -3.1700668636732E-01  9.6831109905997E-02
23  2.2000000000000E-01  4.8928895380686E-01 -3.0875824425320E-01  6.2830860802754E-02
24  2.3000000000000E-01  5.0063840990198E-01 -2.9598731133287E-01  2.2870359700007E-02
25  2.4000000000000E-01  5.0917014142062E-01 -2.7883634988599E-01 -2.2814855479768E-02
26  2.5000000000000E-01  5.1502462649670E-01 -2.5754441344551E-01 -7.3871416291042E-02
27  2.6000000000000E-01  5.1841403860376E-01 -2.3244319258009E-01 -1.2983248972315E-01
28  2.7000000000000E-01  5.1961804011389E-01 -2.0395105356930E-01 -1.9012451089599E-01
29  2.8000000000000E-01  5.1897811403980E-01 -1.7256517400773E-01 -2.5407617069130E-01
30  2.9000000000000E-01  5.1689053715358E-01 -1.3885191893827E-01 -3.2092950064777E-01
31  3.0000000000000E-01  5.1379812568805E-01 -1.0343563808385E-01 -3.8985285438705E-01
32  3.1000000000000E-01  5.1018091042251E-01 -6.6986098373387E-02 -4.5995554544199E-01
33  3.2000000000000E-01  5.0654592062035E-01 -3.0204795556652E-02 -5.3030386641646E-01
34  3.3000000000000E-01  5.0341627556100E-01  6.1895863369312E-03 -5.9993818462431E-01
35  3.4000000000000E-01  5.0131979789788E-01  4.1476279142593E-02 -6.6789078534265E-01
36  3.5000000000000E-01  5.0077737445102E-01  7.4947795544968E-02 -7.3320411607690E-01
37  3.6000000000000E-01  5.0229129706167E-01  1.0592524383890E-01 -7.9494907415452E-01
38  3.7000000000000E-01  5.0633381863117E-01  1.3377327921426E-01 -8.5224297579862E-01
39  3.8000000000000E-01  5.1333615736088E-01  1.5791438232826E-01 -9.0426684771032E-01
40  3.9000000000000E-01  5.2367817551317E-01  1.7784216611513E-01 -9.5028169210143E-01
41  4.0000000000000E-01  5.3767894782610E-01  1.9313342798927E-01 -9.8964339292050E-01
42  4.1000000000000E-01  5.5558841922180E-01  2.0345868655297E-01 -1.0218159544337E+00
43  4.2000000000000E-01  5.7758033192162E-01  2.0859096924156E-01 -1.0463827929480E+00
44  4.3000000000000E-01  6.0374657886976E-01  2.0841264953494E-01 -1.0630558377739E+00
45  4.4000000000000E-01  6.3409311389476E-01  2.0292016884836E-01 -1.0716822378739E+00
46  4.5000000000000E-01  6.6853751979240E-01  1.9222651830945E-01 -1.0722485153033E+00
47  4.6000000000000E-01  7.0690830404059E-01  1.7656139858256E-01 -1.0648820546748E+00
48  4.7000000000000E-01  7.4894595874705E-01  1.5626902090354E-01 -1.0498498685905E+00
49  4.8000000000000E-01  7.9430578731144E-01  1.3180355867942E-01 -1.0275546313122E+00
50  4.9000000000000E-01  8.4256246580503E-01  1.0372230550133E-01 -9.9852802590259E-01
51  5.0000000000000E-01  8.9321627289551E-01  7.2676641313970E-02 -9.6342150264608E-01
52  5.1000000000000E-01  9.4570088893167E-01  3.9400952885783E-02 -9.2299459774682E-01
53  5.2000000000000E-01  9.9939263320065E-01  4.6996967542773E-03 -8.7810101010377E-01
54  5.3000000000000E-01  1.0536209789985E+00 -3.0567168353415E-02 -8.2967267942882E-01
55  5.4000000000000E-01  1.1076801595961E+00 -6.5500117787550E-02 -7.7870215020566E-01
56  5.5000000000000E-01  1.1608416549716E+00 -9.9177073954500E-02 -7.2622354216468E-01
57  5.6000000000000E-01  1.2123673297843E+00 -1.3067117921950E-01 -6.7329247833382E-01
58  5.7000000000000E-01  1.2615229778989E+00 -1.5906899299051E-01 -6.2096534569507E-01
59  5.8000000000000E-01  1.3075920181433E+00 -1.8348876456525E-01 -5.7027828051441E-01
60  5.9000000000000E-01  1.3498890801571E+00 -2.0309842723405E-01 -5.2222628014067E-01
61  6.0000000000000E-01  1.3877732182960E+00 -2.1713295981082E-01 -4.7774284523096E-01
62  6.1000000000000E-01  1.4206604956793E+00 -2.2491076926815E-01 -4.3768055085753E-01
63  6.2000000000000E-01  1.4480356895478E+00 -2.2584876240472E-01 -4.0279293181365E-01
64  6.3000000000000E-01  1.4694628830244E+00 -2.1947579527090E-01 -3.7371804685010E-01
65  6.4000000000000E-01  1.4845947269106E+00 -2.0544421608893E-01 -3.5096405885940E-01
66  6.5000000000000E-01  1.4931801779940E+00 -1.8353925017678E-01 -3.3489713364633E-01
67  6.6000000000000E-01  1.4950705470957E+00 -1.5368601335124E-01 -3.2573191946679E-01
68  6.7000000000000E-01  1.4902237202765E+00 -1.1595398277933E-01 -3.2352482369228E-01
69  6.8000000000000E-01  1.4787064497021E+00 -7.0558800500039E-02 -3.2817025258299E-01
70  6.9000000000000E-01  1.4606946460439E+00 -1.7861334016581E-02 -3.3939992613075E-01
71  7.0000000000000E-01  1.4364716413146E+00  4.1636030448113E-02 -3.5678532325157E-01
72  7.1000000000000E-01  1.4064244290171E+00  1.0729583417688E-01 -3.7974325430388E-01
73  7.2000000000000E-01  1.3710379267156E+00  1.7835465146283E-01 -4.0754449906764E-01
74  7.3000000000000E-01  1.3308873439034E+00  2.5393472274217E-01 -4.3932539002850E-01
75  7.4000000000000E-01  1.2866287746189E+00  3.3305793414735E-01 -4.7410216418239E-01
76  7.5000000000000E-01  1.2389881689561E+00  4.1466191555272E-01 -5.1078785267014E-01
77  7.6000000000000E-01  1.1887488697606E+00  4.9761798622005E-01 -5.4821142740357E-01
78  7.7000000000000E-01  1.1367379297603E+00  5.8075063878900E-01 -5.8513887843180E-01
79  7.8000000000000E-01  1.0838114495920E+00  6.6285821936875E-01 -6.2029585599690E-01
80  7.9000000000000E-01  1.0308391981332E+00  7.4273443454585E-01 -6.5239147783734E-01
81  8.0000000000000E-01  9.7868879281160E-01  8.1919029580376E-01 -6.8014287599766E-01
82  8.1000000000000E-01  9.2820972878789E-01  8.9107609859676E-01 -7.0230003873588E-01
83  8.2000000000000E-01  8.8021755184609E-01  9.5730302745997E-01 -7.1767049250777E-01
84  8.3000000000000E-01  8.3547847031109E-01  1.0168639802526E+00 -7.2514336670954E-01
85  8.4000000000000E-01  7.9469469630045E-01  1.0688532139694E+00 -7.2371238999522E-01
86  8.5000000000000E-01  7.5849079614254E-01  1.1124844314196E+00 -7.1249738150936E-01
87  8.6000000000000E-01  7.2740131401055E-01  1.1471069522248E+00 -6.9076382309145E-01
88  8.7000000000000E-01  7.0185991197642E-01  1.1722196426510E+00 -6.5794012906369E-01
89  8.8000000000000E-01  6.8219024412800E-01  1.1874823162555E+00 -6.1363226811079E-01
90  8.9000000000000E-01  6.6859875254970E-01  1.1927243605674E+00 -5.5763543636070E-01
91  9.0000000000000E-01  6.6116953936254E-01  1.1879503932751E+00 -4.8994253130590E-01
92  9.1000000000000E-01  6.5986143224516E-01  1.1733428038336E+00 -4.1074923179208E-01
93  9.2000000000000E-01  6.6450732157012E-01  1.1492610920794E+00 -3.2045554895107E-01
94  9.3000000000000E-01  6.7481580619766E-01  1.1162379733658E+00 -2.1966377561194E-01
95  9.4000000000000E-01  6.9037514281958E-01  1.0749722788426E+00 -1.0917282625293E-01
96  9.5000000000000E-01  7.1065945130800E-01  1.0263187387334E+00  1.0030975204332E-02
97  9.6000000000000E-01  7.3503708659377E-01  9.7127479468784E-01  1.3678653772225E-01
98  9.7000000000000E-01  7.6278104693092E-01  9.1096464346873E-01  2.6977389047811E-01
99  9.8000000000000E-01  7.9308124979232E-01  8.4662076725868E-01  4.0753306987129E-01
100  9.9000000000000E-01  8.2505847078746E-01  7.7956325478334E-01  5.4848570462168E-01
101  1.0000000000000E+00  8.5777970861034E-01  7.1117726125702E-01  6.9095894617304E-01
102  1.0100000000000E+00  8.9027471069625E-01  6.4288899307049E-01  8.3321134637138E-01
103  1.0200000000000E+00  9.2155337059323E-01  5.7614063434013E-01  9.7346024605821E-01
104  1.0300000000000E+00  9.5062368947941E-01  5.1236465632837E-01  1.1099102074885E+00
105  1.0400000000000E+00  9.7650998115831E-01  4.5295796682641E-01  1.2407820009736E+00
106  1.0500000000000E+00  9.9827099255054E-01  3.9925636445917E-01  1.3643416423527E+00
107  1.0600000000000E+00  1.0150176103178E+00  3.5250976235907E-01  1.4789289730941E+00
108  1.0700000000000E+00  1.0259298288978E+00  3.1385863665230E-01  1.5829852791709E+00
109  1.0800000000000E+00  1.0302726658452E+00  2.8431213782239E-01  1.6750794583429E+00
110  1.0900000000000E+00  1.0274107267890E+00  2.6472827753656E-01  1.7539322678546E+00
111  1.1000000000000E+00  1.0168211443606E+00  2.5579657020413E-01  1.8184382156190E+00
112  1.1100000000000E+00  9.9810464255997E-01  2.5802346821234E-01  1.8676846969087E+00
113  1.1200000000000E+00  9.7099451007203E-01  2.7172088266081E-01  1.9009680251975E+00