Ta    ONCVPSP-4.0.1  r_core=   1.70472   1.70472   1.70472   2.25818
     73.0000     13.0000      250217    zatom,zion,pspd
     8       2   3     4   600     0    pspcod,pspxc,lmax,lloc,mmax,r2well
  5.99000000  5.00000000  0.00000000    rchrg fchrg qchrg
     2     3     2     2    nproj
     3     1           extension_switch
     3     4     4    nprojso
   0                         1.0462416749578E+01  1.2791638281061E+00
     1  0.0000000000000E+00  7.5973449753519E-10 -1.8658635539404E-09
     2  1.0000000000000E-02  5.5838931299039E-02 -4.4839829394469E-03
     3  2.0000000000000E-02  1.1163797417348E-01 -9.0292725916565E-03
     4  3.0000000000000E-02  1.6735654982350E-01 -1.3695316551058E-02
     5  4.0000000000000E-02  2.2295271153217E-01 -1.8537875488778E-02
     6  5.0000000000000E-02  2.7838249259309E-01 -2.3607257489962E-02
     7  6.0000000000000E-02  3.3359929195227E-01 -2.8946644400715E-02
     8  7.0000000000000E-02  3.8855330922911E-01 -3.4590538627667E-02
     9  8.0000000000000E-02  4.4319104002180E-01 -4.0563356967302E-02
    10  9.0000000000000E-02  4.9745484147389E-01 -4.6878195763179E-02
    11  1.0000000000000E-01  5.5128257699601E-01 -5.3535789030525E-02
    12  1.1000000000000E-01  6.0460734781508E-01 -6.0523678190246E-02
    13  1.2000000000000E-01  6.5735731768082E-01 -6.7815608762201E-02
    14  1.3000000000000E-01  7.0945563561710E-01 -7.5371165831254E-02
    15  1.4000000000000E-01  7.6082046008375E-01 -8.3135656371378E-02
    16  1.5000000000000E-01  8.1136508633651E-01 -9.1040242650183E-02
    17  1.6000000000000E-01  8.6099817716213E-01 -9.9002326996268E-02
    18  1.7000000000000E-01  9.0962409554663E-01 -1.0692618425518E-01
    19  1.8000000000000E-01  9.5714333623088E-01 -1.1470383434584E-01
    20  1.9000000000000E-01  1.0034530515443E+00 -1.2221614351847E-01
    21  2.0000000000000E-01  1.0484476654076E+00 -1.2933413926494E-01
    22  2.1000000000000E-01  1.0920195679801E+00 -1.3592052039935E-01
    23  2.2000000000000E-01  1.1340598821235E+00 -1.4183134066355E-01
    24  2.3000000000000E-01  1.1744592916721E+00 -1.4691784136801E-01
    25  2.4000000000000E-01  1.2131089204687E+00 -1.5102840609760E-01
    26  2.5000000000000E-01  1.2499012502529E+00 -1.5401060843385E-01
    27  2.6000000000000E-01  1.2847310647944E+00 -1.5571332200254E-01
    28  2.7000000000000E-01  1.3174964071508E+00 -1.5598886097600E-01
    29  2.8000000000000E-01  1.3480995366201E+00 -1.5469511846294E-01
    30  2.9000000000000E-01  1.3764478718393E+00 -1.5169767001680E-01
    31  3.0000000000000E-01  1.4024549065716E+00 -1.4687180979428E-01
    32  3.1000000000000E-01  1.4260410850156E+00 -1.4010448769436E-01
    33  3.2000000000000E-01  1.4471346239594E+00 -1.3129611709726E-01
    34  3.3000000000000E-01  1.4656722697860E+00 -1.2036222458389E-01
    35  3.4000000000000E-01  1.4815999792007E+00 -1.0723491522716E-01
    36  3.5000000000000E-01  1.4948735135893E+00 -9.1864129673454E-02
    37  3.6000000000000E-01  1.5054589381083E+00 -7.4218672241256E-02
    38  3.7000000000000E-01  1.5133330179391E+00 -5.4286992608257E-02
    39  3.8000000000000E-01  1.5184835055927E+00 -3.2077707291046E-02
    40  3.9000000000000E-01  1.5209093146982E+00 -7.6198509893528E-03
    41  4.0000000000000E-01  1.5206205773382E+00  1.9037148088447E-02
    42  4.1000000000000E-01  1.5176385836685E+00  4.7823770639604E-02
    43  4.2000000000000E-01  1.5119956042679E+00  7.8650983924570E-02
    44  4.3000000000000E-01  1.5037345973663E+00  1.1141108796413E-01
    45  4.4000000000000E-01  1.4929088047846E+00  1.4597881943600E-01
    46  4.5000000000000E-01  1.4795812420491E+00  1.8221269843296E-01
    47  4.6000000000000E-01  1.4638240897019E+00  2.1995659944302E-01
    48  4.7000000000000E-01  1.4457179942877E+00  2.5904152436899E-01
    49  4.8000000000000E-01  1.4253512888337E+00  2.9928755217459E-01
    50  4.9000000000000E-01  1.4028191438374E+00  3.4050593687873E-01
    51  5.0000000000000E-01  1.3782226608099E+00  3.8250132316560E-01
    52  5.1000000000000E-01  1.3516679212803E+00  4.2507404687615E-01
    53  5.2000000000000E-01  1.3232650048327E+00  4.6802248613027E-01
    54  5.3000000000000E-01  1.2931269902093E+00  5.1114542782714E-01
    55  5.4000000000000E-01  1.2613689537657E+00  5.5424441380098E-01
    56  5.5000000000000E-01  1.2281069795980E+00  5.9712603098504E-01
    57  5.6000000000000E-01  1.1934571954790E+00  6.3960411056107E-01
    58  5.7000000000000E-01  1.1575348483393E+00  6.8150180223814E-01
    59  5.8000000000000E-01  1.1204534324162E+00  7.2265349150521E-01
    60  5.9000000000000E-01  1.0823238823747E+00  7.6290652991029E-01
    61  6.0000000000000E-01  1.0432538426934E+00  8.0212275111002E-01
    62  6.1000000000000E-01  1.0033470234141E+00  8.4017974857019E-01
    63  6.2000000000000E-01  9.6270265100242E-01  8.7697189433465E-01
    64  6.3000000000000E-01  9.2141502156290E-01  9.1241108217046E-01
    65  6.4000000000000E-01  8.7957316203539E-01  9.4642718258248E-01
    66  6.5000000000000E-01  8.3726060327766E-01  9.7896820161201E-01
    67  6.6000000000000E-01  7.9455526714825E-01  1.0100001399257E+00
    68  6.7000000000000E-01  7.5152946786578E-01  1.0395065533948E+00
    69  6.8000000000000E-01  7.0825002606445E-01  1.0674878210913E+00
    70  6.9000000000000E-01  6.6477849212024E-01  1.0939601313121E+00
    71  7.0000000000000E-01  6.2117147351469E-01  1.1189542008188E+00
    72  7.1000000000000E-01  5.7748105926289E-01  1.1425137468705E+00
    73  7.2000000000000E-01  5.3375533278586E-01  1.1646937357680E+00
    74  7.3000000000000E-01  4.9003896308174E-01  1.1855584354500E+00
    75  7.4000000000000E-01  4.4637386266908E-01  1.2051793031252E+00
    76  7.5000000000000E-01  4.0279989956331E-01  1.2236327419286E+00
    77  7.6000000000000E-01  3.5935564952202E-01  1.2409977631115E+00
    78  7.7000000000000E-01  3.1607917397757E-01  1.2573535922582E+00
    79  7.8000000000000E-01  2.7300880847759E-01  1.2727772594422E+00
    80  7.9000000000000E-01  2.3018394609079E-01  1.2873412140533E+00
    81  8.0000000000000E-01  1.8764580011221E-01  1.3011110052287E+00
    82  8.1000000000000E-01  1.4543813052624E-01  1.3141430683955E+00
    83  8.2000000000000E-01  1.0360791905642E-01  1.3264826573733E+00
    84  8.3000000000000E-01  6.2205978247074E-02  1.3381619598037E+00
    85  8.4000000000000E-01  2.1287480876366E-02  1.3491984313887E+00
    86  8.5000000000000E-01 -1.9087602916314E-02  1.3595933815505E+00
    87  8.6000000000000E-01 -5.8854172107675E-02  1.3693308397149E+00
    88  8.7000000000000E-01 -9.7941774694351E-02  1.3783767275072E+00
    89  8.8000000000000E-01 -1.3627450917065E-01  1.3866783577906E+00
    90  8.9000000000000E-01 -1.7377105389706E-01  1.3941642767229E+00
    91  9.0000000000000E-01 -2.1034482871697E-01  1.4007444599373E+00
    92  9.1000000000000E-01 -2.4590429111755E-01  1.4063108686232E+00
    93  9.2000000000000E-01 -2.8035336709752E-01  1.4107383657850E+00
    94  9.3000000000000E-01 -3.1359201473050E-01  1.4138859873532E+00
    95  9.4000000000000E-01 -3.4551691623063E-01  1.4155985572169E+00
    96  9.5000000000000E-01 -3.7602229216879E-01  1.4157086296994E+00
    97  9.6000000000000E-01 -4.0500082938742E-01  1.4140387376120E+00
    98  9.7000000000000E-01 -4.3234471215061E-01  1.4104039188691E+00
    99  9.8000000000000E-01 -4.5794674417642E-01  1.4046144898093E+00
   100  9.9000000000000E-01 -4.8170154745999E-01  1.3964790289233E+00
   101  1.0000000000000E+00 -5.0350682223689E-01  1.3858075307085E+00
   102  1.0100000000000E+00 -5.2326465108276E-01  1.3724146859187E+00
   103  1.0200000000000E+00 -5.4088282902126E-01  1.3561232416155E+00
   104  1.0300000000000E+00 -5.5627620063677E-01  1.3367673922044E+00
   105  1.0400000000000E+00 -5.6936798457887E-01  1.3141961510952E+00
   106  1.0500000000000E+00 -5.8009106551541E-01  1.2882766518012E+00
   107  1.0600000000000E+00 -5.8838923354872E-01  1.2588973271986E+00
   108  1.0700000000000E+00 -5.9421835136085E-01  1.2259709163280E+00
   109  1.0800000000000E+00 -5.9754742989792E-01  1.1894372495246E+00
   110  1.0900000000000E+00 -5.9835959424094E-01  1.1492657648192E+00
   111  1.1000000000000E+00 -5.9665292242692E-01  1.1054577114161E+00
   112  1.1100000000000E+00 -5.9244114137489E-01  1.0580479996158E+00
   113  1.1200000000000E+00 -5.8575416571410E-01  1.0071066607576E+00
   114  1.1300000000000E+00 -5.7663846719027E-01  9.5273988555630E-01
   115  1.1400000000000E+00 -5.6515726441504E-01  8.9509061454766E-01
   116  1.1500000000000E+00 -5.5139052499581E-01  8.3433866015692E-01
   117  1.1600000000000E+00 -5.3543477451025E-01  7.7070034609763E-01
   118  1.1700000000000E+00 -5.1740270933716E-01  7.0442765630408E-01
   119  1.1800000000000E+00 -4.9742261298646E-01  6.3580689230733E-01
   120  1.1900000000000E+00 -4.7563757825951E-01  5.6515684481271E-01
   121  1.2000000000000E+00 -4.5220454025639E-01  4.9282649207458E-01
   122  1.2100000000000E+00 -4.2729312792738E-01  4.1919224448562E-01
   123  1.2200000000000E+00 -4.0108434445660E-01  3.4465476138725E-01
   124  1.2300000000000E+00 -3.7376908927664E-01  2.6963537248961E-01
   125  1.2400000000000E+00 -3.4554653687042E-01  1.9457214227903E-01
   126  1.2500000000000E+00 -3.1662238970015E-01  1.1991562133179E-01
   127  1.2600000000000E+00 -2.8720702458905E-01  4.6124333491445E-02
   128  1.2700000000000E+00 -2.5751355361548E-01 -2.6339947743482E-02
   129  1.2800000000000E+00 -2.2775582205516E-01 -9.7017076538586E-02
   130  1.2900000000000E+00 -1.9814636709371E-01 -1.6545350567428E-01
   131  1.3000000000000E+00 -1.6889436190296E-01 -2.3120728886226E-01
   132  1.3100000000000E+00 -1.4020357022435E-01 -2.9385305079080E-01
   133  1.3200000000000E+00 -1.1227033681446E-01 -3.5298686075368E-01
   134  1.3300000000000E+00 -8.5281638972132E-02 -4.0823094609279E-01
   135  1.3400000000000E+00 -5.9413223891522E-02 -4.5923818292351E-01
   136  1.3500000000000E+00 -3.4827855759543E-02 -5.0569630374509E-01
   137  1.3600000000000E+00 -1.1673695361117E-02 -5.4733176450680E-01
   138  1.3700000000000E+00  9.9171665289599E-03 -5.8391321750734E-01
   139  1.3800000000000E+00  2.9830002463714E-02 -6.1525454104951E-01
   140  1.3900000000000E+00  4.7968550930335E-02 -6.4121738209783E-01
   141  1.4000000000000E+00  6.4255913141219E-02 -6.6171317410610E-01
   142  1.4100000000000E+00  7.8635231466107E-02 -6.7670459871832E-01
   143  1.4200000000000E+00  9.1070139708353E-02 -6.8620646705302E-01
   144  1.4300000000000E+00  1.0154497833546E-01 -6.9028600369434E-01
   145  1.4400000000000E+00  1.1006477080934E-01 -6.8906252424792E-01
   146  1.4500000000000E+00  1.1665496026222E-01 -6.8270650521764E-01
   147  1.4600000000000E+00  1.2136090891169E-01 -6.7143805297299E-01
   148  1.4700000000000E+00  1.2424716575126E-01 -6.5552478657435E-01
   149  1.4800000000000E+00  1.2539651113492E-01 -6.3527915706383E-01
   150  1.4900000000000E+00  1.2490878988300E-01 -6.1105523347715E-01
   151  1.5000000000000E+00  1.2289954740006E-01 -5.8324499310787E-01
   152  1.5100000000000E+00  1.1949848598824E-01 -5.5227416039148E-01
   153  1.5200000000000E+00  1.1484776102431E-01 -5.1859764508086E-01
   154  1.5300000000000E+00  1.0910013890594E-01 -4.8269463605460E-01
   155  1.5400000000000E+00  1.0241704063272E-01 -4.4506341206049E-01
   156  1.5500000000000E+00  9.4966496541645E-02 -4.0621593487632E-01
   157  1.5600000000000E+00  8.6921039041612E-02 -3.6667229370674E-01
   158  1.5700000000000E+00  7.8455561164922E-02 -3.2695507207725E-01
   159  1.5800000000000E+00  6.9745169601491E-02 -2.8758371067037E-01
   160  1.5900000000000E+00  6.0963065644791E-02 -2.4906895009382E-01
   161  1.6000000000000E+00  5.2278418273036E-02 -2.1190727458564E-01
   162  1.6100000000000E+00  4.3854556268706E-02 -1.7657614123610E-01
   163  1.6200000000000E+00  3.5845875100368E-02 -1.4352592446641E-01
   164  1.6300000000000E+00  2.8387501390069E-02 -1.1315480649972E-01
   165  1.6400000000000E+00  2.1602869409874E-02 -8.5824369633262E-02
   166  1.6500000000000E+00  1.5607838038250E-02 -6.1868693653692E-02
   167  1.6600000000000E+00  1.0498434874046E-02 -4.1566743112684E-02
   168  1.6700000000000E+00  6.3506360969835E-03 -2.5141409967239E-02
   169  1.6800000000000E+00  3.2205211696206E-03 -1.2761691810902E-02
   170  1.6900000000000E+00  1.1300544245182E-03 -4.4867462760699E-03
   171  1.7000000000000E+00  1.4159670788229E-04 -5.6400369750745E-04
   172  1.7100000000000E+00 -2.4532600064267E-05  9.7886593130513E-05
   173  1.7200000000000E+00  7.9882321662151E-06 -3.1817312699653E-05
   174  1.73  0.  0.
   175  1.74  0.  0.
   176  1.75  0.  0.
   177  1.76  0.  0.
   178  1.77  0.  0.
   179  1.78  0.  0.
   180  1.79  0.  0.
   181  1.80  0.  0.
   182  1.81  0.  0.
   183  1.82  0.  0.
   184  1.83  0.  0.
   185  1.84  0.  0.
   186  1.85  0.  0.
   187  1.86  0.  0.
   188  1.87  0.  0.
   189  1.88  0.  0.
   190  1.89  0.  0.
   191  1.90  0.  0.
   192  1.91  0.  0.
   193  1.92  0.  0.
   194  1.93  0.  0.
   195  1.94  0.  0.
   196  1.95  0.  0.
   197  1.96  0.  0.
   198  1.97  0.  0.
   199  1.98  0.  0.
   200  1.99  0.  0.
   201  2.00  0.  0.
   202  2.01  0.  0.
   203  2.02  0.  0.
   204  2.03  0.  0.
   205  2.04  0.  0.
   206  2.05  0.  0.
   207  2.06  0.  0.
   208  2.07  0.  0.
   209  2.08  0.  0.
   210  2.09  0.  0.
   211  2.10  0.  0.
   212  2.11  0.  0.
   213  2.12  0.  0.
   214  2.13  0.  0.
   215  2.14  0.  0.
   216  2.15  0.  0.
   217  2.16  0.  0.
   218  2.17  0.  0.
   219  2.18  0.  0.
   220  2.19  0.  0.
   221  2.20  0.  0.
   222  2.21  0.  0.
   223  2.22  0.  0.
   224  2.23  0.  0.
   225  2.24  0.  0.
   226  2.25  0.  0.
   227  2.26  0.  0.
   228  2.27  0.  0.
   229  2.28  0.  0.
   230  2.29  0.  0.
   231  2.30  0.  0.
   232  2.31  0.  0.
   233  2.32  0.  0.
   234  2.33  0.  0.
   235  2.34  0.  0.
   236  2.35  0.  0.
   237  2.36  0.  0.
   238  2.37  0.  0.
   239  2.38  0.  0.
   240  2.39  0.  0.
   241  2.40  0.  0.
   242  2.41  0.  0.
   243  2.42  0.  0.
   244  2.43  0.  0.
   245  2.44  0.  0.
   246  2.45  0.  0.
   247  2.46  0.  0.
   248  2.47  0.  0.
   249  2.48  0.  0.
   250  2.49  0.  0.
   251  2.50  0.  0.
   252  2.51  0.  0.
   253  2.52  0.  0.
   254  2.53  0.  0.
   255  2.54  0.  0.
   256  2.55  0.  0.
   257  2.56  0.  0.
   258  2.57  0.  0.
   259  2.58  0.  0.
   260  2.59  0.  0.
   261  2.60  0.  0.
   262  2.61  0.  0.
   263  2.62  0.  0.
   264  2.63  0.  0.
   265  2.64  0.  0.
   266  2.65  0.  0.
   267  2.66  0.  0.
   268  2.67  0.  0.
   269  2.68  0.  0.
   270  2.69  0.  0.
   271  2.70  0.  0.
   272  2.71  0.  0.
   273  2.72  0.  0.
   274  2.73  0.  0.
   275  2.74  0.  0.
   276  2.75  0.  0.
   277  2.76  0.  0.
   278  2.77  0.  0.
   279  2.78  0.  0.
   280  2.79  0.  0.
   281  2.80  0.  0.
   282  2.81  0.  0.
   283  2.82  0.  0.
   284  2.83  0.  0.
   285  2.84  0.  0.
   286  2.85  0.  0.
   287  2.86  0.  0.
   288  2.87  0.  0.
   289  2.88  0.  0.
   290  2.89  0.  0.
   291  2.90  0.  0.
   292  2.91  0.  0.
   293  2.92  0.  0.
   294  2.93  0.  0.
   295  2.94  0.  0.
   296  2.95  0.  0.
   297  2.96  0.  0.
   298  2.97  0.  0.
   299  2.98  0.  0.
   300  2.99  0.  0.
   301  3.00  0.  0.
   302  3.01  0.  0.
   303  3.02  0.  0.
   304  3.03  0.  0.
   305  3.04  0.  0.
   306  3.05  0.  0.
   307  3.06  0.  0.
   308  3.07  0.  0.
   309  3.08  0.  0.
   310  3.09  0.  0.
   311  3.10  0.  0.
   312  3.11  0.  0.
   313  3.12  0.  0.
   314  3.13  0.  0.
   315  3.14  0.  0.
   316  3.15  0.  0.
   317  3.16  0.  0.
   318  3.17  0.  0.
   319  3.18  0.  0.
   320  3.19  0.  0.
   321  3.20  0.  0.
   322  3.21  0.  0.
   323  3.22  0.  0.
   324  3.23  0.  0.
   325  3.24  0.  0.
   326  3.25  0.  0.
   327  3.26  0.  0.
   328  3.27  0.  0.
   329  3.28  0.  0.
   330  3.29  0.  0.
   331  3.30  0.  0.
   332  3.31  0.  0.
   333  3.32  0.  0.
   334  3.33  0.  0.
   335  3.34  0.  0.
   336  3.35  0.  0.
   337  3.36  0.  0.
   338  3.37  0.  0.
   339  3.38  0.  0.
   340  3.39  0.  0.
   341  3.40  0.  0.
   342  3.41  0.  0.
   343  3.42  0.  0.
   344  3.43  0.  0.
   345  3.44  0.  0.
   346  3.45  0.  0.
   347  3.46  0.  0.
   348  3.47  0.  0.
   349  3.48  0.  0.
   350  3.49  0.  0.
   351  3.50  0.  0.
   352  3.51  0.  0.
   353  3.52  0.  0.
   354  3.53  0.  0.
   355  3.54  0.  0.
   356  3.55  0.  0.
   357  3.56  0.  0.
   358  3.57  0.  0.
   359  3.58  0.  0.
   360  3.59  0.  0.
   361  3.60  0.  0.
   362  3.61  0.  0.
   363  3.62  0.  0.
   364  3.63  0.  0.
   365  3.64  0.  0.
   366  3.65  0.  0.
   367  3.66  0.  0.
   368  3.67  0.  0.
   369  3.68  0.  0.
   370  3.69  0.  0.
   371  3.70  0.  0.
   372  3.71  0.  0.
   373  3.72  0.  0.
   374  3.73  0.  0.
   375  3.74  0.  0.
   376  3.75  0.  0.
   377  3.76  0.  0.
   378  3.77  0.  0.
   379  3.78  0.  0.
   380  3.79  0.  0.
   381  3.80  0.  0.
   382  3.81  0.  0.
   383  3.82  0.  0.
   384  3.83  0.  0.
   385  3.84  0.  0.
   386  3.85  0.  0.
   387  3.86  0.  0.
   388  3.87  0.  0.
   389  3.88  0.  0.
   390  3.89  0.  0.
   391  3.90  0.  0.
   392  3.91  0.  0.
   393  3.92  0.  0.
   394  3.93  0.  0.
   395  3.94  0.  0.
   396  3.95  0.  0.
   397  3.96  0.  0.
   398  3.97  0.  0.
   399  3.98  0.  0.
   400  3.99  0.  0.
   401  4.00  0.  0.
   402  4.01  0.  0.
   403  4.02  0.  0.
   404  4.03  0.  0.
   405  4.04  0.  0.
   406  4.05  0.  0.
   407  4.06  0.  0.
   408  4.07  0.  0.
   409  4.08  0.  0.
   410  4.09  0.  0.
   411  4.10  0.  0.
   412  4.11  0.  0.
   413  4.12  0.  0.
   414  4.13  0.  0.
   415  4.14  0.  0.
   416  4.15  0.  0.
   417  4.16  0.  0.
   418  4.17  0.  0.
   419  4.18  0.  0.
   420  4.19  0.  0.
   421  4.20  0.  0.
   422  4.21  0.  0.
   423  4.22  0.  0.
   424  4.23  0.  0.
   425  4.24  0.  0.
   426  4.25  0.  0.
   427  4.26  0.  0.
   428  4.27  0.  0.
   429  4.28  0.  0.
   430  4.29  0.  0.
   431  4.30  0.  0.
   432  4.31  0.  0.
   433  4.32  0.  0.
   434  4.33  0.  0.
   435  4.34  0.  0.
   436  4.35  0.  0.
   437  4.36  0.  0.
   438  4.37  0.  0.
   439  4.38  0.  0.
   440  4.39  0.  0.
   441  4.40  0.  0.
   442  4.41  0.  0.
   443  4.42  0.  0.
   444  4.43  0.  0.
   445  4.44  0.  0.
   446  4.45  0.  0.
   447  4.46  0.  0.
   448  4.47  0.  0.
   449  4.48  0.  0.
   450  4.49  0.  0.
   451  4.50  0.  0.
   452  4.51  0.  0.
   453  4.52  0.  0.
   454  4.53  0.  0.
   455  4.54  0.  0.
   456  4.55  0.  0.
   457  4.56  0.  0.
   458  4.57  0.  0.
   459  4.58  0.  0.
   460  4.59  0.  0.
   461  4.60  0.  0.
   462  4.61  0.  0.
   463  4.62  0.  0.
   464  4.63  0.  0.
   465  4.64  0.  0.
   466  4.65  0.  0.
   467  4.66  0.  0.
   468  4.67  0.  0.
   469  4.68  0.  0.
   470  4.69  0.  0.
   471  4.70  0.  0.
   472  4.71  0.  0.
   473  4.72  0.  0.
   474  4.73  0.  0.
   475  4.74  0.  0.
   476  4.75  0.  0.
   477  4.76  0.  0.
   478  4.77  0.  0.
   479  4.78  0.  0.
   480  4.79  0.  0.
   481  4.80  0.  0.
   482  4.81  0.  0.
   483  4.82  0.  0.
   484  4.83  0.  0.
   485  4.84  0.  0.
   486  4.85  0.  0.
   487  4.86  0.  0.
   488  4.87  0.  0.
   489  4.88  0.  0.
   490  4.89  0.  0.
   491  4.90  0.  0.
   492  4.91  0.  0.
   493  4.92  0.  0.
   494  4.93  0.  0.
   495  4.94  0.  0.
   496  4.95  0.  0.
   497  4.96  0.  0.
   498  4.97  0.  0.
   499  4.98  0.  0.
   500  4.99  0.  0.
   501  5.00  0.  0.
   502  5.01  0.  0.
   503  5.02  0.  0.
   504  5.03  0.  0.
   505  5.04  0.  0.
   506  5.05  0.  0.
   507  5.06  0.  0.
   508  5.07  0.  0.
   509  5.08  0.  0.
   510  5.09  0.  0.
   511  5.10  0.  0.
   512  5.11  0.  0.
   513  5.12  0.  0.
   514  5.13  0.  0.
   515  5.14  0.  0.
   516  5.15  0.  0.
   517  5.16  0.  0.
   518  5.17  0.  0.
   519  5.18  0.  0.
   520  5.19  0.  0.
   521  5.20  0.  0.
   522  5.21  0.  0.
   523  5.22  0.  0.
   524  5.23  0.  0.
   525  5.24  0.  0.
   526  5.25  0.  0.
   527  5.26  0.  0.
   528  5.27  0.  0.
   529  5.28  0.  0.
   530  5.29  0.  0.
   531  5.30  0.  0.
   532  5.31  0.  0.
   533  5.32  0.  0.
   534  5.33  0.  0.
   535  5.34  0.  0.
   536  5.35  0.  0.
   537  5.36  0.  0.
   538  5.37  0.  0.
   539  5.38  0.  0.
   540  5.39  0.  0.
   541  5.40  0.  0.
   542  5.41  0.  0.
   543  5.42  0.  0.
   544  5.43  0.  0.
   545  5.44  0.  0.
   546  5.45  0.  0.
   547  5.46  0.  0.
   548  5.47  0.  0.
   549  5.48  0.  0.
   550  5.49  0.  0.
   551  5.50  0.  0.
   552  5.51  0.  0.
   553  5.52  0.  0.
   554  5.53  0.  0.
   555  5.54  0.  0.
   556  5.55  0.  0.
   557  5.56  0.  0.
   558  5.57  0.  0.
   559  5.58  0.  0.
   560  5.59  0.  0.
   561  5.60  0.  0.
   562  5.61  0.  0.
   563  5.62  0.  0.
   564  5.63  0.  0.
   565  5.64  0.  0.
   566  5.65  0.  0.
   567  5.66  0.  0.
   568  5.67  0.  0.
   569  5.68  0.  0.
   570  5.69  0.  0.
   571  5.70  0.  0.
   572  5.71  0.  0.
   573  5.72  0.  0.
   574  5.73  0.  0.
   575  5.74  0.  0.
   576  5.75  0.  0.
   577  5.76  0.  0.
   578  5.77  0.  0.
   579  5.78  0.  0.
   580  5.79  0.  0.
   581  5.80  0.  0.
   582  5.81  0.  0.
   583  5.82  0.  0.
   584  5.83  0.  0.
   585  5.84  0.  0.
   586  5.85  0.  0.
   587  5.86  0.  0.
   588  5.87  0.  0.
   589  5.88  0.  0.
   590  5.89  0.  0.
   591  5.90  0.  0.
   592  5.91  0.  0.
   593  5.92  0.  0.
   594  5.93  0.  0.
   595  5.94  0.  0.
   596  5.95  0.  0.
   597  5.96  0.  0.
   598  5.97  0.  0.
   599  5.98  0.  0.
   600  5.99  0.  0.
   1                         1.0366950573967E+01  1.5035778691624E+00  3.6536867849793E-02
     1  0.0000000000000E+00 -4.5088096728430E-09  5.7266008740564E-09 -1.2009204311547E-08
     2  1.0000000000000E-02  1.0340741548897E-03  2.7879061977289E-04 -6.2558225447854E-04
     3  2.0000000000000E-02  4.1385120005118E-03  1.1083008808061E-03 -2.4837072721050E-03
     4  3.0000000000000E-02  9.3198342875301E-03  2.4681134441586E-03 -5.5188878391222E-03
     5  4.0000000000000E-02  1.6588493596219E-02  4.3247542500474E-03 -9.6398983780146E-03
     6  5.0000000000000E-02  2.5958260508357E-02  6.6325131206221E-03 -1.4721630355793E-02
     7  6.0000000000000E-02  3.7445382429484E-02  9.3345695157224E-03 -2.0607641777578E-02
     8  7.0000000000000E-02  5.1067532838219E-02  1.2364400867046E-02 -2.7113353706820E-02
     9  8.0000000000000E-02  6.6842573248175E-02  1.5647445189559E-02 -3.4029834744268E-02
    10  9.0000000000000E-02  8.4787154262833E-02  1.9102984467513E-02 -4.1128103435952E-02
    11  1.0000000000000E-01  1.0491518570817E-01  2.2646210732755E-02 -4.8163868852498E-02
    12  1.1000000000000E-01  1.2723620887331E-01  2.6190432882075E-02 -5.4882621269472E-02
    13  1.2000000000000E-01  1.5175370631802E-01  2.9649379191438E-02 -6.1024978125730E-02
    14  1.3000000000000E-01  1.7846338647057E-01  3.2939548237822E-02 -6.6332185368431E-02
    15  1.4000000000000E-01  2.0735148130343E-01  3.5982559579319E-02 -7.0551671001929E-02
    16  1.5000000000000E-01  2.3839309571725E-01  3.8707455098676E-02 -7.3442546203811E-02
    17  1.6000000000000E-01  2.7155064687210E-01  4.1052902399021E-02 -7.4780949790985E-02
    18  1.7000000000000E-01  3.0677243058490E-01  4.2969253046514E-02 -7.4365134103410E-02
    19  1.8000000000000E-01  3.4399135007818E-01  4.4420410764647E-02 -7.2020194494053E-02
    20  1.9000000000000E-01  3.8312383984658E-01  4.5385467859123E-02 -6.7602350501395E-02
    21  2.0000000000000E-01  4.2406901424695E-01  4.5860072139804E-02 -6.1002694340189E-02
    22  2.1000000000000E-01  4.6670806666609E-01  4.5857491337825E-02 -5.2150331450510E-02
    23  2.2000000000000E-01  5.1090394084428E-01  4.5409347409833E-02 -4.1014848337289E-02
    24  2.3000000000000E-01  5.5650129120404E-01  4.4565999084933E-02 -2.7608054643319E-02
    25  2.4000000000000E-01  6.0332674393598E-01  4.3396557435580E-02 -1.1984959112567E-02
    26  2.5000000000000E-01  6.5118946521608E-01  4.1988526030596E-02  5.7560473820575E-03
    27  2.6000000000000E-01  6.9988203736653E-01  4.0447064233355E-02  2.5473814501834E-02
    28  2.7000000000000E-01  7.4918163812458E-01  3.8893879316093E-02  4.6985859161042E-02
    29  2.8000000000000E-01  7.9885151255158E-01  3.7465760143850E-02  7.0070580210663E-02
    30  2.9000000000000E-01  8.4864272159979E-01  3.6312772109061E-02  9.4470230727779E-02
    31  3.0000000000000E-01  8.9829614605804E-01  3.5596139643202E-02  1.1989460371967E-01
    32  3.1000000000000E-01  9.4754471961529E-01  3.5485848872083E-02  1.4602537390401E-01
    33  3.2000000000000E-01  9.9611586020819E-01  3.6158008698745E-02  1.7252102599485E-01
    34  3.3000000000000E-01  1.0437340647385E+00  3.7792013684395E-02  1.9902228882671E-01
    35  3.4000000000000E-01  1.0901236287382E+00  4.0567556454714E-02  2.2515798489085E-01
    36  3.5000000000000E-01  1.1350114496940E+00  4.4661540899627E-02  2.5055119661572E-01
    37  3.6000000000000E-01  1.1781298705712E+00  5.0244950087462E-02  2.7482564414783E-01
    38  3.7000000000000E-01  1.2192195186560E+00  5.7479724521361E-02  2.9761216461413E-01
    39  3.8000000000000E-01  1.2580320941841E+00  6.6515707085926E-02  3.1855517995973E-01
    40  3.9000000000000E-01  1.2943330633775E+00  7.7487710741576E-02  3.3731903952370E-01
    41  4.0000000000000E-01  1.3279042114616E+00  9.0512763716448E-02  3.5359412457008E-01
    42  4.1000000000000E-01  1.3585460129875E+00  1.0568758463290E-01  3.6710260502608E-01
    43  4.2000000000000E-01  1.3860797793040E+00  1.2308633671700E-01  3.7760374365829E-01
    44  4.3000000000000E-01  1.4103495462841E+00  1.4275870602248E-01  3.8489864976731E-01
    45  4.4000000000000E-01  1.4312236693580E+00  1.6472834351954E-01  3.8883439309771E-01
    46  4.5000000000000E-01  1.4485960974784E+00  1.8899170503292E-01  3.8930739890791E-01
    47  4.6000000000000E-01  1.4623873027673E+00  2.1551731645983E-01  3.8626605685656E-01
    48  4.7000000000000E-01  1.4725448481899E+00  2.4424548456102E-01  3.7971248935139E-01
    49  4.8000000000000E-01  1.4790435815684E+00  2.7508846602153E-01  3.6970343905196E-01
    50  4.9000000000000E-01  1.4818854504929E+00  3.0793109954607E-01  3.5635025009211E-01
    51  5.0000000000000E-01  1.4810989390977E+00  3.4263189762723E-01  3.3981793303331E-01
    52  5.1000000000000E-01  1.4767381341422E+00  3.7902458644222E-01  3.2032331932100E-01
    53  5.2000000000000E-01  1.4688814342483E+00  4.1692007424031E-01  2.9813232681679E-01
    54  5.3000000000000E-01  1.4576299223910E+00  4.5610882072291E-01  2.7355637355138E-01
    55  5.4000000000000E-01  1.4431054277075E+00  4.9636357243251E-01  2.4694799191352E-01
    56  5.5000000000000E-01  1.4254483082642E+00  5.3744242219300E-01  2.1869570979685E-01
    57  5.6000000000000E-01  1.4048149915125E+00  5.7909214431201E-01  1.8921827850989E-01
    58  5.7000000000000E-01  1.3813753136650E+00  6.2105175168464E-01  1.5895833928935E-01
    59  5.8000000000000E-01  1.3553097030575E+00  6.6305621623822E-01  1.2837563080644E-01
    60  5.9000000000000E-01  1.3268062556481E+00  7.0484029042049E-01  9.7939848946308E-02
    61  6.0000000000000E-01  1.2960577530845E+00  7.4614236474099E-01  6.8123277183455E-02
    62  6.1000000000000E-01  1.2632586751861E+00  7.8670829478682E-01  3.9393310953660E-02
    63  6.2000000000000E-01  1.2286022592190E+00  8.2629513069371E-01  1.2205002410364E-02
    64  6.3000000000000E-01  1.1922776579457E+00  8.6467468278479E-01 -1.3006247200587E-02
    65  6.4000000000000E-01  1.1544672471330E+00  9.0163685899631E-01 -3.5831721658391E-02
    66  6.5000000000000E-01  1.1153441309772E+00  9.3699271277592E-01 -5.5896028010408E-02
    67  6.6000000000000E-01  1.0750698908194E+00  9.7057714432635E-01 -7.2863222237688E-02
    68  6.7000000000000E-01  1.0337926185841E+00  1.0022512033207E+00 -8.6442313366570E-02
    69  6.8000000000000E-01  9.9164527166566E-01  1.0319039474563E+00 -9.6392046725018E-02
    70  6.9000000000000E-01  9.4874438056653E-01  1.0594538183515E+00 -1.0252487852048E-01
    71  7.0000000000000E-01  9.0518913454669E-01  1.0848495042069E+00 -1.0471006701191E-01
    72  7.1000000000000E-01  8.6106086397860E-01  1.1080702672317E+00 -1.0287582005698E-01
    73  7.2000000000000E-01  8.1642293111415E-01  1.1291257229283E+00 -9.7010454500953E-02
    74  7.3000000000000E-01  7.7132103368385E-01  1.1480550677909E+00 -8.7162539473993E-02
    75  7.4000000000000E-01  7.2578391828110E-01  1.1649257616476E+00 -7.3440012906855E-02
    76  7.5000000000000E-01  6.7982449296762E-01  1.1798316805886E+00 -5.6008278169032E-02
    77  7.6000000000000E-01  6.3344132109601E-01  1.1928907660205E+00 -3.5087305383007E-02
    78  7.7000000000000E-01  5.8662047111605E-01  1.2042422046880E+00 -1.0947779366217E-02
    79  7.8000000000000E-01  5.3933769023911E-01  1.2140431833549E+00  1.6093646993780E-02
    80  7.9000000000000E-01  4.9156086340546E-01  1.2224652700690E+00  4.5679919121322E-02
    81  8.0000000000000E-01  4.4325271315080E-01  1.2296904814013E+00  7.7419877196806E-02
    82  8.1000000000000E-01  3.9437369080999E-01  1.2359071016156E+00  1.1089517947869E-01
    83  8.2000000000000E-01  3.4488500512888E-01  1.2413053252445E+00  1.4566773746343E-01
    84  8.3000000000000E-01  2.9475173086548E-01  1.2460727989384E+00  1.8128753784455E-01
    85  8.4000000000000E-01  2.4394593742378E-01  1.2503901415917E+00  2.1730071827751E-01
    86  8.5000000000000E-01  1.9244977603565E-01  1.2544265235902E+00  2.5325775820351E-01
    87  8.6000000000000E-01  1.4025846353004E-01  1.2583353864922E+00  2.8872164255457E-01
    88  8.7000000000000E-01  8.7383101329039E-02  1.2622503835324E+00  3.2327585513725E-01
    89  8.8000000000000E-01  3.3853269993875E-02  1.2662816190227E+00  3.5653205990991E-01
    90  8.9000000000000E-01 -2.0280657602160E-02  1.2705122610159E+00  3.8813733223605E-01
    91  9.0000000000000E-01 -7.4945537601321E-02  1.2749955965593E+00  4.1778080847273E-01
    92  9.1000000000000E-01 -1.3004385932967E-01  1.2797525925463E+00  4.4519963084509E-01