Ta    ONCVPSP-4.0.1  r_core=   1.70472   1.70472   1.70472   2.25818
     73.0000     13.0000      250925    zatom,zion,pspd
     8   -1012   3     4   600     0    pspcod,pspxc,lmax,lloc,mmax,r2well
  5.99000000  5.00000000  0.00000000    rchrg fchrg qchrg
     2     3     2     2    nproj
     3     1           extension_switch
     3     4     4    nprojso
   0                         1.0397061405939E+01  1.2695979502644E+00
     1  0.0000000000000E+00  7.5250405906502E-10 -1.8618871722165E-09
     2  1.0000000000000E-02  5.5814088705605E-02 -4.6523605705147E-03
     3  2.0000000000000E-02  1.1158807472438E-01 -9.3656117689509E-03
     4  3.0000000000000E-02  1.6728117196775E-01 -1.4198789066590E-02
     5  4.0000000000000E-02  2.2285124025709E-01 -1.9207248871413E-02
     6  5.0000000000000E-02  2.7825413986722E-01 -2.4440906638010E-02
     7  6.0000000000000E-02  3.3344312343195E-01 -2.9942566801025E-02
     8  7.0000000000000E-02  3.8836827676800E-01 -3.5746372917819E-02
     9  8.0000000000000E-02  4.4297601942089E-01 -4.1876404544091E-02
    10  9.0000000000000E-02  4.9720867481695E-01 -4.8345445091900E-02
    11  1.0000000000000E-01  5.5100411883287E-01 -5.5153942266589E-02
    12  1.1000000000000E-01  6.0429551438428E-01 -6.2289179687776E-02
    13  1.2000000000000E-01  6.5701113830501E-01 -6.9724675014523E-02
    14  1.3000000000000E-01  7.0907430536002E-01 -7.7419816365539E-02
    15  1.4000000000000E-01  7.6040339272744E-01 -8.5319745105060E-02
    16  1.5000000000000E-01  8.1091196672222E-01 -9.3355489210029E-02
    17  1.6000000000000E-01  8.6050901193841E-01 -1.0144434750254E-01
    18  1.7000000000000E-01  9.0909926138302E-01 -1.0949052108278E-01
    19  1.8000000000000E-01  9.5658362458614E-01 -1.1738598439224E-01
    20  1.9000000000000E-01  1.0028597091230E+00 -1.2501158453365E-01
    21  2.0000000000000E-01  1.0478224294976E+00 -1.3223835383140E-01
    22  2.1000000000000E-01  1.0913646959360E+00 -1.3892901719036E-01
    23  2.2000000000000E-01  1.1333781743450E+00 -1.4493967265372E-01
    24  2.3000000000000E-01  1.1737541075212E+00 -1.5012162072249E-01
    25  2.4000000000000E-01  1.2123841866753E+00 -1.5432331552255E-01
    26  2.5000000000000E-01  1.2491614614695E+00 -1.5739240883163E-01
    27  2.6000000000000E-01  1.2839812760791E+00 -1.5917785633868E-01
    28  2.7000000000000E-01  1.3167422182840E+00 -1.5953205433080E-01
    29  2.8000000000000E-01  1.3473470682810E+00 -1.5831297430677E-01
    30  2.9000000000000E-01  1.3757037337982E+00 -1.5538626281528E-01
    31  3.0000000000000E-01  1.4017261581783E+00 -1.5062727411431E-01
    32  3.1000000000000E-01  1.4253351883841E+00 -1.4392300404562E-01
    33  3.2000000000000E-01  1.4464593903680E+00 -1.3517389480326E-01
    34  3.3000000000000E-01  1.4650357999189E+00 -1.2429548203288E-01
    35  3.4000000000000E-01  1.4810105979602E+00 -1.1121985790314E-01
    36  3.5000000000000E-01  1.4943397002971E+00 -9.5896926412617E-02
    37  3.6000000000000E-01  1.5049892529920E+00 -7.8295430196492E-02
    38  3.7000000000000E-01  1.5129360258683E+00 -5.8403731434896E-02
    39  3.8000000000000E-01  1.5181676980777E+00 -3.6230333089343E-02
    40  3.9000000000000E-01  1.5206830312027E+00 -1.1804130552802E-02
    41  4.0000000000000E-01  1.5204919269760E+00  1.4825612164500E-02
    42  4.1000000000000E-01  1.5176153683615E+00  4.3589563438518E-02
    43  4.2000000000000E-01  1.5120852444271E+00  7.4398899740734E-02
    44  4.3000000000000E-01  1.5039440611330E+00  1.0714614937067E-01
    45  4.4000000000000E-01  1.4932445418223E+00  1.4170629340276E-01
    46  4.5000000000000E-01  1.4800491228173E+00  1.7793810904739E-01
    47  4.6000000000000E-01  1.4644293510696E+00  2.1568573683373E-01
    48  4.7000000000000E-01  1.4464651922555E+00  2.5478044948476E-01
    49  4.8000000000000E-01  1.4262442590340E+00  2.9504259713192E-01
    50  4.9000000000000E-01  1.4038609703694E+00  3.3628370065643E-01
    51  5.0000000000000E-01  1.3794156538471E+00  3.7830866249486E-01
    52  5.1000000000000E-01  1.3530136037581E+00  4.2091806224836E-01
    53  5.2000000000000E-01  1.3247641083921E+00  4.6391050292104E-01
    54  5.3000000000000E-01  1.2947794604325E+00  5.0708497261227E-01
    55  5.4000000000000E-01  1.2631739646018E+00  5.5024318601790E-01
    56  5.5000000000000E-01  1.2300629567376E+00  5.9319187016989E-01
    57  5.6000000000000E-01  1.1955618483010E+00  6.3574495946549E-01
    58  5.7000000000000E-01  1.1597852099207E+00  6.7772566620163E-01
    59  5.8000000000000E-01  1.1228459069725E+00  7.1896839452436E-01
    60  5.9000000000000E-01  1.0848542993816E+00  7.5932046790746E-01
    61  6.0000000000000E-01  1.0459175168362E+00  7.9864364295837E-01
    62  6.1000000000000E-01  1.0061388194182E+00  8.3681538547775E-01
    63  6.2000000000000E-01  9.6561705231862E-01  8.7372988822929E-01
    64  6.3000000000000E-01  9.2444620181952E-01  9.0929881375595E-01
    65  6.4000000000000E-01  8.8271505811995E-01  9.4345174975572E-01
    66  6.5000000000000E-01  8.4050698888216E-01  9.7613636894078E-01
    67  6.6000000000000E-01  7.9789982559979E-01  1.0073182898853E+00
    68  6.7000000000000E-01  7.5496586307041E-01  1.0369806400507E+00
    69  6.8000000000000E-01  7.1177197041695E-01  1.0651233268921E+00
    70  6.9000000000000E-01  6.6837981027548E-01  1.0917620276266E+00
    71  7.0000000000000E-01  6.2484616097666E-01  1.1169269128067E+00
    72  7.1000000000000E-01  5.8122333482537E-01  1.1406611232259E+00
    73  7.2000000000000E-01  5.3755968395254E-01  1.1630190238136E+00
    74  7.3000000000000E-01  4.9390018370165E-01  1.1840642619928E+00
    75  7.4000000000000E-01  4.5028708214573E-01  1.2038676614061E+00
    76  7.5000000000000E-01  4.0676060312837E-01  1.2225049849188E+00
    77  7.6000000000000E-01  3.6335968920842E-01  1.2400546033211E+00
    78  7.7000000000000E-01  3.2012277007665E-01  1.2565951081312E+00
    79  7.8000000000000E-01  2.7708854142159E-01  1.2722029083194E+00
    80  7.9000000000000E-01  2.3429673886060E-01  1.2869498515908E+00
    81  8.0000000000000E-01  1.9178889143019E-01  1.3009009110649E+00
    82  8.1000000000000E-01  1.4960903925185E-01  1.3141119777686E+00
    83  8.2000000000000E-01  1.0780440035575E-01  1.3266277982998E+00
    84  8.3000000000000E-01  6.6425972254728E-02  1.3384800953460E+00
    85  8.4000000000000E-01  2.5529054705932E-02  1.3496859064594E+00
    86  8.5000000000000E-01 -1.4826318830491E-02  1.3602461736287E+00
    87  8.6000000000000E-01 -5.4575052240839E-02  1.3701446127867E+00
    88  8.7000000000000E-01 -9.3646770039698E-02  1.3793468884878E+00
    89  8.8000000000000E-01 -1.3196572095018E-01  1.3878001146386E+00
    90  8.9000000000000E-01 -1.6945080803706E-01  1.3954326974274E+00
    91  9.0000000000000E-01 -2.0601574970740E-01  1.4021545315325E+00
    92  9.1000000000000E-01 -2.4156937385265E-01  1.4078575553779E+00
    93  9.2000000000000E-01 -2.7601604529397E-01  1.4124166657145E+00
    94  9.3000000000000E-01 -3.0925622454094E-01  1.4156909862180E+00
    95  9.4000000000000E-01 -3.4118715371277E-01  1.4175254791979E+00
    96  9.5000000000000E-01 -3.7170366333481E-01  1.4177528839807E+00
    97  9.6000000000000E-01 -4.0069909164340E-01  1.4161959601526E+00
    98  9.7000000000000E-01 -4.2806630604093E-01  1.4126700087081E+00
    99  9.8000000000000E-01 -4.5369881447174E-01  1.4069856393217E+00
   100  9.9000000000000E-01 -4.7749195276845E-01  1.3989517475277E+00
   101  1.0000000000000E+00 -4.9934413247438E-01  1.3883786616176E+00
   102  1.0100000000000E+00 -5.1915813230771E-01  1.3750814156244E+00
   103  1.0200000000000E+00 -5.3684241532012E-01  1.3588831019023E+00
   104  1.0300000000000E+00 -5.5231245293532E-01  1.3396182545966E+00
   105  1.0400000000000E+00 -5.6549203644948E-01  1.3171362137540E+00
   106  1.0500000000000E+00 -5.7631455624872E-01  1.2913044190024E+00
   107  1.0600000000000E+00 -5.8472422895618E-01  1.2620115816352E+00
   108  1.0700000000000E+00 -5.9067725297074E-01  1.2291706845920E+00
   109  1.0800000000000E+00 -5.9414287339722E-01  1.1927217612340E+00
   110  1.0900000000000E+00 -5.9510433819762E-01  1.1526344059562E+00
   111  1.1000000000000E+00 -5.9355972849750E-01  1.1089099725403E+00
   112  1.1100000000000E+00 -5.8952264735905E-01  1.0615834197062E+00
   113  1.1200000000000E+00 -5.8302275295868E-01  1.0107247675131E+00
   114  1.1300000000000E+00 -5.7410612396645E-01  9.5644013305635E-01
   115  1.1400000000000E+00 -5.6283544699407E-01  8.9887231922860E-01
   116  1.1500000000000E+00 -5.4929001822711E-01  8.3820093610442E-01
   117  1.1600000000000E+00 -5.3356555376040E-01  7.7464204068516E-01
   118  1.1700000000000E+00 -5.1577380567805E-01  7.0844728722385E-01
   119  1.1800000000000E+00 -4.9604198352444E-01  6.3990258704042E-01
   120  1.1900000000000E+00 -4.7451198347477E-01  5.6932628357202E-01
   121  1.2000000000000E+00 -4.5133943017247E-01  4.9706685522526E-01
   122  1.2100000000000E+00 -4.2669253885556E-01  4.2350016540482E-01
   123  1.2200000000000E+00 -4.0075080795870E-01  3.4902628566656E-01
   124  1.2300000000000E+00 -3.7370355486459E-01  2.7406592431354E-01
   125  1.2400000000000E+00 -3.4574830981245E-01  1.9905649872778E-01
   126  1.2500000000000E+00 -3.1708908513334E-01  1.2444789526145E-01
   127  1.2600000000000E+00 -2.8793453894936E-01  5.0697965537871E-02
   128  1.2700000000000E+00 -2.5849605418961E-01 -2.1732187606514E-02
   129  1.2800000000000E+00 -2.2898575523891E-01 -9.2383077579815E-02
   130  1.2900000000000E+00 -1.9961448570927E-01 -1.6080179494659E-01
   131  1.3000000000000E+00 -1.7058977168745E-01 -2.2654699966243E-01
   132  1.3100000000000E+00 -1.4211379535679E-01 -2.8919388113072E-01
   133  1.3200000000000E+00 -1.1438140410091E-01 -3.4833902207427E-01
   134  1.3300000000000E+00 -8.7578180063124E-02 -4.0360510258812E-01
   135  1.3400000000000E+00 -6.1878594665220E-02 -4.5464538197596E-01
   136  1.3500000000000E+00 -3.7444271771520E-02 -5.0114789810107E-01
   137  1.3600000000000E+00 -1.4422382040699E-02 -5.4283932694431E-01
   138  1.3700000000000E+00  7.0558104618891E-03 -5.7948844885990E-01
   139  1.3800000000000E+00  2.6876230076208E-02 -6.1090917255438E-01
   140  1.3900000000000E+00  4.4943082530825E-02 -6.3696307312792E-01
   141  1.4000000000000E+00  6.1179744138605E-02 -6.5756140642376E-01
   142  1.4100000000000E+00  7.5529434781061E-02 -6.7266656845331E-01
   143  1.4200000000000E+00  8.7955664977048E-02 -6.8229297565643E-01
   144  1.4300000000000E+00  9.8442450210163E-02 -6.8650734915298E-01
   145  1.4400000000000E+00  1.0699428869454E-01 -6.8542839386039E-01
   146  1.4500000000000E+00  1.1363590182881E-01 -6.7922587123234E-01
   147  1.4600000000000E+00  1.1841173970471E-01 -6.6811907237054E-01
   148  1.4700000000000E+00  1.2138525714866E-01 -6.5237470624179E-01
   149  1.4800000000000E+00  1.2263796882698E-01 -6.3230422555607E-01
   150  1.4900000000000E+00  1.2226829492426E-01 -6.0826062049273E-01
   151  1.5000000000000E+00  1.2039021174015E-01 -5.8063471772258E-01
   152  1.5100000000000E+00  1.1713172421626E-01 -5.4985102899478E-01
   153  1.5200000000000E+00  1.1263317986506E-01 -5.1636319984837E-01
   154  1.5300000000000E+00  1.0704544578867E-01 -4.8064911466629E-01
   155  1.5400000000000E+00  1.0052797241585E-01 -4.4320571923992E-01
   156  1.5500000000000E+00  9.3246769224163E-02 -4.0454362618329E-01
   157  1.5600000000000E+00  8.5372319025747E-02 -3.6518157186577E-01
   158  1.5700000000000E+00  7.7077458359922E-02 -3.2564079596983E-01
   159  1.5800000000000E+00  6.8535252374405E-02 -2.8643941695847E-01
   160  1.5900000000000E+00  5.9916897301802E-02 -2.4808688726613E-01
   161  1.6000000000000E+00  5.1389615044084E-02 -2.1107844934108E-01
   162  1.6100000000000E+00  4.3114863812940E-02 -1.7589037563323E-01
   163  1.6200000000000E+00  3.5245275939341E-02 -1.4297193041542E-01
   164  1.6300000000000E+00  2.7914417464398E-02 -1.1272030940746E-01
   165  1.6400000000000E+00  2.1244307362380E-02 -8.5496209075675E-02
   166  1.6500000000000E+00  1.5349500632939E-02 -6.1632908577672E-02
   167  1.6600000000000E+00  1.0324935852881E-02 -4.1408705581084E-02
   168  1.6700000000000E+00  6.2457191059171E-03 -2.5045962218277E-02
   169  1.6800000000000E+00  3.1672687530447E-03 -1.2713270542898E-02
   170  1.6900000000000E+00  1.1113301706821E-03 -4.4697172465810E-03
   171  1.7000000000000E+00  1.3924239672080E-04 -5.6186052279449E-04
   172  1.7100000000000E+00 -2.4123911342307E-05  9.7514346432877E-05
   173  1.7200000000000E+00  7.8554154583854E-06 -3.1696420801111E-05
   174  1.73  0.  0.
   175  1.74  0.  0.
   176  1.75  0.  0.
   177  1.76  0.  0.
   178  1.77  0.  0.
   179  1.78  0.  0.
   180  1.79  0.  0.
   181  1.80  0.  0.
   182  1.81  0.  0.
   183  1.82  0.  0.
   184  1.83  0.  0.
   185  1.84  0.  0.
   186  1.85  0.  0.
   187  1.86  0.  0.
   188  1.87  0.  0.
   189  1.88  0.  0.
   190  1.89  0.  0.
   191  1.90  0.  0.
   192  1.91  0.  0.
   193  1.92  0.  0.
   194  1.93  0.  0.
   195  1.94  0.  0.
   196  1.95  0.  0.
   197  1.96  0.  0.
   198  1.97  0.  0.
   199  1.98  0.  0.
   200  1.99  0.  0.
   201  2.00  0.  0.
   202  2.01  0.  0.
   203  2.02  0.  0.
   204  2.03  0.  0.
   205  2.04  0.  0.
   206  2.05  0.  0.
   207  2.06  0.  0.
   208  2.07  0.  0.
   209  2.08  0.  0.
   210  2.09  0.  0.
   211  2.10  0.  0.
   212  2.11  0.  0.
   213  2.12  0.  0.
   214  2.13  0.  0.
   215  2.14  0.  0.
   216  2.15  0.  0.
   217  2.16  0.  0.
   218  2.17  0.  0.
   219  2.18  0.  0.
   220  2.19  0.  0.
   221  2.20  0.  0.
   222  2.21  0.  0.
   223  2.22  0.  0.
   224  2.23  0.  0.
   225  2.24  0.  0.
   226  2.25  0.  0.
   227  2.26  0.  0.
   228  2.27  0.  0.
   229  2.28  0.  0.
   230  2.29  0.  0.
   231  2.30  0.  0.
   232  2.31  0.  0.
   233  2.32  0.  0.
   234  2.33  0.  0.
   235  2.34  0.  0.
   236  2.35  0.  0.
   237  2.36  0.  0.
   238  2.37  0.  0.
   239  2.38  0.  0.
   240  2.39  0.  0.
   241  2.40  0.  0.
   242  2.41  0.  0.
   243  2.42  0.  0.
   244  2.43  0.  0.
   245  2.44  0.  0.
   246  2.45  0.  0.
   247  2.46  0.  0.
   248  2.47  0.  0.
   249  2.48  0.  0.
   250  2.49  0.  0.
   251  2.50  0.  0.
   252  2.51  0.  0.
   253  2.52  0.  0.
   254  2.53  0.  0.
   255  2.54  0.  0.
   256  2.55  0.  0.
   257  2.56  0.  0.
   258  2.57  0.  0.
   259  2.58  0.  0.
   260  2.59  0.  0.
   261  2.60  0.  0.
   262  2.61  0.  0.
   263  2.62  0.  0.
   264  2.63  0.  0.
   265  2.64  0.  0.
   266  2.65  0.  0.
   267  2.66  0.  0.
   268  2.67  0.  0.
   269  2.68  0.  0.
   270  2.69  0.  0.
   271  2.70  0.  0.
   272  2.71  0.  0.
   273  2.72  0.  0.
   274  2.73  0.  0.
   275  2.74  0.  0.
   276  2.75  0.  0.
   277  2.76  0.  0.
   278  2.77  0.  0.
   279  2.78  0.  0.
   280  2.79  0.  0.
   281  2.80  0.  0.
   282  2.81  0.  0.
   283  2.82  0.  0.
   284  2.83  0.  0.
   285  2.84  0.  0.
   286  2.85  0.  0.
   287  2.86  0.  0.
   288  2.87  0.  0.
   289  2.88  0.  0.
   290  2.89  0.  0.
   291  2.90  0.  0.
   292  2.91  0.  0.
   293  2.92  0.  0.
   294  2.93  0.  0.
   295  2.94  0.  0.
   296  2.95  0.  0.
   297  2.96  0.  0.
   298  2.97  0.  0.
   299  2.98  0.  0.
   300  2.99  0.  0.
   301  3.00  0.  0.
   302  3.01  0.  0.
   303  3.02  0.  0.
   304  3.03  0.  0.
   305  3.04  0.  0.
   306  3.05  0.  0.
   307  3.06  0.  0.
   308  3.07  0.  0.
   309  3.08  0.  0.
   310  3.09  0.  0.
   311  3.10  0.  0.
   312  3.11  0.  0.
   313  3.12  0.  0.
   314  3.13  0.  0.
   315  3.14  0.  0.
   316  3.15  0.  0.
   317  3.16  0.  0.
   318  3.17  0.  0.
   319  3.18  0.  0.
   320  3.19  0.  0.
   321  3.20  0.  0.
   322  3.21  0.  0.
   323  3.22  0.  0.
   324  3.23  0.  0.
   325  3.24  0.  0.
   326  3.25  0.  0.
   327  3.26  0.  0.
   328  3.27  0.  0.
   329  3.28  0.  0.
   330  3.29  0.  0.
   331  3.30  0.  0.
   332  3.31  0.  0.
   333  3.32  0.  0.
   334  3.33  0.  0.
   335  3.34  0.  0.
   336  3.35  0.  0.
   337  3.36  0.  0.
   338  3.37  0.  0.
   339  3.38  0.  0.
   340  3.39  0.  0.
   341  3.40  0.  0.
   342  3.41  0.  0.
   343  3.42  0.  0.
   344  3.43  0.  0.
   345  3.44  0.  0.
   346  3.45  0.  0.
   347  3.46  0.  0.
   348  3.47  0.  0.
   349  3.48  0.  0.
   350  3.49  0.  0.
   351  3.50  0.  0.
   352  3.51  0.  0.
   353  3.52  0.  0.
   354  3.53  0.  0.
   355  3.54  0.  0.
   356  3.55  0.  0.
   357  3.56  0.  0.
   358  3.57  0.  0.
   359  3.58  0.  0.
   360  3.59  0.  0.
   361  3.60  0.  0.
   362  3.61  0.  0.
   363  3.62  0.  0.
   364  3.63  0.  0.
   365  3.64  0.  0.
   366  3.65  0.  0.
   367  3.66  0.  0.
   368  3.67  0.  0.
   369  3.68  0.  0.
   370  3.69  0.  0.
   371  3.70  0.  0.
   372  3.71  0.  0.
   373  3.72  0.  0.
   374  3.73  0.  0.
   375  3.74  0.  0.
   376  3.75  0.  0.
   377  3.76  0.  0.
   378  3.77  0.  0.
   379  3.78  0.  0.
   380  3.79  0.  0.
   381  3.80  0.  0.
   382  3.81  0.  0.
   383  3.82  0.  0.
   384  3.83  0.  0.
   385  3.84  0.  0.
   386  3.85  0.  0.
   387  3.86  0.  0.
   388  3.87  0.  0.
   389  3.88  0.  0.
   390  3.89  0.  0.
   391  3.90  0.  0.
   392  3.91  0.  0.
   393  3.92  0.  0.
   394  3.93  0.  0.
   395  3.94  0.  0.
   396  3.95  0.  0.
   397  3.96  0.  0.
   398  3.97  0.  0.
   399  3.98  0.  0.
   400  3.99  0.  0.
   401  4.00  0.  0.
   402  4.01  0.  0.
   403  4.02  0.  0.
   404  4.03  0.  0.
   405  4.04  0.  0.
   406  4.05  0.  0.
   407  4.06  0.  0.
   408  4.07  0.  0.
   409  4.08  0.  0.
   410  4.09  0.  0.
   411  4.10  0.  0.
   412  4.11  0.  0.
   413  4.12  0.  0.
   414  4.13  0.  0.
   415  4.14  0.  0.
   416  4.15  0.  0.
   417  4.16  0.  0.
   418  4.17  0.  0.
   419  4.18  0.  0.
   420  4.19  0.  0.
   421  4.20  0.  0.
   422  4.21  0.  0.
   423  4.22  0.  0.
   424  4.23  0.  0.
   425  4.24  0.  0.
   426  4.25  0.  0.
   427  4.26  0.  0.
   428  4.27  0.  0.
   429  4.28  0.  0.
   430  4.29  0.  0.
   431  4.30  0.  0.
   432  4.31  0.  0.
   433  4.32  0.  0.
   434  4.33  0.  0.
   435  4.34  0.  0.
   436  4.35  0.  0.
   437  4.36  0.  0.
   438  4.37  0.  0.
   439  4.38  0.  0.
   440  4.39  0.  0.
   441  4.40  0.  0.
   442  4.41  0.  0.
   443  4.42  0.  0.
   444  4.43  0.  0.
   445  4.44  0.  0.
   446  4.45  0.  0.
   447  4.46  0.  0.
   448  4.47  0.  0.
   449  4.48  0.  0.
   450  4.49  0.  0.
   451  4.50  0.  0.
   452  4.51  0.  0.
   453  4.52  0.  0.
   454  4.53  0.  0.
   455  4.54  0.  0.
   456  4.55  0.  0.
   457  4.56  0.  0.
   458  4.57  0.  0.
   459  4.58  0.  0.
   460  4.59  0.  0.
   461  4.60  0.  0.
   462  4.61  0.  0.
   463  4.62  0.  0.
   464  4.63  0.  0.
   465  4.64  0.  0.
   466  4.65  0.  0.
   467  4.66  0.  0.
   468  4.67  0.  0.
   469  4.68  0.  0.
   470  4.69  0.  0.
   471  4.70  0.  0.
   472  4.71  0.  0.
   473  4.72  0.  0.
   474  4.73  0.  0.
   475  4.74  0.  0.
   476  4.75  0.  0.
   477  4.76  0.  0.
   478  4.77  0.  0.
   479  4.78  0.  0.
   480  4.79  0.  0.
   481  4.80  0.  0.
   482  4.81  0.  0.
   483  4.82  0.  0.
   484  4.83  0.  0.
   485  4.84  0.  0.
   486  4.85  0.  0.
   487  4.86  0.  0.
   488  4.87  0.  0.
   489  4.88  0.  0.
   490  4.89  0.  0.
   491  4.90  0.  0.
   492  4.91  0.  0.
   493  4.92  0.  0.
   494  4.93  0.  0.
   495  4.94  0.  0.
   496  4.95  0.  0.
   497  4.96  0.  0.
   498  4.97  0.  0.
   499  4.98  0.  0.
   500  4.99  0.  0.
   501  5.00  0.  0.
   502  5.01  0.  0.
   503  5.02  0.  0.
   504  5.03  0.  0.
   505  5.04  0.  0.
   506  5.05  0.  0.
   507  5.06  0.  0.
   508  5.07  0.  0.
   509  5.08  0.  0.
   510  5.09  0.  0.
   511  5.10  0.  0.
   512  5.11  0.  0.
   513  5.12  0.  0.
   514  5.13  0.  0.
   515  5.14  0.  0.
   516  5.15  0.  0.
   517  5.16  0.  0.
   518  5.17  0.  0.
   519  5.18  0.  0.
   520  5.19  0.  0.
   521  5.20  0.  0.
   522  5.21  0.  0.
   523  5.22  0.  0.
   524  5.23  0.  0.
   525  5.24  0.  0.
   526  5.25  0.  0.
   527  5.26  0.  0.
   528  5.27  0.  0.
   529  5.28  0.  0.
   530  5.29  0.  0.
   531  5.30  0.  0.
   532  5.31  0.  0.
   533  5.32  0.  0.
   534  5.33  0.  0.
   535  5.34  0.  0.
   536  5.35  0.  0.
   537  5.36  0.  0.
   538  5.37  0.  0.
   539  5.38  0.  0.
   540  5.39  0.  0.
   541  5.40  0.  0.
   542  5.41  0.  0.
   543  5.42  0.  0.
   544  5.43  0.  0.
   545  5.44  0.  0.
   546  5.45  0.  0.
   547  5.46  0.  0.
   548  5.47  0.  0.
   549  5.48  0.  0.
   550  5.49  0.  0.
   551  5.50  0.  0.
   552  5.51  0.  0.
   553  5.52  0.  0.
   554  5.53  0.  0.
   555  5.54  0.  0.
   556  5.55  0.  0.
   557  5.56  0.  0.
   558  5.57  0.  0.
   559  5.58  0.  0.
   560  5.59  0.  0.
   561  5.60  0.  0.
   562  5.61  0.  0.
   563  5.62  0.  0.
   564  5.63  0.  0.
   565  5.64  0.  0.
   566  5.65  0.  0.
   567  5.66  0.  0.
   568  5.67  0.  0.
   569  5.68  0.  0.
   570  5.69  0.  0.
   571  5.70  0.  0.
   572  5.71  0.  0.
   573  5.72  0.  0.
   574  5.73  0.  0.
   575  5.74  0.  0.
   576  5.75  0.  0.
   577  5.76  0.  0.
   578  5.77  0.  0.
   579  5.78  0.  0.
   580  5.79  0.  0.
   581  5.80  0.  0.
   582  5.81  0.  0.
   583  5.82  0.  0.
   584  5.83  0.  0.
   585  5.84  0.  0.
   586  5.85  0.  0.
   587  5.86  0.  0.
   588  5.87  0.  0.
   589  5.88  0.  0.
   590  5.89  0.  0.
   591  5.90  0.  0.
   592  5.91  0.  0.
   593  5.92  0.  0.
   594  5.93  0.  0.
   595  5.94  0.  0.
   596  5.95  0.  0.
   597  5.96  0.  0.
   598  5.97  0.  0.
   599  5.98  0.  0.
   600  5.99  0.  0.
   1                         9.0622717565269E+00  1.4130828112241E+00  3.4473617835930E-02
     1  0.0000000000000E+00 -4.2010274009519E-09  5.7909022906782E-09 -1.2120708152430E-08
     2  1.0000000000000E-02  1.0476794951992E-03  2.2911678696021E-04 -6.2418675835130E-04
     3  2.0000000000000E-02  4.1925500428795E-03  9.0969910285555E-04 -2.4779957462672E-03
     4  3.0000000000000E-02  9.4399915442460E-03  2.0216116511425E-03 -5.5055544471665E-03
     5  4.0000000000000E-02  1.6798585340805E-02  3.5318550136357E-03 -9.6150061191912E-03
     6  5.0000000000000E-02  2.6279545025612E-02  5.3953929779205E-03 -1.4680381489110E-02
     7  6.0000000000000E-02  3.7895936520159E-02  7.5562874466841E-03 -2.0544170598467E-02
     8  7.0000000000000E-02  5.1661703980384E-02  9.9491180999499E-03 -2.7020547307016E-02
     9  8.0000000000000E-02  6.7590522296303E-02  1.2500658190298E-02 -3.3899186837764E-02
    10  9.0000000000000E-02  8.5694500764535E-02  1.5131772592107E-02 -4.0949605683869E-02
    11  1.0000000000000E-01  1.0598276587067E-01  1.7759499595896E-02 -4.7925943381055E-02
    12  1.1000000000000E-01  1.2845995395486E-01  2.0299274026430E-02 -5.4572097261132E-02
    13  1.2000000000000E-01  1.5312464679564E-01  2.2667246141770E-02 -6.0627114486403E-02
    14  1.3000000000000E-01  1.7996778478899E-01  2.4782648501461E-02 -6.5830740554122E-02
    15  1.4000000000000E-01  2.0897109338957E-01  2.6570161619961E-02 -6.9929020136237E-02
    16  1.5000000000000E-01  2.4010555879712E-01  2.7962228775977E-02 -7.2679844659537E-02
    17  1.6000000000000E-01  2.7332998850419E-01  2.8901270841471E-02 -7.3858341453831E-02
    18  1.7000000000000E-01  3.0858969127391E-01  2.9341753422305E-02 -7.3262001606416E-02
    19  1.8000000000000E-01  3.4581530940423E-01  2.9252060943867E-02 -7.0715447823926E-02
    20  1.9000000000000E-01  3.8492183378449E-01  2.8616135531838E-02 -6.6074749548322E-02
    21  2.0000000000000E-01  4.2580782930056E-01  2.7434842577261E-02 -5.9231200206769E-02
    22  2.1000000000000E-01  4.6835489464471E-01  2.5727029667091E-02 -5.0114480668279E-02
    23  2.2000000000000E-01  5.1242737659738E-01  2.3530251023152E-02 -3.8695143573597E-02
    24  2.3000000000000E-01  5.5787235443686E-01  2.0901135630119E-02 -2.4986365026213E-02
    25  2.4000000000000E-01  6.0451990537818E-01  1.7915383738589E-02 -9.0449229718360E-03
    26  2.5000000000000E-01  6.5218365692688E-01  1.4667383288718E-02  9.0286247652879E-03
    27  2.6000000000000E-01  7.0066162684521E-01  1.1269444890231E-02  2.9090575612534E-02
    28  2.7000000000000E-01  7.4973734616132E-01  7.8506611881919E-03  5.0955528844982E-02
    29  2.8000000000000E-01  7.9918125539872E-01  4.5554036113073E-03  7.4398627352650E-02
    30  2.9000000000000E-01  8.4875235906083E-01  1.5414765088868E-03  9.9158563883938E-02
    31  3.0000000000000E-01  8.9820011846510E-01 -1.0220445934128E-03  1.2494130710822E-01
    32  3.1000000000000E-01  9.4726655837599E-01 -2.9572575771147E-03  1.5142448957119E-01
    33  3.2000000000000E-01  9.9568855862072E-01 -4.0801223283195E-03  1.7826238727119E-01
    34  3.3000000000000E-01  1.0432002980669E+00 -4.2033493806037E-03  2.0509140938717E-01
    35  3.4000000000000E-01  1.0895358150704E+00 -3.1394402305506E-03  2.3153600684251E-01
    36  3.5000000000000E-01  1.1344316458276E+00 -7.0382737532114E-04  2.5721490007173E-01
    37  3.6000000000000E-01  1.1776295000436E+00  3.2819405568165E-03  2.8174751972618E-01
    38  3.7000000000000E-01  1.2188789320000E+00  8.9870249321842E-03  3.0476054924135E-01
    39  3.8000000000000E-01  1.2579399645025E+00  1.6568191564636E-02  3.2589445527615E-01
    40  3.9000000000000E-01  1.2945856233286E+00  2.6166830264170E-02  3.4480989110622E-01
    41  4.0000000000000E-01  1.3286043406870E+00  3.7906154918196E-02  3.6119385912100E-01
    42  4.1000000000000E-01  1.3598021878305E+00  5.1888637192851E-02  3.7476552164773E-01
    43  4.2000000000000E-01  1.3880048993171E+00  6.8193723604791E-02  3.8528155435679E-01
    44  4.3000000000000E-01  1.4130596544570E+00  8.6875881437080E-02  3.9254094342681E-01
    45  4.4000000000000E-01  1.4348365851595E+00  1.0796301382139E-01  3.9638913635253E-01
    46  4.5000000000000E-01  1.4532299836657E+00  1.3145527836408E-01  3.9672146662939E-01
    47  4.6000000000000E-01  1.4681591884283E+00  1.5732433705117E-01  3.9348578438168E-01
    48  4.7000000000000E-01  1.4795691316207E+00  1.8551305793759E-01  3.8668423811626E-01
    49  4.8000000000000E-01  1.4874305373246E+00  2.1593568142864E-01  3.7637416697202E-01
    50  4.9000000000000E-01  1.4917397652679E+00  2.4847845592920E-01  3.6266807785310E-01
    51  5.0000000000000E-01  1.4925183009676E+00  2.8300073940435E-01  3.4573269743235E-01
    52  5.1000000000000E-01  1.4898118991664E+00  3.1933655510975E-01  3.2578710492399E-01
    53  5.2000000000000E-01  1.4836893934342E+00  3.5729658155458E-01  3.0309996747886E-01
    54  5.3000000000000E-01  1.4742411906334E+00  3.9667054880193E-01  2.7798591577689E-01
    55  5.4000000000000E-01  1.4615774745114E+00  4.3723000563435E-01  2.5080111260402E-01
    56  5.5000000000000E-01  1.4458261478890E+00  4.7873141505309E-01  2.2193808164461E-01
    57  5.6000000000000E-01  1.4271305476602E+00  5.2091952917297E-01  1.9181987712684E-01
    58  5.7000000000000E-01  1.4056469710210E+00  5.6353098893812E-01  1.6089368710372E-01
    59  5.8000000000000E-01  1.3815420549222E+00  6.0629808933050E-01  1.2962397380066E-01
    60  5.9000000000000E-01  1.3549900536248E+00  6.4895264696614E-01  9.8485263424734E-02
    61  6.0000000000000E-01  1.3261700613603E+00  6.9122990425418E-01  6.7954704941197E-02
    62  6.1000000000000E-01  1.2952632284295E+00  7.3287240269363E-01  3.8504522432072E-02
    63  6.2000000000000E-01  1.2624500195652E+00  7.7363375744520E-01  1.0594488666638E-02
    64  6.3000000000000E-01  1.2279075630266E+00  8.1328226606484E-01 -1.5335451648566E-02
    65  6.4000000000000E-01  1.1918071376780E+00  8.5160428622617E-01 -3.8872281836326E-02
    66  6.5000000000000E-01  1.1543118432417E+00  8.8840732037221E-01 -5.9636612897027E-02
    67  6.6000000000000E-01  1.1155744960369E+00  9.2352274948688E-01 -7.7288865034481E-02
    68  6.7000000000000E-01  1.0757357888479E+00  9.5680816350437E-01 -9.1534821064306E-02
    69  6.8000000000000E-01  1.0349227491802E+00  9.8814924220346E-01 -1.0213045149370E-01
    70  6.9000000000000E-01  9.9324752510848E-01  1.0174611476677E+00 -1.0888592265630E-01
    71  7.0000000000000E-01  9.5080652229342E-01  1.0446893974192E+00 -1.1166871252294E-01
    72  7.1000000000000E-01  9.0767990962273E-01  1.0698101960249E+00 -1.1040577346603E-01
    73  7.2000000000000E-01  8.6393150442101E-01  1.0928302121899E+00 -1.0508469709947E-01
    74  7.3000000000000E-01  8.1960904138344E-01  1.1137857979362E+00 -9.5753853087559E-02
    75  7.4000000000000E-01  7.7474482242841E-01  1.1327416562668E+00 -8.2521491231911E-02
    76  7.5000000000000E-01  7.2935673765871E-01  1.1497889735516E+00 -6.5553813915343E-02
    77  7.6000000000000E-01  6.8344964068783E-01  1.1650430425906E+00 -4.5072043808092E-02
    78  7.7000000000000E-01  6.3701705484916E-01  1.1786404117287E+00 -2.1348529307772E-02
    79  7.8000000000000E-01  5.9004318038376E-01  1.1907356043557E+00  5.2980527935843E-03
    80  7.9000000000000E-01  5.4250516670977E-01  1.2014974614568E+00  3.4508321766085E-02
    81  8.0000000000000E-01  4.9437560842646E-01  1.2111051674372E+00  6.5888553843651E-02
    82  8.1000000000000E-01  4.4562521889920E-01  1.2197440260793E+00  9.9017675275730E-02
    83  8.2000000000000E-01  3.9622563120272E-01  1.2276010590788E+00  1.3345477127232E-01
    84  8.3000000000000E-01  3.4615227294856E-01  1.2348605040352E+00  1.6874698449156E-01
    85  8.4000000000000E-01  2.9538725915944E-01  1.2416992919443E+00  2.0443766870208E-01
    86  8.5000000000000E-01  2.4392224593106E-01  1.2482825860830E+00  2.4007465744925E-01
    87  8.6000000000000E-01  1.9176118718022E-01  1.2547594646408E+00  2.7521850410574E-01
    88  8.7000000000000E-01  1.3892293734092E-01  1.2612588285030E+00  3.0945054866134E-01
    89  8.8000000000000E-01  8.5443644441600E-02  1.2678856132229E+00  3.4238066805950E-01
    90  8.9000000000000E-01  3.1378880567336E-02  1.2747173804564E+00  3.7365457080108E-01
    91  9.0000000000000E-01 -2.3194539748252E-02  1.2818013590042E+00  4.0296050289799E-01
    92  9.1000000000000E-01 -7.8177098190875E-02  1.2891519991941E+00  4.3003524094376E-01