Ta    ONCVPSP-4.0.1  r_core=   1.70472   1.70472   1.70472   2.25818
     73.0000     13.0000      231019    zatom,zion,pspd
     8       2   3     4   600     0    pspcod,pspxc,lmax,lloc,mmax,r2well
  5.99000000  5.00000000  0.00000000    rchrg fchrg qchrg
     2     2     2     2     0    nproj
     1     1           extension_switch
   0                         1.0496257619495E+01  1.2874025963848E+00
     1  0.0000000000000E+00  7.6734923970534E-10 -1.8699651549436E-09
     2  1.0000000000000E-02  5.5896684223554E-02 -4.2952411918954E-03
     3  2.0000000000000E-02  1.1175357244959E-01 -8.6521930300639E-03
     4  3.0000000000000E-02  1.6753017119263E-01 -1.3130702687870E-02
     5  4.0000000000000E-02  2.2318460495251E-01 -1.7786921777827E-02
     6  5.0000000000000E-02  2.7867295741072E-01 -2.2671536548050E-02
     7  6.0000000000000E-02  3.3394865071660E-01 -2.7828090298736E-02
     8  7.0000000000000E-02  3.8896187464422E-01 -3.3291426526621E-02
     9  8.0000000000000E-02  4.4365907663340E-01 -3.9086279435397E-02
    10  9.0000000000000E-02  4.9798252279077E-01 -4.5226036165530E-02
    11  1.0000000000000E-01  5.5186993883286E-01 -5.1711692432507E-02
    12  1.1000000000000E-01  6.0525423871882E-01 -5.8531020257835E-02
    13  1.2000000000000E-01  6.5806334736524E-01 -6.5657963177737E-02
    14  1.3000000000000E-01  7.1022012237754E-01 -7.3052270769575E-02
    15  1.4000000000000E-01  7.6164237819604E-01 -8.0659380599597E-02
    16  1.5000000000000E-01  8.1224301446044E-01 -8.8410551823546E-02
    17  1.6000000000000E-01  8.6193024876985E-01 -9.6223250722714E-02
    18  1.7000000000000E-01  9.1060795237971E-01 -1.0400178449216E-01
    19  1.8000000000000E-01  9.5817608575767E-01 -1.1163817567505E-01
    20  1.9000000000000E-01  1.0045312293408E+00 -1.1901326581715E-01
    21  2.0000000000000E-01  1.0495672033216E+00 -1.2599803325722E-01
    22  2.1000000000000E-01  1.0931757688615E+00 -1.3245510652768E-01
    23  2.2000000000000E-01  1.1352474018124E+00 -1.3824045166977E-01
    24  2.3000000000000E-01  1.1756721288348E+00 -1.4320520891628E-01
    25  2.4000000000000E-01  1.2143404147583E+00 -1.4719765170836E-01
    26  2.5000000000000E-01  1.2511440891517E+00 -1.5006523893002E-01
    27  2.6000000000000E-01  1.2859772993644E+00 -1.5165672959742E-01
    28  2.7000000000000E-01  1.3187374767905E+00 -1.5182432805780E-01
    29  2.8000000000000E-01  1.3493263027845E+00 -1.5042582705426E-01
    30  2.9000000000000E-01  1.3776506605480E+00 -1.4732671581088E-01
    31  3.0000000000000E-01  1.4036235593923E+00 -1.4240222059350E-01
    32  3.1000000000000E-01  1.4271650180791E+00 -1.3553924600182E-01
    33  3.2000000000000E-01  1.4482028944344E+00 -1.2663818654093E-01
    34  3.3000000000000E-01  1.4666736491242E+00 -1.1561457978535E-01
    35  3.4000000000000E-01  1.4825230323508E+00 -1.0240057466418E-01
    36  3.5000000000000E-01  1.4957066832802E+00 -8.6946191029761E-02
    37  3.6000000000000E-01  1.5061906332134E+00 -6.9220349686925E-02
    38  3.7000000000000E-01  1.5139517048632E+00 -4.9211655412915E-02
    39  3.8000000000000E-01  1.5189778015607E+00 -2.6928919138774E-02
    40  3.9000000000000E-01  1.5212680817873E+00 -2.4014093400504E-03
    41  4.0000000000000E-01  1.5208330160668E+00  2.4321173261134E-02
    42  4.1000000000000E-01  1.5176943249490E+00  5.3168999408140E-02
    43  4.2000000000000E-01  1.5118847985394E+00  8.4052690935002E-02
    44  4.3000000000000E-01  1.5034479997512E+00  1.1686416958494E-01
    45  4.4000000000000E-01  1.4924378551571E+00  1.5147776415780E-01
    46  4.5000000000000E-01  1.4789181389652E+00  1.8775156111339E-01
    47  4.6000000000000E-01  1.4629618572177E+00  2.2552897994736E-01
    48  4.7000000000000E-01  1.4446505407856E+00  2.6464055110467E-01
    49  4.8000000000000E-01  1.4240734570815E+00  3.0490587095711E-01
    50  4.9000000000000E-01  1.4013267516235E+00  3.4613570549889E-01
    51  5.0000000000000E-01  1.3765125316261E+00  3.8813421195433E-01
    52  5.1000000000000E-01  1.3497379046618E+00  4.3070124548373E-01
    53  5.2000000000000E-01  1.3211139861084E+00  4.7363471665399E-01
    54  5.3000000000000E-01  1.2907548895634E+00  5.1673296433515E-01
    55  5.4000000000000E-01  1.2587767146640E+00  5.5979710821200E-01
    56  5.5000000000000E-01  1.2252965467811E+00  6.0263334517598E-01
    57  5.6000000000000E-01  1.1904314828755E+00  6.4505515448619E-01
    58  5.7000000000000E-01  1.1542976973957E+00  6.8688537775910E-01
    59  5.8000000000000E-01  1.1170095614772E+00  7.2795814154834E-01
    60  5.9000000000000E-01  1.0786788278783E+00  7.6812059249051E-01
    61  6.0000000000000E-01  1.0394138930622E+00  8.0723441768905E-01
    62  6.1000000000000E-01  9.9931914663150E-01  8.4517712615134E-01
    63  6.2000000000000E-01  9.5849441695126E-01  8.8184307063992E-01
    64  6.3000000000000E-01  9.1703452028294E-01  9.1714419319641E-01
    65  6.4000000000000E-01  8.7502891911233E-01  9.5101048179308E-01
    66  6.5000000000000E-01  8.3256149361786E-01  9.8339012999688E-01
    67  6.6000000000000E-01  7.8971042841510E-01  1.0142493961342E+00
    68  6.7000000000000E-01  7.4654821485550E-01  1.0435721631488E+00
    69  6.8000000000000E-01  7.0314176728279E-01  1.0713592050823E+00
    70  6.9000000000000E-01  6.5955264978418E-01  1.0976271708044E+00
    71  7.0000000000000E-01  6.1583740814845E-01  1.1224073002038E+00
    72  7.1000000000000E-01  5.7204799998312E-01  1.1457438924555E+00
    73  7.2000000000000E-01  5.2823231428004E-01  1.1676925501278E+00
    74  7.3000000000000E-01  4.8443477017619E-01  1.1883182267261E+00
    75  7.4000000000000E-01  4.4069698326123E-01  1.2076931087212E+00
    76  7.5000000000000E-01  3.9705848655757E-01  1.2258943661251E+00
    77  7.6000000000000E-01  3.5355749226328E-01  1.2430018082005E+00
    78  7.7000000000000E-01  3.1023167952116E-01  1.2590954828844E+00
    79  7.8000000000000E-01  2.6711899287361E-01  1.2742532599272E+00
    80  7.9000000000000E-01  2.2425843569515E-01  1.2885484385724E+00
    81  8.0000000000000E-01  1.8169084276986E-01  1.3020474208051E+00
    82  8.1000000000000E-01  1.3945961630573E-01  1.3148074907716E+00
    83  8.2000000000000E-01  9.7611410052537E-02  1.3268747399136E+00
    84  8.3000000000000E-01  5.6196746811413E-02  1.3382821756771E+00
    85  8.4000000000000E-01  1.5270555487748E-02  1.3490480493658E+00
    86  8.5000000000000E-01 -2.5107385067289E-02  1.3591744358356E+00
    87  8.6000000000000E-01 -6.4872106869482E-02  1.3686460943100E+00
    88  8.7000000000000E-01 -1.0395322819978E-01  1.3774296356772E+00
    89  8.8000000000000E-01 -1.4227485182722E-01  1.3854730172569E+00
    90  8.9000000000000E-01 -1.7975559244686E-01  1.3927053812702E+00
    91  9.0000000000000E-01 -2.1630873774364E-01  1.3990372481560E+00
    92  9.1000000000000E-01 -2.5184254541029E-01  1.4043610705450E+00
    93  9.2000000000000E-01 -2.8626067629245E-01  1.4085521481857E+00
    94  9.3000000000000E-01 -3.1946276163798E-01  1.4114698985094E+00
    95  9.4000000000000E-01 -3.5134510022244E-01  1.4129594718959E+00
    96  9.5000000000000E-01 -3.8180147894293E-01  1.4128536951479E+00
    97  9.6000000000000E-01 -4.1072410834961E-01  1.4109753212836E+00
    98  9.7000000000000E-01 -4.3800466255270E-01  1.4071395585900E+00
    99  9.8000000000000E-01 -4.6353541103320E-01  1.4011568470332E+00
   100  9.9000000000000E-01 -4.8721042812910E-01  1.3928358456691E+00
   101  1.0000000000000E+00 -5.0892686439331E-01  1.3819865907045E+00
   102  1.0100000000000E+00 -5.2858626265222E-01  1.3684237804008E+00
   103  1.0200000000000E+00 -5.4609590045767E-01  1.3519701401454E+00
   104  1.0300000000000E+00 -5.6137013973996E-01  1.3324598187819E+00
   105  1.0400000000000E+00 -5.7433176385379E-01  1.3097417657473E+00
   106  1.0500000000000E+00 -5.8491328187469E-01  1.2836830377341E+00
   107  1.0600000000000E+00 -5.9305817996014E-01  1.2541719834998E+00
   108  1.0700000000000E+00 -5.9872209984338E-01  1.2211212561078E+00
   109  1.0800000000000E+00 -6.0187392507642E-01  1.1844706032913E+00
   110  1.0900000000000E+00 -6.0249675648480E-01  1.1441893887874E+00
   111  1.1000000000000E+00 -6.0058875942311E-01  1.1002788003591E+00
   112  1.1100000000000E+00 -5.9616386682519E-01  1.0527737037907E+00
   113  1.1200000000000E+00 -5.8925232370161E-01  1.0017441063552E+00
   114  1.1300000000000E+00 -5.7990106063386E-01  9.4729619806193E-01
   115  1.1400000000000E+00 -5.6817388592520E-01  8.8957294434026E-01
   116  1.1500000000000E+00 -5.5415148836206E-01  8.2875420962798E-01
   117  1.1600000000000E+00 -5.3793124499167E-01  7.6505639753533E-01
   118  1.1700000000000E+00 -5.1962683089381E-01  6.9873159976489E-01
   119  1.1800000000000E+00 -4.9936763058236E-01  6.3006625268667E-01
   120  1.1900000000000E+00 -4.7729795338718E-01  5.5937930732788E-01
   121  1.2000000000000E+00 -4.5357605787907E-01  4.8701992538830E-01
   122  1.2100000000000E+00 -4.2837299310833E-01  4.1336472072654E-01
   123  1.2200000000000E+00 -4.0187126704318E-01  3.3881457236342E-01
   124  1.2300000000000E+00 -3.7426335513100E-01  2.6379104144399E-01
   125  1.2400000000000E+00 -3.4575006428584E-01  1.8873243059920E-01
   126  1.2500000000000E+00 -3.1653876981086E-01  1.1408952970062E-01
   127  1.2600000000000E+00 -2.8684154477056E-01  4.0321097048885E-02
   128  1.2700000000000E+00 -2.5687320307783E-01 -3.2110870565283E-02
   129  1.2800000000000E+00 -2.2684927905263E-01 -1.0274602174566E-01
   130  1.2900000000000E+00 -1.9698396740663E-01 -1.7113062814098E-01
   131  1.3000000000000E+00 -1.6748804848799E-01 -2.3682259348714E-01
   132  1.3100000000000E+00 -1.3856682417608E-01 -2.9939643029293E-01
   133  1.3200000000000E+00 -1.1041809002921E-01 -3.5844813991255E-01
   134  1.3300000000000E+00 -8.3230169151192E-02 -4.1359993212423E-01
   135  1.3400000000000E+00 -5.7180032763295E-02 -4.6450472157534E-01
   136  1.3500000000000E+00 -3.2431531632720E-02 -5.1085034059272E-01
   137  1.3600000000000E+00 -9.1337613429268E-03 -5.5236341083039E-01
   138  1.3700000000000E+00  1.2580417109015E-02 -5.8881282004150E-01
   139  1.3800000000000E+00  3.2595681695505E-02 -6.2001275481429E-01
   140  1.3900000000000E+00  5.0815361133274E-02 -6.4582524544790E-01
   141  1.4000000000000E+00  6.7162338801586E-02 -6.6616218507430E-01
   142  1.4100000000000E+00  8.1579736141291E-02 -6.8098679168131E-01
   143  1.4200000000000E+00  9.4031365646271E-02 -6.9031448871161E-01
   144  1.4300000000000E+00  1.0450194649500E-01 -6.9421318733930E-01
   145  1.4400000000000E+00  1.1299707893541E-01 -6.9280296127517E-01
   146  1.4500000000000E+00  1.1954297666751E-01 -6.8625511286353E-01
   147  1.4600000000000E+00  1.2418595964710E-01 -6.7479063726241E-01
   148  1.4700000000000E+00  1.2699171290756E-01 -6.5867809951004E-01
   149  1.4800000000000E+00  1.2804432010983E-01 -6.3823094713562E-01
   150  1.4900000000000E+00  1.2744508356832E-01 -6.1380428863273E-01
   151  1.5000000000000E+00  1.2531114539280E-01 -5.8579117540273E-01
   152  1.5100000000000E+00  1.2177392710458E-01 -5.5461843162271E-01
   153  1.5200000000000E+00  1.1697740759490E-01 -5.2074208280746E-01
   154  1.5300000000000E+00  1.1107626155198E-01 -4.8464243951336E-01
   155  1.5400000000000E+00  1.0423388246189E-01 -4.4681889760095E-01
   156  1.5500000000000E+00  9.6620315958816E-02 -4.0778452065839E-01
   157  1.5600000000000E+00  8.8410130636707E-02 -3.6806047352946E-01
   158  1.5700000000000E+00  7.9780254417321E-02 -3.2817037833399E-01
   159  1.5800000000000E+00  7.0907805423792E-02 -2.8863466655296E-01
   160  1.5900000000000E+00  6.1967951101863E-02 -2.4996501129117E-01
   161  1.6000000000000E+00  5.3131759663770E-02 -2.1265876091627E-01
   162  1.6100000000000E+00  4.4564373077682E-02 -1.7719415847611E-01
   163  1.6200000000000E+00  3.6421885624673E-02 -1.4402227888058E-01
   164  1.6300000000000E+00  2.8840933872072E-02 -1.1354192340738E-01
   165  1.6400000000000E+00  2.1946313421402E-02 -8.6115201989858E-02
   166  1.6500000000000E+00  1.5855115323812E-02 -6.2076616627154E-02
   167  1.6600000000000E+00  1.0664388666452E-02 -4.1705451153510E-02
   168  1.6700000000000E+00  6.4509161563876E-03 -2.5224811839834E-02
   169  1.6800000000000E+00  3.2713793799736E-03 -1.2803820868793E-02
   170  1.6900000000000E+00  1.1479194119567E-03 -4.5014939159945E-03
   171  1.7000000000000E+00  1.4383473384524E-04 -5.6583047805209E-04
   172  1.7100000000000E+00 -2.4925320585209E-05  9.8218776095119E-05
   173  1.7200000000000E+00  8.1155423488016E-06 -3.1924063220554E-05
   174  1.73 -0.  0.
   175  1.74 -0. -0.
   176  1.75  0.  0.
   177  1.76  0.  0.
   178  1.77  0.  0.
   179  1.78  0.  0.
   180  1.79  0.  0.
   181  1.80  0.  0.
   182  1.81  0.  0.
   183  1.82  0.  0.
   184  1.83  0.  0.
   185  1.84  0.  0.
   186  1.85  0.  0.
   187  1.86  0.  0.
   188  1.87  0.  0.
   189  1.88  0.  0.
   190  1.89  0.  0.
   191  1.90  0.  0.
   192  1.91  0.  0.
   193  1.92  0.  0.
   194  1.93  0.  0.
   195  1.94  0.  0.
   196  1.95  0.  0.
   197  1.96  0.  0.
   198  1.97  0.  0.
   199  1.98  0.  0.
   200  1.99  0.  0.
   201  2.00  0.  0.
   202  2.01  0.  0.
   203  2.02  0.  0.
   204  2.03  0.  0.
   205  2.04  0.  0.
   206  2.05  0.  0.
   207  2.06  0.  0.
   208  2.07  0.  0.
   209  2.08  0.  0.
   210  2.09  0.  0.
   211  2.10  0.  0.
   212  2.11  0.  0.
   213  2.12  0.  0.
   214  2.13  0.  0.
   215  2.14  0.  0.
   216  2.15  0.  0.
   217  2.16  0.  0.
   218  2.17  0.  0.
   219  2.18  0.  0.
   220  2.19  0.  0.
   221  2.20  0.  0.
   222  2.21  0.  0.
   223  2.22  0.  0.
   224  2.23  0.  0.
   225  2.24  0.  0.
   226  2.25  0.  0.
   227  2.26  0.  0.
   228  2.27  0.  0.
   229  2.28  0.  0.
   230  2.29  0.  0.
   231  2.30  0.  0.
   232  2.31  0.  0.
   233  2.32  0.  0.
   234  2.33  0.  0.
   235  2.34  0.  0.
   236  2.35  0.  0.
   237  2.36  0.  0.
   238  2.37  0.  0.
   239  2.38  0.  0.
   240  2.39  0.  0.
   241  2.40  0.  0.
   242  2.41  0.  0.
   243  2.42  0.  0.
   244  2.43  0.  0.
   245  2.44  0.  0.
   246  2.45  0.  0.
   247  2.46  0.  0.
   248  2.47  0.  0.
   249  2.48  0.  0.
   250  2.49  0.  0.
   251  2.50  0.  0.
   252  2.51  0.  0.
   253  2.52  0.  0.
   254  2.53  0.  0.
   255  2.54  0.  0.
   256  2.55  0.  0.
   257  2.56  0.  0.
   258  2.57  0.  0.
   259  2.58  0.  0.
   260  2.59  0.  0.
   261  2.60  0.  0.
   262  2.61  0.  0.
   263  2.62  0.  0.
   264  2.63  0.  0.
   265  2.64  0.  0.
   266  2.65  0.  0.
   267  2.66  0.  0.
   268  2.67  0.  0.
   269  2.68  0.  0.
   270  2.69  0.  0.
   271  2.70  0.  0.
   272  2.71  0.  0.
   273  2.72  0.  0.
   274  2.73  0.  0.
   275  2.74  0.  0.
   276  2.75  0.  0.
   277  2.76  0.  0.
   278  2.77  0.  0.
   279  2.78  0.  0.
   280  2.79  0.  0.
   281  2.80  0.  0.
   282  2.81  0.  0.
   283  2.82  0.  0.
   284  2.83  0.  0.
   285  2.84  0.  0.
   286  2.85  0.  0.
   287  2.86  0.  0.
   288  2.87  0.  0.
   289  2.88  0.  0.
   290  2.89  0.  0.
   291  2.90  0.  0.
   292  2.91  0.  0.
   293  2.92  0.  0.
   294  2.93  0.  0.
   295  2.94  0.  0.
   296  2.95  0.  0.
   297  2.96  0.  0.
   298  2.97  0.  0.
   299  2.98  0.  0.
   300  2.99  0.  0.
   301  3.00  0.  0.
   302  3.01  0.  0.
   303  3.02  0.  0.
   304  3.03  0.  0.
   305  3.04  0.  0.
   306  3.05  0.  0.
   307  3.06  0.  0.
   308  3.07  0.  0.
   309  3.08  0.  0.
   310  3.09  0.  0.
   311  3.10  0.  0.
   312  3.11  0.  0.
   313  3.12  0.  0.
   314  3.13  0.  0.
   315  3.14  0.  0.
   316  3.15  0.  0.
   317  3.16  0.  0.
   318  3.17  0.  0.
   319  3.18  0.  0.
   320  3.19  0.  0.
   321  3.20  0.  0.
   322  3.21  0.  0.
   323  3.22  0.  0.
   324  3.23  0.  0.
   325  3.24  0.  0.
   326  3.25  0.  0.
   327  3.26  0.  0.
   328  3.27  0.  0.
   329  3.28  0.  0.
   330  3.29  0.  0.
   331  3.30  0.  0.
   332  3.31  0.  0.
   333  3.32  0.  0.
   334  3.33  0.  0.
   335  3.34  0.  0.
   336  3.35  0.  0.
   337  3.36  0.  0.
   338  3.37  0.  0.
   339  3.38  0.  0.
   340  3.39  0.  0.
   341  3.40  0.  0.
   342  3.41  0.  0.
   343  3.42  0.  0.
   344  3.43  0.  0.
   345  3.44  0.  0.
   346  3.45  0.  0.
   347  3.46  0.  0.
   348  3.47  0.  0.
   349  3.48  0.  0.
   350  3.49  0.  0.
   351  3.50  0.  0.
   352  3.51  0.  0.
   353  3.52  0.  0.
   354  3.53  0.  0.
   355  3.54  0.  0.
   356  3.55  0.  0.
   357  3.56  0.  0.
   358  3.57  0.  0.
   359  3.58  0.  0.
   360  3.59  0.  0.
   361  3.60  0.  0.
   362  3.61  0.  0.
   363  3.62  0.  0.
   364  3.63  0.  0.
   365  3.64  0.  0.
   366  3.65  0.  0.
   367  3.66  0.  0.
   368  3.67  0.  0.
   369  3.68  0.  0.
   370  3.69  0.  0.
   371  3.70  0.  0.
   372  3.71  0.  0.
   373  3.72  0.  0.
   374  3.73  0.  0.
   375  3.74  0.  0.
   376  3.75  0.  0.
   377  3.76  0.  0.
   378  3.77  0.  0.
   379  3.78  0.  0.
   380  3.79  0.  0.
   381  3.80  0.  0.
   382  3.81  0.  0.
   383  3.82  0.  0.
   384  3.83  0.  0.
   385  3.84  0.  0.
   386  3.85  0.  0.
   387  3.86  0.  0.
   388  3.87  0.  0.
   389  3.88  0.  0.
   390  3.89  0.  0.
   391  3.90  0.  0.
   392  3.91  0.  0.
   393  3.92  0.  0.
   394  3.93  0.  0.
   395  3.94  0.  0.
   396  3.95  0.  0.
   397  3.96  0.  0.
   398  3.97  0.  0.
   399  3.98  0.  0.
   400  3.99  0.  0.
   401  4.00  0.  0.
   402  4.01  0.  0.
   403  4.02  0.  0.
   404  4.03  0.  0.
   405  4.04  0.  0.
   406  4.05  0.  0.
   407  4.06  0.  0.
   408  4.07  0.  0.
   409  4.08  0.  0.
   410  4.09  0.  0.
   411  4.10  0.  0.
   412  4.11  0.  0.
   413  4.12  0.  0.
   414  4.13  0.  0.
   415  4.14  0.  0.
   416  4.15  0.  0.
   417  4.16  0.  0.
   418  4.17  0.  0.
   419  4.18  0.  0.
   420  4.19  0.  0.
   421  4.20  0.  0.
   422  4.21  0.  0.
   423  4.22  0.  0.
   424  4.23  0.  0.
   425  4.24  0.  0.
   426  4.25  0.  0.
   427  4.26  0.  0.
   428  4.27  0.  0.
   429  4.28  0.  0.
   430  4.29  0.  0.
   431  4.30  0.  0.
   432  4.31  0.  0.
   433  4.32  0.  0.
   434  4.33  0.  0.
   435  4.34  0.  0.
   436  4.35  0.  0.
   437  4.36  0.  0.
   438  4.37  0.  0.
   439  4.38  0.  0.
   440  4.39  0.  0.
   441  4.40  0.  0.
   442  4.41  0.  0.
   443  4.42  0.  0.
   444  4.43  0.  0.
   445  4.44  0.  0.
   446  4.45  0.  0.
   447  4.46  0.  0.
   448  4.47  0.  0.
   449  4.48  0.  0.
   450  4.49  0.  0.
   451  4.50  0.  0.
   452  4.51  0.  0.
   453  4.52  0.  0.
   454  4.53  0.  0.
   455  4.54  0.  0.
   456  4.55  0.  0.
   457  4.56  0.  0.
   458  4.57  0.  0.
   459  4.58  0.  0.
   460  4.59  0.  0.
   461  4.60  0.  0.
   462  4.61  0.  0.
   463  4.62  0.  0.
   464  4.63  0.  0.
   465  4.64  0.  0.
   466  4.65  0.  0.
   467  4.66  0.  0.
   468  4.67  0.  0.
   469  4.68  0.  0.
   470  4.69  0.  0.
   471  4.70  0.  0.
   472  4.71  0.  0.
   473  4.72  0.  0.
   474  4.73  0.  0.
   475  4.74  0.  0.
   476  4.75  0.  0.
   477  4.76  0.  0.
   478  4.77  0.  0.
   479  4.78  0.  0.
   480  4.79  0.  0.
   481  4.80  0.  0.
   482  4.81  0.  0.
   483  4.82  0.  0.
   484  4.83  0.  0.
   485  4.84  0.  0.
   486  4.85  0.  0.
   487  4.86  0.  0.
   488  4.87  0.  0.
   489  4.88  0.  0.
   490  4.89  0.  0.
   491  4.90  0.  0.
   492  4.91  0.  0.
   493  4.92  0.  0.
   494  4.93  0.  0.
   495  4.94  0.  0.
   496  4.95  0.  0.
   497  4.96  0.  0.
   498  4.97  0.  0.
   499  4.98  0.  0.
   500  4.99  0.  0.
   501  5.00  0.  0.
   502  5.01  0.  0.
   503  5.02  0.  0.
   504  5.03  0.  0.
   505  5.04  0.  0.
   506  5.05  0.  0.
   507  5.06  0.  0.
   508  5.07  0.  0.
   509  5.08  0.  0.
   510  5.09  0.  0.
   511  5.10  0.  0.
   512  5.11  0.  0.
   513  5.12  0.  0.
   514  5.13  0.  0.
   515  5.14  0.  0.
   516  5.15  0.  0.
   517  5.16  0.  0.
   518  5.17  0.  0.
   519  5.18  0.  0.
   520  5.19  0.  0.
   521  5.20  0.  0.
   522  5.21  0.  0.
   523  5.22  0.  0.
   524  5.23  0.  0.
   525  5.24  0.  0.
   526  5.25  0.  0.
   527  5.26  0.  0.
   528  5.27  0.  0.
   529  5.28  0.  0.
   530  5.29  0.  0.
   531  5.30  0.  0.
   532  5.31  0.  0.
   533  5.32  0.  0.
   534  5.33  0.  0.
   535  5.34  0.  0.
   536  5.35  0.  0.
   537  5.36  0.  0.
   538  5.37  0.  0.
   539  5.38  0.  0.
   540  5.39  0.  0.
   541  5.40  0.  0.
   542  5.41  0.  0.
   543  5.42  0.  0.
   544  5.43  0.  0.
   545  5.44  0.  0.
   546  5.45  0.  0.
   547  5.46  0.  0.
   548  5.47  0.  0.
   549  5.48  0.  0.
   550  5.49  0.  0.
   551  5.50  0.  0.
   552  5.51  0.  0.
   553  5.52  0.  0.
   554  5.53  0.  0.
   555  5.54  0.  0.
   556  5.55  0.  0.
   557  5.56  0.  0.
   558  5.57  0.  0.
   559  5.58  0.  0.
   560  5.59  0.  0.
   561  5.60  0.  0.
   562  5.61  0.  0.
   563  5.62  0.  0.
   564  5.63  0.  0.
   565  5.64  0.  0.
   566  5.65  0.  0.
   567  5.66  0.  0.
   568  5.67  0.  0.
   569  5.68  0.  0.
   570  5.69  0.  0.
   571  5.70  0.  0.
   572  5.71  0.  0.
   573  5.72  0.  0.
   574  5.73  0.  0.
   575  5.74  0.  0.
   576  5.75  0.  0.
   577  5.76  0.  0.
   578  5.77  0.  0.
   579  5.78  0.  0.
   580  5.79  0.  0.
   581  5.80  0.  0.
   582  5.81  0.  0.
   583  5.82  0.  0.
   584  5.83  0.  0.
   585  5.84  0.  0.
   586  5.85  0.  0.
   587  5.86  0.  0.
   588  5.87  0.  0.
   589  5.88  0.  0.
   590  5.89  0.  0.
   591  5.90  0.  0.
   592  5.91  0.  0.
   593  5.92  0.  0.
   594  5.93  0.  0.
   595  5.94  0.  0.
   596  5.95  0.  0.
   597  5.96  0.  0.
   598  5.97  0.  0.
   599  5.98  0.  0.
   600  5.99  0.  0.
   1                         5.4155493871926E+00  7.5355130361603E-01
     1  0.0000000000000E+00 -2.0143460371935E-09  4.5335049169565E-09
     2  1.0000000000000E-02  1.0990154784815E-03 -1.6784662326404E-04
     3  2.0000000000000E-02  4.3952332275869E-03 -6.7501179298250E-04
     4  3.0000000000000E-02  9.8861157791908E-03 -1.5322462920862E-03
     5  4.0000000000000E-02  1.7567263837085E-02 -2.7570536981973E-03
     6  5.0000000000000E-02  2.7432165114160E-02 -4.3730780597940E-03
     7  6.0000000000000E-02  3.9471850847262E-02 -6.4092649958465E-03
     8  7.0000000000000E-02  5.3674467948553E-02 -8.8988141534905E-03
     9  8.0000000000000E-02  7.0024776766540E-02 -1.1877945491807E-02
    10  9.0000000000000E-02  8.8503586256738E-02 -1.5384505967304E-02
    11  1.0000000000000E-01  1.0908713996501E-01 -1.9456446795320E-02
    12  1.1000000000000E-01  1.3174646757639E-01 -2.4130204485352E-02
    13  1.2000000000000E-01  1.5644671785116E-01 -2.9439021234504E-02
    14  1.3000000000000E-01  1.8314648953753E-01 -3.5411241965614E-02
    15  1.4000000000000E-01  2.1179717730004E-01 -4.2068626279820E-02
    16  1.5000000000000E-01  2.4234234982436E-01 -4.9424713832353E-02
    17  1.6000000000000E-01  2.7471717704890E-01 -5.7483281130595E-02
    18  1.7000000000000E-01  3.0884792293187E-01 -6.6236926494794E-02
    19  1.8000000000000E-01  3.4465151929806E-01 -7.5665817936931E-02
    20  1.9000000000000E-01  3.8203523513513E-01 -8.5736636031597E-02
    21  2.0000000000000E-01  4.2089645424427E-01 -9.6401740520044E-02
    22  2.1000000000000E-01  4.6112257241892E-01 -1.0759858546267E-01
    23  2.2000000000000E-01  5.0259102335741E-01 -1.1924940330277E-01
    24  2.3000000000000E-01  5.4516944034486E-01 -1.3126117330593E-01
    25  2.4000000000000E-01  5.8871595840350E-01 -1.4352588458044E-01
    26  2.5000000000000E-01  6.3307965915136E-01 -1.5592109836032E-01
    27  2.6000000000000E-01  6.7810115806818E-01 -1.6831080854298E-01
    28  2.7000000000000E-01  7.2361333129187E-01 -1.8054659372255E-01
    29  2.8000000000000E-01  7.6944217650442E-01 -1.9246904825434E-01
    30  2.9000000000000E-01  8.1540779995794E-01 -2.0390947432883E-01
    31  3.0000000000000E-01  8.6132551928824E-01 -2.1469181173371E-01
    32  3.1000000000000E-01  9.0700706950623E-01 -2.2463477703601E-01
    33  3.2000000000000E-01  9.5226189749081E-01 -2.3355417942165E-01
    34  3.3000000000000E-01  9.9689852846884E-01 -2.4126537647314E-01
    35  3.4000000000000E-01  1.0407259863943E+00 -2.4758582982772E-01
    36  3.5000000000000E-01  1.0835552488597E+00 -2.5233771800562E-01
    37  3.6000000000000E-01  1.1252007162173E+00 -2.5535056179044E-01
    38  3.7000000000000E-01  1.1654816739708E+00 -2.5646381642332E-01
    39  3.8000000000000E-01  1.2042237272422E+00 -2.5552938457160E-01
    40  3.9000000000000E-01  1.2412601862255E+00 -2.5241400456745E-01
    41  4.0000000000000E-01  1.2764333820151E+00 -2.4700146978334E-01
    42  4.1000000000000E-01  1.3095958930348E+00 -2.3919463720658E-01
    43  4.2000000000000E-01  1.3406116634898E+00 -2.2891718626606E-01
    44  4.3000000000000E-01  1.3693569967882E+00 -2.1611509270770E-01
    45  4.4000000000000E-01  1.3957214087251E+00 -2.0075778675426E-01
    46  4.5000000000000E-01  1.4196083273475E+00 -1.8283896985076E-01
    47  4.6000000000000E-01  1.4409356287956E+00 -1.6237706990527E-01
    48  4.7000000000000E-01  1.4596360010056E+00 -1.3941532099618E-01
    49  4.8000000000000E-01  1.4756571299170E+00 -1.1402145992603E-01
    50  4.9000000000000E-01  1.4889617057074E+00 -8.6287038652371E-02
    51  5.0000000000000E-01  1.4995272495319E+00 -5.6326358400289E-02
    52  5.1000000000000E-01  1.5073457642190E+00 -2.4275038041429E-02
    53  5.2000000000000E-01  1.5124232153241E+00  9.7117640099855E-03
    54  5.3000000000000E-01  1.5147788518049E+00  4.5461448703783E-02
    55  5.4000000000000E-01  1.5144443783180E+00  8.2786364305426E-02
    56  5.5000000000000E-01  1.5114629936884E+00  1.2148644602402E-01
    57  5.6000000000000E-01  1.5058883124255E+00  1.6135206490988E-01
    58  5.7000000000000E-01  1.4977831882126E+00  2.0216703924837E-01
    59  5.8000000000000E-01  1.4872184600401E+00  2.4371175806747E-01
    60  5.9000000000000E-01  1.4742716430458E+00  2.8576636360311E-01
    61  6.0000000000000E-01  1.4590255871528E+00  3.2811393768822E-01
    62  6.1000000000000E-01  1.4415671272226E+00  3.7054363609755E-01
    63  6.2000000000000E-01  1.4219857486569E+00  4.1285371492187E-01
    64  6.3000000000000E-01  1.4003722921818E+00  4.5485439407608E-01
    65  6.4000000000000E-01  1.3768177209175E+00  4.9637050506591E-01
    66  6.5000000000000E-01  1.3514119718045E+00  5.3724387312546E-01
    67  6.6000000000000E-01  1.3242429120059E+00  5.7733538775833E-01
    68  6.7000000000000E-01  1.2953954190852E+00  6.1652672051370E-01
    69  6.8000000000000E-01  1.2649506015764E+00  6.5472165443657E-01
    70  6.9000000000000E-01  1.2329851740599E+00  6.9184699596441E-01
    71  7.0000000000000E-01  1.1995709980736E+00  7.2785304699996E-01
    72  7.1000000000000E-01  1.1647747971681E+00  7.6271362236515E-01
    73  7.2000000000000E-01  1.1286580512044E+00  7.9642560570679E-01
    74  7.3000000000000E-01  1.0912770716527E+00  8.2900804505672E-01
    75  7.4000000000000E-01  1.0526832562318E+00  8.6050079750525E-01
    76  7.5000000000000E-01  1.0129235177921E+00  8.9096274068986E-01
    77  7.6000000000000E-01  9.7204087895317E-01  9.2046957688420E-01
    78  7.7000000000000E-01  9.3007522071552E-01  9.4911126325731E-01
    79  7.8000000000000E-01  8.8706417013502E-01  9.7698910921424E-01
    80  7.9000000000000E-01  8.4304410924106E-01  1.0042125884970E+00
    81  8.0000000000000E-01  7.9805128473983E-01  1.0308959197895E+00
    82  8.1000000000000E-01  7.5212299573127E-01  1.0571544748153E+00
    83  8.2000000000000E-01  7.0529883472312E-01  1.0831010772385E+00
    84  8.3000000000000E-01  6.5762195568914E-01  1.1088422589849E+00
    85  8.4000000000000E-01  6.0914034182479E-01  1.1344745428148E+00
    86  8.5000000000000E-01  5.5990804502723E-01  1.1600808210528E+00
    87  8.6000000000000E-01  5.0998636898814E-01  1.1857269002564E+00
    88  8.7000000000000E-01  4.5944496814594E-01  1.2114582802883E+00
    89  8.8000000000000E-01  4.0836283560212E-01  1.2372972337253E+00
    90  8.9000000000000E-01  3.5682915445794E-01  1.2632402478263E+00
    91  9.0000000000000E-01  3.0494398885723E-01  1.2892558864284E+00
    92  9.1000000000000E-01  2.5281879330596E-01  1.3152831232040E+00
    93  9.2000000000000E-01  2.0057672154815E-01  1.3412301907762E+00
    94  9.3000000000000E-01  1.4835271937096E-01  1.3669739823571E+00
    95  9.4000000000000E-01  9.6293389144040E-02  1.3923600339474E+00
    96  9.5000000000000E-01  4.4556617616101E-02  1.4172031058642E+00
    97  9.6000000000000E-01 -6.6890375621931E-03  1.4412883725764E+00
    98  9.7000000000000E-01 -5.7265203009671E-02  1.4643732196832E+00
    99  9.8000000000000E-01 -1.0698478269187E-01  1.4861896365393E+00
   100  9.9000000000000E-01 -1.5565328088011E-01  1.5064471826738E+00
   101  1.0000000000000E+00 -2.0307034277194E-01  1.5248364959375E+00
   102  1.0100000000000E+00 -2.4903149647250E-01  1.5410333004287E+00
   103  1.0200000000000E+00 -2.9333007614074E-01  1.5547028628532E+00
   104  1.0300000000000E+00 -3.3575930246008E-01  1.5655048372310E+00
   105  1.0400000000000E+00 -3.7611449326717E-01  1.5730984299370E+00
   106  1.0500000000000E+00 -4.1419537422818E-01  1.5771478100896E+00
   107  1.0600000000000E+00 -4.4980845693943E-01  1.5773276844230E+00
   108  1.0700000000000E+00 -4.8276944980188E-01  1.5733289510945E+00
   109  1.0800000000000E+00 -5.1290566551955E-01  1.5648643435082E+00
   110  1.0900000000000E+00 -5.4005838812855E-01  1.5516739732355E+00
   111  1.1000000000000E+00 -5.6408516210855E-01  1.5335306805531E+00
   112  1.1100000000000E+00 -5.8486196637189E-01  1.5102451020263E+00
   113  1.1200000000000E+00 -6.0228523677697E-01  1.4816703669507E+00
   114  1.1300000000000E+00 -6.1627370226558E-01  1.4477063383181E+00
   115  1.1400000000000E+00 -6.2677000176795E-01  1.4083033192468E+00
   116  1.1500000000000E+00 -6.3374205162606E-01  1.3634651524582E+00
   117  1.1600000000000E+00 -6.3718413642755E-01  1.3132516483009E+00
   118  1.1700000000000E+00 -6.3711769977286E-01  1.2577802859136E+00
   119  1.1800000000000E+00 -6.3359181556392E-01  1.1972271422484E+00
   120  1.1900000000000E+00 -6.2668332486088E-01  1.1318270147210E+00