Ba    ONCVPSP-4.0.1  r_core=   2.15674   1.90213   2.15674
     56.0000     10.0000      250217    zatom,zion,pspd
     8       2   2     4   600     0    pspcod,pspxc,lmax,lloc,mmax,r2well
  5.99000000  5.00000000  0.00000000    rchrg fchrg qchrg
     2     3     2     0    nproj
     3     1           extension_switch
     3     3     0    nprojso
   0                         6.4046628457278E+00  6.1575739638699E-01
     1  0.0000000000000E+00 -8.2428786019051E-12  3.4756517108825E-11
     2  1.0000000000000E-02  2.8560408621878E-02 -1.0079742871552E-02
     3  2.0000000000000E-02  5.7106541959028E-02 -2.0137004263329E-02
     4  3.0000000000000E-02  8.5624146186107E-02 -3.0149433679858E-02
     5  4.0000000000000E-02  1.1409901015962E-01 -4.0094941439767E-02
     6  5.0000000000000E-02  1.4251698616861E-01 -4.9951826205400E-02
     7  6.0000000000000E-02  1.7086400998294E-01 -5.9698899084117E-02
     8  7.0000000000000E-02  1.9912611997468E-01 -6.9315603199338E-02
     9  8.0000000000000E-02  2.2728947509632E-01 -7.8782127664094E-02
    10  9.0000000000000E-02  2.5534037150993E-01 -8.8079514932644E-02
    11  1.0000000000000E-01  2.8326525767291E-01 -9.7189760556663E-02
    12  1.1000000000000E-01  3.1105074770038E-01 -1.0609590443082E-01
    13  1.2000000000000E-01  3.3868363283950E-01 -1.1478211267836E-01
    14  1.3000000000000E-01  3.6615089090787E-01 -1.2323374939948E-01
    15  1.4000000000000E-01  3.9343969356734E-01 -1.3143743758438E-01
    16  1.5000000000000E-01  4.2053741132373E-01 -1.3938110857683E-01
    17  1.6000000000000E-01  4.4743161616468E-01 -1.4705403956420E-01
    18  1.7000000000000E-01  4.7411008176936E-01 -1.5444687866386E-01
    19  1.8000000000000E-01  5.0056078124729E-01 -1.6155165727400E-01
    20  1.9000000000000E-01  5.2677188238673E-01 -1.6836178945850E-01
    21  2.0000000000000E-01  5.5273174041773E-01 -1.7487205823931E-01
    22  2.1000000000000E-01  5.7842888831910E-01 -1.8107858877556E-01
    23  2.2000000000000E-01  6.0385202472366E-01 -1.8697880851590E-01
    24  2.3000000000000E-01  6.2898999950051E-01 -1.9257139451737E-01
    25  2.4000000000000E-01  6.5383179711799E-01 -1.9785620823145E-01
    26  2.5000000000000E-01  6.7836651791462E-01 -2.0283421816335E-01
    27  2.6000000000000E-01  7.0258335742940E-01 -2.0750741091483E-01
    28  2.7000000000000E-01  7.2647158396517E-01 -2.1187869122160E-01
    29  2.8000000000000E-01  7.5002051458096E-01 -2.1595177169442E-01
    30  2.9000000000000E-01  7.7321948972970E-01 -2.1973105306687E-01
    31  3.0000000000000E-01  7.9605784677725E-01 -2.2322149584100E-01
    32  3.1000000000000E-01  8.1852489265667E-01 -2.2642848430626E-01
    33  3.2000000000000E-01  8.4060987592796E-01 -2.2935768398365E-01
    34  3.3000000000000E-01  8.6230195852810E-01 -2.3201489361792E-01
    35  3.4000000000000E-01  8.8359018750896E-01 -2.3440589290363E-01
    36  3.5000000000000E-01  9.0446346707122E-01 -2.3653628718618E-01
    37  3.6000000000000E-01  9.2491053121116E-01 -2.3841135042612E-01
    38  3.7000000000000E-01  9.4491991730305E-01 -2.4003586775260E-01
    39  3.8000000000000E-01  9.6447994094435E-01 -2.4141397896194E-01
    40  3.9000000000000E-01  9.8357867239191E-01 -2.4254902433557E-01
    41  4.0000000000000E-01  1.0022039149168E+00 -2.4344339416258E-01
    42  4.1000000000000E-01  1.0203431854020E+00 -2.4409838335120E-01
    43  4.2000000000000E-01  1.0379836975004E+00 -2.4451405250377E-01
    44  4.3000000000000E-01  1.0551123476635E+00 -2.4468909680935E-01
    45  4.4000000000000E-01  1.0717157043385E+00 -2.4462072407740E-01
    46  4.5000000000000E-01  1.0877800006193E+00 -2.4430454319574E-01
    47  4.6000000000000E-01  1.1032911306199E+00 -2.4373446424511E-01
    48  4.7000000000000E-01  1.1182346498205E+00 -2.4290261144262E-01
    49  4.8000000000000E-01  1.1325957796162E+00 -2.4179925001617E-01
    50  4.9000000000000E-01  1.1463594162750E+00 -2.4041272803363E-01
    51  5.0000000000000E-01  1.1595101444858E+00 -2.3872943412168E-01
    52  5.1000000000000E-01  1.1720322556519E+00 -2.3673377191455E-01
    53  5.2000000000000E-01  1.1839097710539E+00 -2.3440815196785E-01
    54  5.3000000000000E-01  1.1951264699782E+00 -2.3173300176238E-01
    55  5.4000000000000E-01  1.2056659228715E+00 -2.2868679430465E-01
    56  5.5000000000000E-01  1.2155115295530E+00 -2.2524609570815E-01
    57  5.6000000000000E-01  1.2246465624749E+00 -2.2138563200990E-01
    58  5.7000000000000E-01  1.2330542149931E+00 -2.1707837534456E-01
    59  5.8000000000000E-01  1.2407176545682E+00 -2.1229564946196E-01
    60  5.9000000000000E-01  1.2476200807831E+00 -2.0700725443429E-01
    61  6.0000000000000E-01  1.2537447880251E+00 -2.0118161025914E-01
    62  6.1000000000000E-01  1.2590752326447E+00 -1.9478591892243E-01
    63  6.2000000000000E-01  1.2635951043642E+00 -1.8778634434428E-01
    64  6.3000000000000E-01  1.2672884016761E+00 -1.8014820948984E-01
    65  6.4000000000000E-01  1.2701395109321E+00 -1.7183620978966E-01
    66  6.5000000000000E-01  1.2721332887927E+00 -1.6281464187799E-01
    67  6.6000000000000E-01  1.2732551476700E+00 -1.5304764652658E-01
    68  6.7000000000000E-01  1.2734911437694E+00 -1.4249946452514E-01
    69  6.8000000000000E-01  1.2728280673007E+00 -1.3113470413881E-01
    70  6.9000000000000E-01  1.2712535344045E+00 -1.1891861865944E-01
    71  7.0000000000000E-01  1.2687560803131E+00 -1.0581739246139E-01
    72  7.1000000000000E-01  1.2653252532409E+00 -9.1798433874735E-02
    73  7.2000000000000E-01  1.2609517084787E+00 -7.6830673100855E-02
    74  7.3000000000000E-01  1.2556273021491E+00 -6.0884863316578E-02
    75  7.4000000000000E-01  1.2493451840640E+00 -4.3933883046219E-02
    76  7.5000000000000E-01  1.2420998891142E+00 -2.5953037824074E-02
    77  7.6000000000000E-01  1.2338874266112E+00 -6.9203591264766E-03
    78  7.7000000000000E-01  1.2247053669981E+00  1.3183101479817E-02
    79  7.8000000000000E-01  1.2145529253434E+00  3.4372985044271E-02
    80  7.9000000000000E-01  1.2034310410327E+00  5.6661346871452E-02
    81  8.0000000000000E-01  1.1913424530820E+00  8.0056389161357E-02
    82  8.1000000000000E-01  1.1782917705012E+00  1.0456220669839E-01
    83  8.2000000000000E-01  1.1642855371538E+00  1.3017854760070E-01
    84  8.3000000000000E-01  1.1493322905730E+00  1.5690059109245E-01
    85  8.4000000000000E-01  1.1334426142143E+00  1.8471874419801E-01
    86  8.5000000000000E-01  1.1166291826519E+00  2.1361845918082E-01
    87  8.6000000000000E-01  1.0989067992502E+00  2.4358007345906E-01
    88  8.7000000000000E-01  1.0802924258760E+00  2.7457867362817E-01
    89  8.8000000000000E-01  1.0608052042477E+00  3.0658398510380E-01
    90  8.9000000000000E-01  1.0404664685602E+00  3.3956028877198E-01
    91  9.0000000000000E-01  1.0192997490604E+00  3.7346636589454E-01
    92  9.1000000000000E-01  9.9733076629299E-01  4.0825547236788E-01
    93  9.2000000000000E-01  9.7458741578458E-01  4.4387534327466E-01
    94  9.3000000000000E-01  9.5109974297801E-01  4.8026822849919E-01
    95  9.4000000000000E-01  9.2689990828302E-01  5.1737096000122E-01
    96  9.5000000000000E-01  9.0202214215945E-01  5.5511505115986E-01
    97  9.6000000000000E-01  8.7650269020378E-01  5.9342682840960E-01
    98  9.7000000000000E-01  8.5037974826424E-01  6.3222759519673E-01
    99  9.8000000000000E-01  8.2369338766573E-01  6.7143382808660E-01
   100  9.9000000000000E-01  7.9648547068234E-01  7.1095740465206E-01
   101  1.0000000000000E+00  7.6879955645148E-01  7.5070586257189E-01
   102  1.0100000000000E+00  7.4068079758038E-01  7.9058268916670E-01
   103  1.0200000000000E+00  7.1217582775159E-01  8.3048764040060E-01
   104  1.0300000000000E+00  6.8333264068937E-01  8.7031708817831E-01
   105  1.0400000000000E+00  6.5420046090291E-01  9.0996439457560E-01
   106  1.0500000000000E+00  6.2482960667459E-01  9.4932031145203E-01
   107  1.0600000000000E+00  5.9527134581235E-01  9.8827340371385E-01
   108  1.0700000000000E+00  5.6557774473362E-01  1.0267104943216E+00
   109  1.0800000000000E+00  5.3580151149396E-01  1.0645171289718E+00
   110  1.0900000000000E+00  5.0599583341673E-01  1.1015780582288E+00
   111  1.1000000000000E+00  4.7621421001998E-01  1.1377777347390E+00
   112  1.1100000000000E+00  4.4651028197309E-01  1.1730008230293E+00
   113  1.1200000000000E+00  4.1693765684834E-01  1.2071327192760E+00
   114  1.1300000000000E+00  3.8754973246151E-01  1.2400600783248E+00
   115  1.1400000000000E+00  3.5839951861986E-01  1.2716713451594E+00
   116  1.1500000000000E+00  3.2953945811617E-01  1.3018572879401E+00
   117  1.1600000000000E+00  3.0102124782302E-01  1.3305115296826E+00
   118  1.1700000000000E+00  2.7289566075211E-01  1.3575310756080E+00
   119  1.1800000000000E+00  2.4521236994964E-01  1.3828168331763E+00
   120  1.1900000000000E+00  2.1801977509951E-01  1.4062741218128E+00
   121  1.2000000000000E+00  1.9136483270219E-01  1.4278131693533E+00
   122  1.2100000000000E+00  1.6529289068787E-01  1.4473495922710E+00
   123  1.2200000000000E+00  1.3984752830862E-01  1.4648048567992E+00
   124  1.2300000000000E+00  1.1507040213470E-01  1.4801067181356E+00
   125  1.2400000000000E+00  9.1001098956278E-02  1.4931896350063E+00
   126  1.2500000000000E+00  6.7676996362935E-02  1.5039951569715E+00
   127  1.2600000000000E+00  4.5133131739012E-02  1.5124722819828E+00
   128  1.2700000000000E+00  2.3402080375139E-02  1.5185777818412E+00
   129  1.2800000000000E+00  2.5138433530727E-03  1.5222764933632E+00
   130  1.2900000000000E+00 -1.7504254185614E-02  1.5235415732347E+00
   131  1.3000000000000E+00 -3.6627653827651E-02  1.5223547147186E+00
   132  1.3100000000000E+00 -5.4834643227864E-02  1.5187063245818E+00
   133  1.3200000000000E+00 -7.2106423553461E-02  1.5125956588199E+00
   134  1.3300000000000E+00 -8.8427164646529E-02  1.5040309159773E+00
   135  1.3400000000000E+00 -1.0378404758216E-01  1.4930292870985E+00
   136  1.3500000000000E+00 -1.1816729436496E-01  1.4796169615778E+00
   137  1.3600000000000E+00 -1.3157018457516E-01  1.4638290884301E+00
   138  1.3700000000000E+00 -1.4398905884423E-01  1.4457096927499E+00
   139  1.3800000000000E+00 -1.5542330911070E-01  1.4253115473875E+00
   140  1.3900000000000E+00 -1.6587535567763E-01  1.4026960001223E+00
   141  1.4000000000000E+00 -1.7535061116457E-01  1.3779327568768E+00
   142  1.4100000000000E+00 -1.8385743151800E-01  1.3510996217665E+00
   143  1.4200000000000E+00 -1.9140705431448E-01  1.3222821950384E+00
   144  1.4300000000000E+00 -1.9801352466035E-01  1.2915735301972E+00
   145  1.4400000000000E+00 -2.0369360905907E-01  1.2590737518610E+00
   146  1.4500000000000E+00 -2.0846669768398E-01  1.2248896361254E+00
   147  1.4600000000000E+00 -2.1235469555672E-01  1.1891341554391E+00
   148  1.4700000000000E+00 -2.1538190319315E-01  1.1519259902078E+00
   149  1.4800000000000E+00 -2.1757488733542E-01  1.1133890095480E+00
   150  1.4900000000000E+00 -2.1896234244299E-01  1.0736517237997E+00
   151  1.5000000000000E+00 -2.1957494366554E-01  1.0328467115797E+00
   152  1.5100000000000E+00 -2.1944519206611E-01  9.9111002431642E-01
   153  1.5200000000000E+00 -2.1860725290433E-01  9.4858057134649E-01
   154  1.5300000000000E+00 -2.1709678782579E-01  9.0539948877426E-01
   155  1.5400000000000E+00 -2.1495078183478E-01  8.6170949539873E-01
   156  1.5500000000000E+00 -2.1220736595375E-01  8.1765423909412E-01
   157  1.5600000000000E+00 -2.0890563649319E-01  7.7337763709188E-01
   158  1.5700000000000E+00 -2.0508547187050E-01  7.2902321365220E-01
   159  1.5800000000000E+00 -2.0078734792537E-01  6.8473343863177E-01
   160  1.5900000000000E+00 -1.9605215268266E-01  6.4064907045099E-01
   161  1.6000000000000E+00 -1.9092100151079E-01  5.9690850693860E-01
   162  1.6100000000000E+00 -1.8543505361548E-01  5.5364714748462E-01
   163  1.6200000000000E+00 -1.7963533079413E-01  5.1099676986309E-01
   164  1.6300000000000E+00 -1.7356253935594E-01  4.6908492499547E-01
   165  1.6400000000000E+00 -1.6725689608743E-01  4.2803435281457E-01
   166  1.6500000000000E+00 -1.6075795911138E-01  3.8796242225625E-01
   167  1.6600000000000E+00 -1.5410446445097E-01  3.4898059825508E-01
   168  1.6700000000000E+00 -1.4733416906903E-01  3.1119393844971E-01
   169  1.6800000000000E+00 -1.4048370110595E-01  2.7470062211555E-01
   170  1.6900000000000E+00 -1.3358841798868E-01  2.3959151363794E-01
   171  1.7000000000000E+00 -1.2668227302829E-01  2.0594976261883E-01
   172  1.7100000000000E+00 -1.1979769106391E-01  1.7385044247633E-01
   173  1.7200000000000E+00 -1.1296545364899E-01  1.4336022914946E-01
   174  1.7300000000000E+00 -1.0621459420945E-01  1.1453712126363E-01
   175  1.7400000000000E+00 -9.9572303535412E-02  8.7430202844941E-02
   176  1.7500000000000E+00 -9.3063845897389E-02  6.2079449397231E-02
   177  1.7600000000000E+00 -8.6712486005448E-02  3.8515577875140E-02
   178  1.7700000000000E+00 -8.0539426956278E-02  1.6759940802181E-02
   179  1.7800000000000E+00 -7.4563759238406E-02 -3.1755355047918E-03
   180  1.7900000000000E+00 -6.8802420791227E-02 -2.1288368929419E-02
   181  1.8000000000000E+00 -6.3270168038552E-02 -3.7585496379647E-02
   182  1.8100000000000E+00 -5.7979557743366E-02 -5.2083206335538E-02
   183  1.8200000000000E+00 -5.2940939457510E-02 -6.4807030292526E-02
   184  1.8300000000000E+00 -4.8162458268673E-02 -7.5791594542035E-02
   185  1.8400000000000E+00 -4.3650067477631E-02 -8.5080433993704E-02
   186  1.8500000000000E+00 -3.9407550771909E-02 -9.2725769994652E-02
   187  1.8600000000000E+00 -3.5436553398153E-02 -9.8788254340728E-02
   188  1.8700000000000E+00 -3.1736621726375E-02 -1.0333668215619E-01
   189  1.8800000000000E+00 -2.8305250830718E-02 -1.0644767500108E-01
   190  1.8900000000000E+00 -2.5137938923988E-02 -1.0820533969084E-01
   191  1.9000000000000E+00 -2.2228250688040E-02 -1.0870089125146E-01
   192  1.9100000000000E+00 -1.9567882060470E-02 -1.0803227822590E-01
   193  1.9200000000000E+00 -1.7147014014436E-02 -1.0630230412237E-01
   194  1.9300000000000E+00 -1.4954766128529E-02 -1.0361630458856E-01
   195  1.9400000000000E+00 -1.2979447305337E-02 -1.0008095348669E-01
   196  1.9500000000000E+00 -1.1208686856775E-02 -9.5803717374674E-02
   197  1.9600000000000E+00 -9.6295920821839E-03 -9.0892172661132E-02
   198  1.9700000000000E+00 -8.2289015168993E-03 -8.5453350667866E-02
   199  1.9800000000000E+00 -6.9931377237186E-03 -7.9593087814977E-02
   200  1.9900000000000E+00 -5.9087588185865E-03 -7.3415383933640E-02
   201  2.0000000000000E+00 -4.9623076549244E-03 -6.7021773060430E-02
   202  2.0100000000000E+00 -4.1405568223612E-03 -6.0510712830509E-02
   203  2.0200000000000E+00 -3.4306555215750E-03 -5.3976976947748E-02
   204  2.0300000000000E+00 -2.8202565264716E-03 -4.7511111237975E-02
   205  2.0400000000000E+00 -2.2976460461172E-03 -4.1198890217864E-02
   206  2.0500000000000E+00 -1.8519833072869E-03 -3.5120499588995E-02
   207  2.0600000000000E+00 -1.4744979168059E-03 -2.9347033082127E-02
   208  2.0700000000000E+00 -1.1569040636350E-03 -2.3944663397805E-02
   209  2.0800000000000E+00 -8.9038253400380E-04 -1.8977356931916E-02
   210  2.0900000000000E+00 -6.6754923153968E-04 -1.4501447526924E-02
   211  2.1000000000000E+00 -4.8231029283647E-04 -1.0565895307032E-02
   212  2.1100000000000E+00 -3.2997239701442E-04 -7.2118829271547E-03
   213  2.1200000000000E+00 -2.0732323837839E-04 -4.4730271777626E-03
   214  2.1300000000000E+00 -1.1257763225992E-04 -2.3733100296642E-03
   215  2.1400000000000E+00 -4.5190849416737E-05 -9.2264060739165E-04
   216  2.1500000000000E+00 -8.9410097637333E-06 -1.7467574902265E-04
   217  2.1600000000000E+00  1.2713957475276E-06  2.4292651647309E-05
   218  2.1700000000000E+00 -4.3064356554244E-08 -8.4134407868725E-07
   219  2.18  0.  0.
   220  2.19  0.  0.
   221  2.20  0.  0.
   222  2.21  0.  0.
   223  2.22  0.  0.
   224  2.23  0.  0.
   225  2.24  0.  0.
   226  2.25  0.  0.
   227  2.26  0.  0.
   228  2.27  0.  0.
   229  2.28  0.  0.
   230  2.29  0.  0.
   231  2.30  0.  0.
   232  2.31  0.  0.
   233  2.32  0.  0.
   234  2.33  0.  0.
   235  2.34  0.  0.
   236  2.35  0.  0.
   237  2.36  0.  0.
   238  2.37  0.  0.
   239  2.38  0.  0.
   240  2.39  0.  0.
   241  2.40  0.  0.
   242  2.41  0.  0.
   243  2.42  0.  0.
   244  2.43  0.  0.
   245  2.44  0.  0.
   246  2.45  0.  0.
   247  2.46  0.  0.
   248  2.47  0.  0.
   249  2.48  0.  0.
   250  2.49  0.  0.
   251  2.50  0.  0.
   252  2.51  0.  0.
   253  2.52  0.  0.
   254  2.53  0.  0.
   255  2.54  0.  0.
   256  2.55  0.  0.
   257  2.56  0.  0.
   258  2.57  0.  0.
   259  2.58  0.  0.
   260  2.59  0.  0.
   261  2.60  0.  0.
   262  2.61  0.  0.
   263  2.62  0.  0.
   264  2.63  0.  0.
   265  2.64  0.  0.
   266  2.65  0.  0.
   267  2.66  0.  0.
   268  2.67  0.  0.
   269  2.68  0.  0.
   270  2.69  0.  0.
   271  2.70  0.  0.
   272  2.71  0.  0.
   273  2.72  0.  0.
   274  2.73  0.  0.
   275  2.74  0.  0.
   276  2.75  0.  0.
   277  2.76  0.  0.
   278  2.77  0.  0.
   279  2.78  0.  0.
   280  2.79  0.  0.
   281  2.80  0.  0.
   282  2.81  0.  0.
   283  2.82  0.  0.
   284  2.83  0.  0.
   285  2.84  0.  0.
   286  2.85  0.  0.
   287  2.86  0.  0.
   288  2.87  0.  0.
   289  2.88  0.  0.
   290  2.89  0.  0.
   291  2.90  0.  0.
   292  2.91  0.  0.
   293  2.92  0.  0.
   294  2.93  0.  0.
   295  2.94  0.  0.
   296  2.95  0.  0.
   297  2.96  0.  0.
   298  2.97  0.  0.
   299  2.98  0.  0.
   300  2.99  0.  0.
   301  3.00  0.  0.
   302  3.01  0.  0.
   303  3.02  0.  0.
   304  3.03  0.  0.
   305  3.04  0.  0.
   306  3.05  0.  0.
   307  3.06  0.  0.
   308  3.07  0.  0.
   309  3.08  0.  0.
   310  3.09  0.  0.
   311  3.10  0.  0.
   312  3.11  0.  0.
   313  3.12  0.  0.
   314  3.13  0.  0.
   315  3.14  0.  0.
   316  3.15  0.  0.
   317  3.16  0.  0.
   318  3.17  0.  0.
   319  3.18  0.  0.
   320  3.19  0.  0.
   321  3.20  0.  0.
   322  3.21  0.  0.
   323  3.22  0.  0.
   324  3.23  0.  0.
   325  3.24  0.  0.
   326  3.25  0.  0.
   327  3.26  0.  0.
   328  3.27  0.  0.
   329  3.28  0.  0.
   330  3.29  0.  0.
   331  3.30  0.  0.
   332  3.31  0.  0.
   333  3.32  0.  0.
   334  3.33  0.  0.
   335  3.34  0.  0.
   336  3.35  0.  0.
   337  3.36  0.  0.
   338  3.37  0.  0.
   339  3.38  0.  0.
   340  3.39  0.  0.
   341  3.40  0.  0.
   342  3.41  0.  0.
   343  3.42  0.  0.
   344  3.43  0.  0.
   345  3.44  0.  0.
   346  3.45  0.  0.
   347  3.46  0.  0.
   348  3.47  0.  0.
   349  3.48  0.  0.
   350  3.49  0.  0.
   351  3.50  0.  0.
   352  3.51  0.  0.
   353  3.52  0.  0.
   354  3.53  0.  0.
   355  3.54  0.  0.
   356  3.55  0.  0.
   357  3.56  0.  0.
   358  3.57  0.  0.
   359  3.58  0.  0.
   360  3.59  0.  0.
   361  3.60  0.  0.
   362  3.61  0.  0.
   363  3.62  0.  0.
   364  3.63  0.  0.
   365  3.64  0.  0.
   366  3.65  0.  0.
   367  3.66  0.  0.
   368  3.67  0.  0.
   369  3.68  0.  0.
   370  3.69  0.  0.
   371  3.70  0.  0.
   372  3.71  0.  0.
   373  3.72  0.  0.
   374  3.73  0.  0.
   375  3.74  0.  0.
   376  3.75  0.  0.
   377  3.76  0.  0.
   378  3.77  0.  0.
   379  3.78  0.  0.
   380  3.79  0.  0.
   381  3.80  0.  0.
   382  3.81  0.  0.
   383  3.82  0.  0.
   384  3.83  0.  0.
   385  3.84  0.  0.
   386  3.85  0.  0.
   387  3.86  0.  0.
   388  3.87  0.  0.
   389  3.88  0.  0.
   390  3.89  0.  0.
   391  3.90  0.  0.
   392  3.91  0.  0.
   393  3.92  0.  0.
   394  3.93  0.  0.
   395  3.94  0.  0.
   396  3.95  0.  0.
   397  3.96  0.  0.
   398  3.97  0.  0.
   399  3.98  0.  0.
   400  3.99  0.  0.
   401  4.00  0.  0.
   402  4.01  0.  0.
   403  4.02  0.  0.
   404  4.03  0.  0.
   405  4.04  0.  0.
   406  4.05  0.  0.
   407  4.06  0.  0.
   408  4.07  0.  0.
   409  4.08  0.  0.
   410  4.09  0.  0.
   411  4.10  0.  0.
   412  4.11  0.  0.
   413  4.12  0.  0.
   414  4.13  0.  0.
   415  4.14  0.  0.
   416  4.15  0.  0.
   417  4.16  0.  0.
   418  4.17  0.  0.
   419  4.18  0.  0.
   420  4.19  0.  0.
   421  4.20  0.  0.
   422  4.21  0.  0.
   423  4.22  0.  0.
   424  4.23  0.  0.
   425  4.24  0.  0.
   426  4.25  0.  0.
   427  4.26  0.  0.
   428  4.27  0.  0.
   429  4.28  0.  0.
   430  4.29  0.  0.
   431  4.30  0.  0.
   432  4.31  0.  0.
   433  4.32  0.  0.
   434  4.33  0.  0.
   435  4.34  0.  0.
   436  4.35  0.  0.
   437  4.36  0.  0.
   438  4.37  0.  0.
   439  4.38  0.  0.
   440  4.39  0.  0.
   441  4.40  0.  0.
   442  4.41  0.  0.
   443  4.42  0.  0.
   444  4.43  0.  0.
   445  4.44  0.  0.
   446  4.45  0.  0.
   447  4.46  0.  0.
   448  4.47  0.  0.
   449  4.48  0.  0.
   450  4.49  0.  0.
   451  4.50  0.  0.
   452  4.51  0.  0.
   453  4.52  0.  0.
   454  4.53  0.  0.
   455  4.54  0.  0.
   456  4.55  0.  0.
   457  4.56  0.  0.
   458  4.57  0.  0.
   459  4.58  0.  0.
   460  4.59  0.  0.
   461  4.60  0.  0.
   462  4.61  0.  0.
   463  4.62  0.  0.
   464  4.63  0.  0.
   465  4.64  0.  0.
   466  4.65  0.  0.
   467  4.66  0.  0.
   468  4.67  0.  0.
   469  4.68  0.  0.
   470  4.69  0.  0.
   471  4.70  0.  0.
   472  4.71  0.  0.
   473  4.72  0.  0.
   474  4.73  0.  0.
   475  4.74  0.  0.
   476  4.75  0.  0.
   477  4.76  0.  0.
   478  4.77  0.  0.
   479  4.78  0.  0.
   480  4.79  0.  0.
   481  4.80  0.  0.
   482  4.81  0.  0.
   483  4.82  0.  0.
   484  4.83  0.  0.
   485  4.84  0.  0.
   486  4.85  0.  0.
   487  4.86  0.  0.
   488  4.87  0.  0.
   489  4.88  0.  0.
   490  4.89  0.  0.
   491  4.90  0.  0.
   492  4.91  0.  0.
   493  4.92  0.  0.
   494  4.93  0.  0.
   495  4.94  0.  0.
   496  4.95  0.  0.
   497  4.96  0.  0.
   498  4.97  0.  0.
   499  4.98  0.  0.
   500  4.99  0.  0.
   501  5.00  0.  0.
   502  5.01  0.  0.
   503  5.02  0.  0.
   504  5.03  0.  0.
   505  5.04  0.  0.
   506  5.05  0.  0.
   507  5.06  0.  0.
   508  5.07  0.  0.
   509  5.08  0.  0.
   510  5.09  0.  0.
   511  5.10  0.  0.
   512  5.11  0.  0.
   513  5.12  0.  0.
   514  5.13  0.  0.
   515  5.14  0.  0.
   516  5.15  0.  0.
   517  5.16  0.  0.
   518  5.17  0.  0.
   519  5.18  0.  0.
   520  5.19  0.  0.
   521  5.20  0.  0.
   522  5.21  0.  0.
   523  5.22  0.  0.
   524  5.23  0.  0.
   525  5.24  0.  0.
   526  5.25  0.  0.
   527  5.26  0.  0.
   528  5.27  0.  0.
   529  5.28  0.  0.
   530  5.29  0.  0.
   531  5.30  0.  0.
   532  5.31  0.  0.
   533  5.32  0.  0.
   534  5.33  0.  0.
   535  5.34  0.  0.
   536  5.35  0.  0.
   537  5.36  0.  0.
   538  5.37  0.  0.
   539  5.38  0.  0.
   540  5.39  0.  0.
   541  5.40  0.  0.
   542  5.41  0.  0.
   543  5.42  0.  0.
   544  5.43  0.  0.
   545  5.44  0.  0.
   546  5.45  0.  0.
   547  5.46  0.  0.
   548  5.47  0.  0.
   549  5.48  0.  0.
   550  5.49  0.  0.
   551  5.50  0.  0.
   552  5.51  0.  0.
   553  5.52  0.  0.
   554  5.53  0.  0.
   555  5.54  0.  0.
   556  5.55  0.  0.
   557  5.56  0.  0.
   558  5.57  0.  0.
   559  5.58  0.  0.
   560  5.59  0.  0.
   561  5.60  0.  0.
   562  5.61  0.  0.
   563  5.62  0.  0.
   564  5.63  0.  0.
   565  5.64  0.  0.
   566  5.65  0.  0.
   567  5.66  0.  0.
   568  5.67  0.  0.
   569  5.68  0.  0.
   570  5.69  0.  0.
   571  5.70  0.  0.
   572  5.71  0.  0.
   573  5.72  0.  0.
   574  5.73  0.  0.
   575  5.74  0.  0.
   576  5.75  0.  0.
   577  5.76  0.  0.
   578  5.77  0.  0.
   579  5.78  0.  0.
   580  5.79  0.  0.
   581  5.80  0.  0.
   582  5.81  0.  0.
   583  5.82  0.  0.
   584  5.83  0.  0.
   585  5.84  0.  0.
   586  5.85  0.  0.
   587  5.86  0.  0.
   588  5.87  0.  0.
   589  5.88  0.  0.
   590  5.89  0.  0.
   591  5.90  0.  0.
   592  5.91  0.  0.
   593  5.92  0.  0.
   594  5.93  0.  0.
   595  5.94  0.  0.
   596  5.95  0.  0.
   597  5.96  0.  0.
   598  5.97  0.  0.
   599  5.98  0.  0.
   600  5.99  0.  0.
   1                         5.1524481269464E+00  4.2907355826886E-01  1.2416121040222E-02
     1  0.0000000000000E+00  4.1743417056317E-10 -1.6048927256596E-09 -6.6232464686344E-09
     2  1.0000000000000E-02  6.2695205946501E-04 -5.2083570959632E-04 -1.8537041038124E-04
     3  2.0000000000000E-02  2.5058631492905E-03 -2.0785277682941E-03 -7.2764677239485E-04
     4  3.0000000000000E-02  5.6309151816575E-03 -4.6586943541145E-03 -1.5855722197141E-03
     5  4.0000000000000E-02  9.9924683683995E-03 -8.2375761563591E-03 -2.6912073837143E-03
     6  5.0000000000000E-02  1.5577145939937E-02 -1.2782348821233E-02 -3.9511505108312E-03
     7  6.0000000000000E-02  2.2367951126935E-02 -1.8251554134375E-02 -5.2482198253932E-03
     8  7.0000000000000E-02  3.0344414807385E-02 -2.4595643803911E-02 -6.4435727787043E-03
     9  8.0000000000000E-02  3.9482771804359E-02 -3.1757628102756E-02 -7.3792302019086E-03
    10  9.0000000000000E-02  4.9756163430705E-02 -3.9673820132380E-02 -7.8809672145292E-03
    11  1.0000000000000E-01  6.1134863521927E-02 -4.8274665103308E-02 -7.7615271184302E-03
    12  1.1000000000000E-01  7.3586524882462E-02 -5.7485642809309E-02 -6.8241095085891E-03
    13  1.2000000000000E-01  8.7076442798097E-02 -6.7228230420073E-02 -4.8660795329870E-03
    14  1.3000000000000E-01  1.0156783204214E-01 -7.7420911845694E-02 -1.6828416912278E-03
    15  1.4000000000000E-01  1.1702211362857E-01 -8.7980219248405E-02  2.9281811671248E-03
    16  1.5000000000000E-01  1.3339920744408E-01 -9.8821791802163E-02  9.1635248621119E-03
    17  1.6000000000000E-01  1.5065782682481E-01 -1.0986143653609E-01  1.7209679135767E-02
    18  1.7000000000000E-01  1.6875577113324E-01 -1.2101617604754E-01  2.7239163451448E-02
    19  1.8000000000000E-01  1.8765021243689E-01 -1.3220526803573E-01  3.9406744853940E-02
    20  1.9000000000000E-01  2.0729797249226E-01 -1.4335118198561E-01  5.3845857709030E-02
    21  2.0000000000000E-01  2.2765578639386E-01 -1.5438051891968E-01  7.0665282576094E-02
    22  2.1000000000000E-01  2.4868054945671E-01 -1.6522486092392E-01  8.9946138062830E-02
    23  2.2000000000000E-01  2.7032954415914E-01 -1.7582153813411E-01  1.1173923531397E-01
    24  2.3000000000000E-01  2.9256064427681E-01 -1.8611430202574E-01  1.3606283985153E-01
    25  2.4000000000000E-01  3.1533249368524E-01 -1.9605389517007E-01  1.6290087987954E-01
    26  2.5000000000000E-01  3.3860465769142E-01 -2.0559850908191E-01  1.9220163396884E-01
    27  2.6000000000000E-01  3.6233774517007E-01 -2.1471412337241E-01  2.2387692432999E-01
    28  2.7000000000000E-01  3.8649350022167E-01 -2.2337472110932E-01  2.5780183476005E-01
    29  2.8000000000000E-01  4.1103486252999E-01 -2.3156237705630E-01  2.9381496490786E-01
    30  2.9000000000000E-01  4.3592599607190E-01 -2.3926721728630E-01  3.3171922484741E-01
    31  3.0000000000000E-01  4.6113228631338E-01 -2.4648725051686E-01  3.7128316618609E-01
    32  3.1000000000000E-01  4.8662030650687E-01 -2.5322807337225E-01  4.1224283817332E-01
    33  3.2000000000000E-01  5.1235775418010E-01 -2.5950245361170E-01  4.5430414962349E-01
    34  3.3000000000000E-01  5.3831335936691E-01 -2.6532979714985E-01  4.9714571003505E-01
    35  3.4000000000000E-01  5.6445676657202E-01 -2.7073550640954E-01  5.4042211617906E-01
    36  3.5000000000000E-01  5.9075839287538E-01 -2.7575023916326E-01  5.8376764374833E-01
    37  3.6000000000000E-01  6.1718926496386E-01 -2.8040907851655E-01  6.2680029749828E-01
    38  3.7000000000000E-01  6.4372083822158E-01 -2.8475062604086E-01  6.6912616776197E-01
    39  3.8000000000000E-01  6.7032480131030E-01 -2.8881603125721E-01  7.1034403636749E-01
    40  3.9000000000000E-01  6.9697286992419E-01 -2.9264797168655E-01  7.5005017089523E-01
    41  4.0000000000000E-01  7.2363657360409E-01 -2.9628959850375E-01  7.8784324295160E-01
    42  4.1000000000000E-01  7.5028703964259E-01 -2.9978346344652E-01  8.2332930375188E-01
    43  4.2000000000000E-01  7.7689477819993E-01 -3.0317044302914E-01  8.5612674883947E-01
    44  4.3000000000000E-01  8.0342947278101E-01 -3.0648867628634E-01  8.8587120324707E-01
    45  4.4000000000000E-01  8.2985978019324E-01 -3.0977253222160E-01  9.1222025884240E-01
    46  4.5000000000000E-01  8.5615314401600E-01 -3.1305162285523E-01  9.3485799699517E-01
    47  4.6000000000000E-01  8.8227562546275E-01 -3.1634987726444E-01  9.5349923204388E-01
    48  4.7000000000000E-01  9.0819175531127E-01 -3.1968469128400E-01  9.6789341430012E-01
    49  4.8000000000000E-01  9.3386441031566E-01 -3.2306616660255E-01  9.7782813547075E-01
    50  4.9000000000000E-01  9.5925471720071E-01 -3.2649645185579E-01  9.8313218434902E-01
    51  5.0000000000000E-01  9.8432198697807E-01 -3.2996919699920E-01  9.8367810636416E-01
    52  5.1000000000000E-01  1.0090236819192E+00 -3.3346913075633E-01  9.7938422701029E-01
    53  5.2000000000000E-01  1.0333154170778E+00 -3.3697176930260E-01  9.7021610621507E-01
    54  5.3000000000000E-01  1.0571509977785E+00 -3.4044326258152E-01  9.5618739826507E-01
    55  5.4000000000000E-01  1.0804824939905E+00 -3.4384038278293E-01  9.3736009987533E-01
    56  5.5000000000000E-01  1.1032603519819E+00 -3.4711065756632E-01  9.1384417727023E-01
    57  5.6000000000000E-01  1.1254335431196E+00 -3.5019264861290E-01  8.8579657161729E-01
    58  5.7000000000000E-01  1.1469497491438E+00 -3.5301637406469E-01  8.5341959071109E-01
    59  5.8000000000000E-01  1.1677555827089E+00 -3.5550387138491E-01  8.1695870332207E-01
    60  5.9000000000000E-01  1.1877968414599E+00 -3.5756989518005E-01  7.7669976098789E-01
    61  6.0000000000000E-01  1.2070187934039E+00 -3.5912274258595E-01  7.3296568011515E-01
    62  6.1000000000000E-01  1.2253664908542E+00 -3.6006519696713E-01  6.8611262496523E-01
    63  6.2000000000000E-01  1.2427851097699E+00 -3.6029557893455E-01  6.3652573930731E-01
    64  6.3000000000000E-01  1.2592203109031E+00 -3.5970889207793E-01  5.8461448113341E-01
    65  6.4000000000000E-01  1.2746186187885E+00 -3.5819804935703E-01  5.3080762074837E-01
    66  6.5000000000000E-01  1.2889278142954E+00 -3.5565516482307E-01  4.7554796768304E-01
    67  6.6000000000000E-01  1.3020973361878E+00 -3.5197289426580E-01  4.1928689615672E-01
    68  6.7000000000000E-01  1.3140786869329E+00 -3.4704580751923E-01  3.6247874216833E-01