Ba    ONCVPSP-4.0.1  r_core=   2.15674   1.90213   2.15674
     56.0000     10.0000      231019    zatom,zion,pspd
     8       2   2     4   600     0    pspcod,pspxc,lmax,lloc,mmax,r2well
  5.99000000  5.00000000  0.00000000    rchrg fchrg qchrg
     2     2     2     0     0    nproj
     1     1           extension_switch
   0                         6.4054713456411E+00  6.1709021403392E-01
     1  0.0000000000000E+00 -8.2624462827141E-12  3.4759140010721E-11
     2  1.0000000000000E-02  2.8609131718903E-02 -1.0124327199591E-02
     3  2.0000000000000E-02  5.7203864874988E-02 -2.0225939051203E-02
     4  3.0000000000000E-02  8.5769822781368E-02 -3.0282252216070E-02
     5  4.0000000000000E-02  1.1429267226405E-01 -4.0270946214223E-02
     6  5.0000000000000E-02  1.4275814482307E-01 -5.0170091963648E-02
     7  6.0000000000000E-02  1.7115205708516E-01 -5.9958276875840E-02
     8  7.0000000000000E-02  1.9946033032144E-01 -6.9614725400864E-02
     9  8.0000000000000E-02  2.2766900881209E-01 -7.9119413949795E-02
    10  9.0000000000000E-02  2.5576427685000E-01 -8.8453179165446E-02
    11  1.0000000000000E-01  2.8373247418750E-01 -9.7597818563288E-02
    12  1.1000000000000E-01  3.1156010974443E-01 -1.0653618262303E-01
    13  1.2000000000000E-01  3.3923387341102E-01 -1.1525225747736E-01
    14  1.3000000000000E-01  3.6674064579659E-01 -1.2373123741673E-01
    15  1.4000000000000E-01  3.9406750579350E-01 -1.3195958650829E-01
    16  1.5000000000000E-01  4.2120173584603E-01 -1.3992508871171E-01
    17  1.6000000000000E-01  4.4813082483475E-01 -1.4761688596449E-01
    18  1.7000000000000E-01  4.7484246850953E-01 -1.5502550380402E-01
    19  1.8000000000000E-01  5.0132456742699E-01 -1.6214286419208E-01
    20  1.9000000000000E-01  5.2756522237266E-01 -1.6896228530913E-01
    21  2.0000000000000E-01  5.5355272727170E-01 -1.7547846819026E-01
    22  2.1000000000000E-01  5.7927555961744E-01 -1.8168747018071E-01
    23  2.2000000000000E-01  6.0472236847145E-01 -1.8758666529614E-01
    24  2.3000000000000E-01  6.2988196011391E-01 -1.9317469168070E-01
    25  2.4000000000000E-01  6.5474328144767E-01 -1.9845138646297E-01
    26  2.5000000000000E-01  6.7929540128369E-01 -2.0341770841620E-01
    27  2.6000000000000E-01  7.0352748965927E-01 -2.0807564893341E-01
    28  2.7000000000000E-01  7.2742879536331E-01 -2.1242813192937E-01
    29  2.8000000000000E-01  7.5098862186511E-01 -2.1647890337993E-01
    30  2.9000000000000E-01  7.7419630186372E-01 -2.2023241130289E-01
    31  3.0000000000000E-01  7.9704117069468E-01 -2.2369367707402E-01
    32  3.1000000000000E-01  8.1951253884912E-01 -2.2686815905552E-01
    33  3.2000000000000E-01  8.4159966387636E-01 -2.2976160959162E-01
    34  3.3000000000000E-01  8.6329172195636E-01 -2.3237992649699E-01
    35  3.4000000000000E-01  8.8457777944060E-01 -2.3472900022703E-01
    36  3.5000000000000E-01  9.0544676467133E-01 -2.3681455797450E-01
    37  3.6000000000000E-01  9.2588744039719E-01 -2.3864200598441E-01
    38  3.7000000000000E-01  9.4588837710990E-01 -2.4021627141738E-01
    39  3.8000000000000E-01  9.6543792763074E-01 -2.4154164512085E-01
    40  3.9000000000000E-01  9.8452420327672E-01 -2.4262162668738E-01
    41  4.0000000000000E-01  1.0031350519361E+00 -2.4345877318938E-01
    42  4.1000000000000E-01  1.0212580383791E+00 -2.4405455297906E-01
    43  4.2000000000000E-01  1.0388804271232E+00 -2.4440920593327E-01
    44  4.3000000000000E-01  1.0559891681652E+00 -2.4452161150140E-01
    45  4.4000000000000E-01  1.0725708858804E+00 -2.4438916588538E-01
    46  4.5000000000000E-01  1.0886118713747E+00 -2.4400766963904E-01
    47  4.6000000000000E-01  1.1040980785616E+00 -2.4337122692435E-01
    48  4.7000000000000E-01  1.1190151242153E+00 -2.4247215760132E-01
    49  4.8000000000000E-01  1.1333482922322E+00 -2.4130092325851E-01
    50  4.9000000000000E-01  1.1470825423081E+00 -2.3984606821203E-01
    51  5.0000000000000E-01  1.1602025232155E+00 -2.3809417641307E-01
    52  5.1000000000000E-01  1.1726925908353E+00 -2.3602984510753E-01
    53  5.2000000000000E-01  1.1845368310714E+00 -2.3363567598785E-01
    54  5.3000000000000E-01  1.1957190877432E+00 -2.3089228446513E-01
    55  5.4000000000000E-01  1.2062229955191E+00 -2.2777832757239E-01
    56  5.5000000000000E-01  1.2160320179231E+00 -2.2427055088607E-01
    57  5.6000000000000E-01  1.2251294904078E+00 -2.2034385472348E-01
    58  5.7000000000000E-01  1.2334986684534E+00 -2.1597137974152E-01
    59  5.8000000000000E-01  1.2411227806177E+00 -2.1112461192454E-01
    60  5.9000000000000E-01  1.2479850864201E+00 -2.0577350681032E-01
    61  6.0000000000000E-01  1.2540689389112E+00 -1.9988663266187E-01
    62  6.1000000000000E-01  1.2593578517379E+00 -1.9343133215082E-01
    63  6.2000000000000E-01  1.2638355704798E+00 -1.8637390197624E-01
    64  6.3000000000000E-01  1.2674861479948E+00 -1.7867978970239E-01
    65  6.4000000000000E-01  1.2702940234757E+00 -1.7031380695963E-01
    66  6.5000000000000E-01  1.2722441048871E+00 -1.6124035801762E-01
    67  6.6000000000000E-01  1.2733218544156E+00 -1.5142368260779E-01
    68  6.7000000000000E-01  1.2735133765374E+00 -1.4082811174565E-01
    69  6.8000000000000E-01  1.2728055082728E+00 -1.2941833518232E-01
    70  6.9000000000000E-01  1.2711859111746E+00 -1.1715967900093E-01
    71  7.0000000000000E-01  1.2686431645665E+00 -1.0401839176663E-01
    72  7.1000000000000E-01  1.2651668595266E+00 -8.9961937541455E-02
    73  7.2000000000000E-01  1.2607476930881E+00 -7.4959293986564E-02
    74  7.3000000000000E-01  1.2553775621148E+00 -5.8981253695532E-02
    75  7.4000000000000E-01  1.2490496562890E+00 -4.2000726835140E-02
    76  7.5000000000000E-01  1.2417585496411E+00 -2.3993043113417E-02
    77  7.6000000000000E-01  1.2335002900403E+00 -4.9362510502300E-03
    78  7.7000000000000E-01  1.2242724860598E+00  1.5188587505601E-02
    79  7.8000000000000E-01  1.2140743906296E+00  3.6397109688349E-02
    80  7.9000000000000E-01  1.2029069808904E+00  5.8701372837168E-02
    81  8.0000000000000E-01  1.1907730336693E+00  8.2109586700982E-02
    82  8.1000000000000E-01  1.1776771960058E+00  1.0662585867756E-01
    83  8.2000000000000E-01  1.1636260501704E+00  1.3224995410276E-01
    84  8.3000000000000E-01  1.1486281726346E+00  1.5897707355637E-01
    85  8.4000000000000E-01  1.1326941864728E+00  1.8679764908795E-01
    86  8.5000000000000E-01  1.1158368066977E+00  2.1569716118924E-01
    87  8.6000000000000E-01  1.0980708780619E+00  2.4565597824960E-01
    88  8.7000000000000E-01  1.0794134048887E+00  2.7664922012812E-01
    89  8.8000000000000E-01  1.0598835725262E+00  3.0864664736004E-01
    90  8.9000000000000E-01  1.0395027600630E+00  3.4161257738811E-01
    91  9.0000000000000E-01  1.0182945439774E+00  3.7550582906983E-01
    92  9.1000000000000E-01  9.9628469244122E-01  4.1027969656288E-01
    93  9.2000000000000E-01  9.7350115004133E-01  4.4588195353046E-01
    94  9.3000000000000E-01  9.4997401273354E-01  4.8225488844079E-01
    95  9.4000000000000E-01  9.2573549289148E-01  5.1933537155792E-01
    96  9.5000000000000E-01  9.0081987436723E-01  5.5705495403763E-01
    97  9.6000000000000E-01  8.7526345753329E-01  5.9533999935262E-01
    98  9.7000000000000E-01  8.4910449433118E-01  6.3411184707679E-01
    99  9.8000000000000E-01  8.2238311340746E-01  6.7328700886049E-01
   100  9.9000000000000E-01  7.9514123547482E-01  7.1277739622779E-01
   101  1.0000000000000E+00  7.6742247909256E-01  7.5249057962550E-01
   102  1.0100000000000E+00  7.3927205711740E-01  7.9233007795156E-01
   103  1.0200000000000E+00  7.1073666413176E-01  8.3219567759072E-01
   104  1.0300000000000E+00  6.8186435521214E-01  8.7198377978708E-01
   105  1.0400000000000E+00  6.5270441645421E-01  9.1158777499025E-01
   106  1.0500000000000E+00  6.2330722772395E-01  9.5089844262299E-01
   107  1.0600000000000E+00  5.9372411815515E-01  9.8980437453658E-01
   108  1.0700000000000E+00  5.6400721496186E-01  1.0281924202465E+00
   109  1.0800000000000E+00  5.3420928618060E-01  1.0659481518757E+00
   110  1.0900000000000E+00  5.0438357800037E-01  1.1029563465787E+00
   111  1.1000000000000E+00  4.7458364737813E-01  1.1391014840763E+00
   112  1.1100000000000E+00  4.4486319067448E-01  1.1742682567987E+00
   113  1.1200000000000E+00  4.1527586907674E-01  1.2083420900215E+00
   114  1.1300000000000E+00  3.8587513160536E-01  1.2412096692696E+00
   115  1.1400000000000E+00  3.5671403652464E-01  1.2727594721842E+00
   116  1.1500000000000E+00  3.2784507199842E-01  1.3028823019690E+00
   117  1.1600000000000E+00  2.9931997684745E-01  1.3314718194833E+00
   118  1.1700000000000E+00  2.7118956227555E-01  1.3584250710072E+00
   119  1.1800000000000E+00  2.4350353543804E-01  1.3836430086872E+00
   120  1.1900000000000E+00  2.1631032572668E-01  1.4070310006669E+00
   121  1.2000000000000E+00  1.8965691464131E-01  1.4284993279263E+00
   122  1.2100000000000E+00  1.6358867010934E-01  1.4479636648846E+00
   123  1.2200000000000E+00  1.3814918610002E-01  1.4653455408793E+00
   124  1.2300000000000E+00  1.1338012836115E-01  1.4805727797015E+00
   125  1.2400000000000E+00  8.9321087081662E-02  1.4935799144616E+00
   126  1.2500000000000E+00  6.6009437254370E-02  1.5043085751644E+00
   127  1.2600000000000E+00  4.3480207479480E-02  1.5127078464974E+00
   128  1.2700000000000E+00  2.1765957910643E-02  1.5187345934805E+00
   129  1.2800000000000E+00  8.9666800278271E-04  1.5223537527787E+00
   130  1.2900000000000E+00 -1.9100365326300E-02  1.5235385876565E+00
   131  1.3000000000000E+00 -3.8200618559618E-02  1.5222709047350E+00
   132  1.3100000000000E+00 -5.6382420963621E-02  1.5185412309173E+00
   133  1.3200000000000E+00 -7.3627022041445E-02  1.5123489490559E+00
   134  1.3300000000000E+00 -8.9918646669600E-02  1.5037023911609E+00
   135  1.3400000000000E+00 -1.0524453759476E-01  1.4926188881798E+00
   136  1.3500000000000E+00 -1.1959498503309E-01  1.4791247756199E+00
   137  1.3600000000000E+00 -1.3296334318280E-01  1.4632553545306E+00
   138  1.3700000000000E+00 -1.4534603353011E-01  1.4450548076173E+00
   139  1.3800000000000E+00 -1.5674253489930E-01  1.4245760705117E+00
   140  1.3900000000000E+00 -1.6715536026875E-01  1.4018806584842E+00
   141  1.4000000000000E+00 -1.7659002044656E-01  1.3770384491387E+00
   142  1.4100000000000E+00 -1.8505497477069E-01  1.3501274218900E+00
   143  1.4200000000000E+00 -1.9256156906873E-01  1.3212333552779E+00
   144  1.4300000000000E+00 -1.9912396118273E-01  1.2904494834178E+00
   145  1.4400000000000E+00 -2.0475903443180E-01  1.2578761131371E+00
   146  1.4500000000000E+00 -2.0948629945168E-01  1.2236202035749E+00
   147  1.4600000000000E+00 -2.1332778491409E-01  1.1877949102553E+00
   148  1.4700000000000E+00 -2.1630791768930E-01  1.1505190958539E+00
   149  1.4800000000000E+00 -2.1845339307335E-01  1.1119168100857E+00
   150  1.4900000000000E+00 -2.1979303575519E-01  1.0721167413245E+00
   151  1.5000000000000E+00 -2.2035765224911E-01  1.0312516427453E+00
   152  1.5100000000000E+00 -2.2017987556406E-01  9.8945773593353E-01
   153  1.5200000000000E+00 -2.1929400292238E-01  9.4687409504762E-01
   154  1.5300000000000E+00 -2.1773582737706E-01  9.0364201474215E-01
   155  1.5400000000000E+00 -2.1554246420813E-01  8.5990436516271E-01
   156  1.5500000000000E+00 -2.1275217300458E-01  8.1580493740429E-01
   157  1.5600000000000E+00 -2.0940417635879E-01  7.7148778288786E-01
   158  1.5700000000000E+00 -2.0553847611536E-01  7.2709655014942E-01
   159  1.5800000000000E+00 -2.0119566812529E-01  6.8277382255474E-01
   160  1.5900000000000E+00 -1.9641675645955E-01  6.3866046044943E-01
   161  1.6000000000000E+00 -1.9124296803358E-01  5.9489495122870E-01
   162  1.6100000000000E+00 -1.8571556858560E-01  5.5161277076371E-01
   163  1.6200000000000E+00 -1.7987568093710E-01  5.0894575955213E-01
   164  1.6300000000000E+00 -1.7376410644397E-01  4.6702151686979E-01
   165  1.6400000000000E+00 -1.6742115052039E-01  4.2596281608845E-01
   166  1.6500000000000E+00 -1.6088645308671E-01  3.8588704419276E-01
   167  1.6600000000000E+00 -1.5419882475548E-01  3.4690566837721E-01
   168  1.6700000000000E+00 -1.4739608952807E-01  3.0912373243348E-01
   169  1.6800000000000E+00 -1.4051493472773E-01  2.7263938545033E-01
   170  1.6900000000000E+00 -1.3359076884372E-01  2.3754344514273E-01
   171  1.7000000000000E+00 -1.2665758790545E-01  2.0391899790678E-01
   172  1.7100000000000E+00 -1.1974785094657E-01  1.7184103746254E-01
   173  1.7200000000000E+00 -1.1289236505600E-01  1.4137614369984E-01
   174  1.7300000000000E+00 -1.0612018044670E-01  1.1258220308414E-01
   175  1.7400000000000E+00 -9.9458495904840E-02  8.5508171712017E-02
   176  1.7500000000000E+00 -9.2932574910670E-02  6.0193881831210E-02
   177  1.7600000000000E+00 -8.6565672650095E-02  3.6669892358434E-02
   178  1.7700000000000E+00 -8.0378974061917E-02  1.4957383643994E-02
   179  1.7800000000000E+00 -7.4391542990708E-02 -4.9319035565123E-03
   180  1.7900000000000E+00 -6.8620282440554E-02 -2.2995685229379E-02
   181  1.8000000000000E+00 -6.3079905849593E-02 -3.9241107982473E-02
   182  1.8100000000000E+00 -5.7782919230952E-02 -5.3684680554154E-02
   183  1.8200000000000E+00 -5.2739613952566E-02 -6.6352164125601E-02
   184  1.8300000000000E+00 -4.7958069856649E-02 -7.7278422882298E-02
   185  1.8400000000000E+00 -4.3444168349950E-02 -8.6507236532848E-02
   186  1.8500000000000E+00 -3.9201615028954E-02 -9.4091076745065E-02
   187  1.8600000000000E+00 -3.5231971339979E-02 -1.0009084969934E-01
   188  1.8700000000000E+00 -3.1534694664873E-02 -1.0457560744060E-01
   189  1.8800000000000E+00 -2.8107186454345E-02 -1.0762222939627E-01
   190  1.8900000000000E+00 -2.4944847243074E-02 -1.0931507954602E-01
   191  1.9000000000000E+00 -2.2041140586869E-02 -1.0974562769981E-01
   192  1.9100000000000E+00 -1.9387658476431E-02 -1.0901207304190E-01
   193  1.9200000000000E+00 -1.6974475875755E-02 -1.0721746652290E-01
   194  1.9300000000000E+00 -1.4790605050637E-02 -1.0446738987365E-01
   195  1.9400000000000E+00 -1.2824246928506E-02 -1.0086876151378E-01
   196  1.9500000000000E+00 -1.1062922769799E-02 -9.6529289681212E-02
   197  1.9600000000000E+00 -9.4936323465461E-03 -9.1556788476822E-02
   198  1.9700000000000E+00 -8.1030077866276E-03 -8.6058521776829E-02
   199  1.9800000000000E+00 -6.8774669554816E-03 -8.0140552281743E-02
   200  1.9900000000000E+00 -5.8033655631270E-03 -7.3907098715315E-02
   201  2.0000000000000E+00 -4.8671469174745E-03 -6.7459905532965E-02
   202  2.0100000000000E+00 -4.0554874747332E-03 -6.0897631265690E-02
   203  2.0200000000000E+00 -3.3554442578472E-03 -5.4315239967498E-02
   204  2.0300000000000E+00 -2.7545823135616E-03 -4.7803456328452E-02
   205  2.0400000000000E+00 -2.2411050543593E-03 -4.1448221354161E-02
   206  2.0500000000000E+00 -1.8040945482653E-03 -3.5329873597197E-02
   207  2.0600000000000E+00 -1.4347110244010E-03 -2.9519643388308E-02
   208  2.0700000000000E+00 -1.1246044077046E-03 -2.4083827180471E-02
   209  2.0800000000000E+00 -8.6489492548331E-04 -1.9086503507269E-02
   210  2.0900000000000E+00 -6.4814555258509E-04 -1.4584100906588E-02
   211  2.1000000000000E+00 -4.6821691462987E-04 -1.0625657098933E-02
   212  2.1100000000000E+00 -3.2037787993575E-04 -7.2524148389223E-03
   213  2.1200000000000E+00 -2.0138559393186E-04 -4.4980358243723E-03
   214  2.1300000000000E+00 -1.0943415894672E-04 -2.3865213506566E-03
   215  2.1400000000000E+00 -4.3973638355302E-05 -9.2775080376930E-04
   216  2.1500000000000E+00 -8.7168904507397E-06 -1.7561948972793E-04
   217  2.1600000000000E+00  1.2338055640532E-06  2.4446950479283E-05
   218  2.1700000000000E+00 -4.1863196739407E-08 -8.4632537100214E-07
   219  2.18 -0. -0.
   220  2.19  0.  0.
   221  2.20  0. -0.
   222  2.21  0.  0.
   223  2.22  0.  0.
   224  2.23  0.  0.
   225  2.24  0.  0.
   226  2.25  0.  0.
   227  2.26  0.  0.
   228  2.27  0.  0.
   229  2.28  0.  0.
   230  2.29  0.  0.
   231  2.30  0.  0.
   232  2.31  0.  0.
   233  2.32  0.  0.
   234  2.33  0.  0.
   235  2.34  0.  0.
   236  2.35  0.  0.
   237  2.36  0.  0.
   238  2.37  0.  0.
   239  2.38  0.  0.
   240  2.39  0.  0.
   241  2.40  0.  0.
   242  2.41  0.  0.
   243  2.42  0.  0.
   244  2.43  0.  0.
   245  2.44  0.  0.
   246  2.45  0.  0.
   247  2.46  0.  0.
   248  2.47  0.  0.
   249  2.48  0.  0.
   250  2.49  0.  0.
   251  2.50  0.  0.
   252  2.51  0.  0.
   253  2.52  0.  0.
   254  2.53  0.  0.
   255  2.54  0.  0.
   256  2.55  0.  0.
   257  2.56  0.  0.
   258  2.57  0.  0.
   259  2.58  0.  0.
   260  2.59  0.  0.
   261  2.60  0.  0.
   262  2.61  0.  0.
   263  2.62  0.  0.
   264  2.63  0.  0.
   265  2.64  0.  0.
   266  2.65  0.  0.
   267  2.66  0.  0.
   268  2.67  0.  0.
   269  2.68  0.  0.
   270  2.69  0.  0.
   271  2.70  0.  0.
   272  2.71  0.  0.
   273  2.72  0.  0.
   274  2.73  0.  0.
   275  2.74  0.  0.
   276  2.75  0.  0.
   277  2.76  0.  0.
   278  2.77  0.  0.
   279  2.78  0.  0.
   280  2.79  0.  0.
   281  2.80  0.  0.
   282  2.81  0.  0.
   283  2.82  0.  0.
   284  2.83  0.  0.
   285  2.84  0.  0.
   286  2.85  0.  0.
   287  2.86  0.  0.
   288  2.87  0.  0.
   289  2.88  0.  0.
   290  2.89  0.  0.
   291  2.90  0.  0.
   292  2.91  0.  0.
   293  2.92  0.  0.
   294  2.93  0.  0.
   295  2.94  0.  0.
   296  2.95  0.  0.
   297  2.96  0.  0.
   298  2.97  0.  0.
   299  2.98  0.  0.
   300  2.99  0.  0.
   301  3.00  0.  0.
   302  3.01  0.  0.
   303  3.02  0.  0.
   304  3.03  0.  0.
   305  3.04  0.  0.
   306  3.05  0.  0.
   307  3.06  0.  0.
   308  3.07  0.  0.
   309  3.08  0.  0.
   310  3.09  0.  0.
   311  3.10  0.  0.
   312  3.11  0.  0.
   313  3.12  0.  0.
   314  3.13  0.  0.
   315  3.14  0.  0.
   316  3.15  0.  0.
   317  3.16  0.  0.
   318  3.17  0.  0.
   319  3.18  0.  0.
   320  3.19  0.  0.
   321  3.20  0.  0.
   322  3.21  0.  0.
   323  3.22  0.  0.
   324  3.23  0.  0.
   325  3.24  0.  0.
   326  3.25  0.  0.
   327  3.26  0.  0.
   328  3.27  0.  0.
   329  3.28  0.  0.
   330  3.29  0.  0.
   331  3.30  0.  0.
   332  3.31  0.  0.
   333  3.32  0.  0.
   334  3.33  0.  0.
   335  3.34  0.  0.
   336  3.35  0.  0.
   337  3.36  0.  0.
   338  3.37  0.  0.
   339  3.38  0.  0.
   340  3.39  0.  0.
   341  3.40  0.  0.
   342  3.41  0.  0.
   343  3.42  0.  0.
   344  3.43  0.  0.
   345  3.44  0.  0.
   346  3.45  0.  0.
   347  3.46  0.  0.
   348  3.47  0.  0.
   349  3.48  0.  0.
   350  3.49  0.  0.
   351  3.50  0.  0.
   352  3.51  0.  0.
   353  3.52  0.  0.
   354  3.53  0.  0.
   355  3.54  0.  0.
   356  3.55  0.  0.
   357  3.56  0.  0.
   358  3.57  0.  0.
   359  3.58  0.  0.
   360  3.59  0.  0.
   361  3.60  0.  0.
   362  3.61  0.  0.
   363  3.62  0.  0.
   364  3.63  0.  0.
   365  3.64  0.  0.
   366  3.65  0.  0.
   367  3.66  0.  0.
   368  3.67  0.  0.
   369  3.68  0.  0.
   370  3.69  0.  0.
   371  3.70  0.  0.
   372  3.71  0.  0.
   373  3.72  0.  0.
   374  3.73  0.  0.
   375  3.74  0.  0.
   376  3.75  0.  0.
   377  3.76  0.  0.
   378  3.77  0.  0.
   379  3.78  0.  0.
   380  3.79  0.  0.
   381  3.80  0.  0.
   382  3.81  0.  0.
   383  3.82  0.  0.
   384  3.83  0.  0.
   385  3.84  0.  0.
   386  3.85  0.  0.
   387  3.86  0.  0.
   388  3.87  0.  0.
   389  3.88  0.  0.
   390  3.89  0.  0.
   391  3.90  0.  0.
   392  3.91  0.  0.
   393  3.92  0.  0.
   394  3.93  0.  0.
   395  3.94  0.  0.
   396  3.95  0.  0.
   397  3.96  0.  0.
   398  3.97  0.  0.
   399  3.98  0.  0.
   400  3.99  0.  0.
   401  4.00  0.  0.
   402  4.01  0.  0.
   403  4.02  0.  0.
   404  4.03  0.  0.
   405  4.04  0.  0.
   406  4.05  0.  0.
   407  4.06  0.  0.
   408  4.07  0.  0.
   409  4.08  0.  0.
   410  4.09  0.  0.
   411  4.10  0.  0.
   412  4.11  0.  0.
   413  4.12  0.  0.
   414  4.13  0.  0.
   415  4.14  0.  0.
   416  4.15  0.  0.
   417  4.16  0.  0.
   418  4.17  0.  0.
   419  4.18  0.  0.
   420  4.19  0.  0.
   421  4.20  0.  0.
   422  4.21  0.  0.
   423  4.22  0.  0.
   424  4.23  0.  0.
   425  4.24  0.  0.
   426  4.25  0.  0.
   427  4.26  0.  0.
   428  4.27  0.  0.
   429  4.28  0.  0.
   430  4.29  0.  0.
   431  4.30  0.  0.
   432  4.31  0.  0.
   433  4.32  0.  0.
   434  4.33  0.  0.
   435  4.34  0.  0.
   436  4.35  0.  0.
   437  4.36  0.  0.
   438  4.37  0.  0.
   439  4.38  0.  0.
   440  4.39  0.  0.
   441  4.40  0.  0.
   442  4.41  0.  0.
   443  4.42  0.  0.
   444  4.43  0.  0.
   445  4.44  0.  0.
   446  4.45  0.  0.
   447  4.46  0.  0.
   448  4.47  0.  0.
   449  4.48  0.  0.
   450  4.49  0.  0.
   451  4.50  0.  0.
   452  4.51  0.  0.
   453  4.52  0.  0.
   454  4.53  0.  0.
   455  4.54  0.  0.
   456  4.55  0.  0.
   457  4.56  0.  0.
   458  4.57  0.  0.
   459  4.58  0.  0.
   460  4.59  0.  0.
   461  4.60  0.  0.
   462  4.61  0.  0.
   463  4.62  0.  0.
   464  4.63  0.  0.
   465  4.64  0.  0.
   466  4.65  0.  0.
   467  4.66  0.  0.
   468  4.67  0.  0.
   469  4.68  0.  0.
   470  4.69  0.  0.
   471  4.70  0.  0.
   472  4.71  0.  0.
   473  4.72  0.  0.
   474  4.73  0.  0.
   475  4.74  0.  0.
   476  4.75  0.  0.
   477  4.76  0.  0.
   478  4.77  0.  0.
   479  4.78  0.  0.
   480  4.79  0.  0.
   481  4.80  0.  0.
   482  4.81  0.  0.
   483  4.82  0.  0.
   484  4.83  0.  0.
   485  4.84  0.  0.
   486  4.85  0.  0.
   487  4.86  0.  0.
   488  4.87  0.  0.
   489  4.88  0.  0.
   490  4.89  0.  0.
   491  4.90  0.  0.
   492  4.91  0.  0.
   493  4.92  0.  0.
   494  4.93  0.  0.
   495  4.94  0.  0.
   496  4.95  0.  0.
   497  4.96  0.  0.
   498  4.97  0.  0.
   499  4.98  0.  0.
   500  4.99  0.  0.
   501  5.00  0.  0.
   502  5.01  0.  0.
   503  5.02  0.  0.
   504  5.03  0.  0.
   505  5.04  0.  0.
   506  5.05  0.  0.
   507  5.06  0.  0.
   508  5.07  0.  0.
   509  5.08  0.  0.
   510  5.09  0.  0.
   511  5.10  0.  0.
   512  5.11  0.  0.
   513  5.12  0.  0.
   514  5.13  0.  0.
   515  5.14  0.  0.
   516  5.15  0.  0.
   517  5.16  0.  0.
   518  5.17  0.  0.
   519  5.18  0.  0.
   520  5.19  0.  0.
   521  5.20  0.  0.
   522  5.21  0.  0.
   523  5.22  0.  0.
   524  5.23  0.  0.
   525  5.24  0.  0.
   526  5.25  0.  0.
   527  5.26  0.  0.
   528  5.27  0.  0.
   529  5.28  0.  0.
   530  5.29  0.  0.
   531  5.30  0.  0.
   532  5.31  0.  0.
   533  5.32  0.  0.
   534  5.33  0.  0.
   535  5.34  0.  0.
   536  5.35  0.  0.
   537  5.36  0.  0.
   538  5.37  0.  0.
   539  5.38  0.  0.
   540  5.39  0.  0.
   541  5.40  0.  0.
   542  5.41  0.  0.
   543  5.42  0.  0.
   544  5.43  0.  0.
   545  5.44  0.  0.
   546  5.45  0.  0.
   547  5.46  0.  0.
   548  5.47  0.  0.
   549  5.48  0.  0.
   550  5.49  0.  0.
   551  5.50  0.  0.
   552  5.51  0.  0.
   553  5.52  0.  0.
   554  5.53  0.  0.
   555  5.54  0.  0.
   556  5.55  0.  0.
   557  5.56  0.  0.
   558  5.57  0.  0.
   559  5.58  0.  0.
   560  5.59  0.  0.
   561  5.60  0.  0.
   562  5.61  0.  0.
   563  5.62  0.  0.
   564  5.63  0.  0.
   565  5.64  0.  0.
   566  5.65  0.  0.
   567  5.66  0.  0.
   568  5.67  0.  0.
   569  5.68  0.  0.
   570  5.69  0.  0.
   571  5.70  0.  0.
   572  5.71  0.  0.
   573  5.72  0.  0.
   574  5.73  0.  0.
   575  5.74  0.  0.
   576  5.75  0.  0.
   577  5.76  0.  0.
   578  5.77  0.  0.
   579  5.78  0.  0.
   580  5.79  0.  0.
   581  5.80  0.  0.
   582  5.81  0.  0.
   583  5.82  0.  0.
   584  5.83  0.  0.
   585  5.84  0.  0.
   586  5.85  0.  0.
   587  5.86  0.  0.
   588  5.87  0.  0.
   589  5.88  0.  0.
   590  5.89  0.  0.
   591  5.90  0.  0.
   592  5.91  0.  0.
   593  5.92  0.  0.
   594  5.93  0.  0.
   595  5.94  0.  0.
   596  5.95  0.  0.
   597  5.96  0.  0.
   598  5.97  0.  0.
   599  5.98  0.  0.
   600  5.99  0.  0.
   1                         5.1665937809993E+00  4.2180047161420E-01
     1  0.0000000000000E+00  4.1596344424466E-10 -1.7258438358980E-09
     2  1.0000000000000E-02  6.2617231937941E-04 -5.2371386159521E-04
     3  2.0000000000000E-02  2.5027502567504E-03 -2.0897900056317E-03
     4  3.0000000000000E-02  5.6239338625358E-03 -4.6831000209758E-03
     5  4.0000000000000E-02  9.9801133626043E-03 -8.2786552897580E-03
     6  5.0000000000000E-02  1.5557953555534E-02 -1.2841941707781E-02
     7  6.0000000000000E-02  2.2340510349664E-02 -1.8329381580630E-02
     8  7.0000000000000E-02  3.0307377848290E-02 -2.4688916096024E-02
     9  8.0000000000000E-02  3.9434863975373E-02 -3.1860700047092E-02
    10  9.0000000000000E-02  4.9696192246547E-02 -3.9777898872106E-02
    11  1.0000000000000E-01  6.1061726936476E-02 -4.8367576606646E-02
    12  1.1000000000000E-01  7.3499218578743E-02 -5.7551662034511E-02
    13  1.2000000000000E-01  8.6974066462936E-02 -6.7247979192823E-02
    14  1.3000000000000E-01  1.0144959456939E-01 -7.7371327450759E-02
    15  1.4000000000000E-01  1.1688733720828E-01 -8.7834595653390E-02
    16  1.5000000000000E-01  1.3324733050903E-01 -9.8549894312828E-02
    17  1.6000000000000E-01  1.5048840584003E-01 -1.0942968954614E-01
    18  1.7000000000000E-01  1.6856848122878E-01 -1.2038792240701E-01
    19  1.8000000000000E-01  1.8744484689825E-01 -1.3134109743805E-01
    20  1.9000000000000E-01  2.0707444113732E-01 -1.4220932468009E-01
    21  2.0000000000000E-01  2.2741411287862E-01 -1.5291730000922E-01
    22  2.1000000000000E-01  2.4842086756538E-01 -1.6339520952335E-01
    23  2.2000000000000E-01  2.7005209314638E-01 -1.7357954475614E-01
    24  2.3000000000000E-01  2.9226576334133E-01 -1.8341381674319E-01
    25  2.4000000000000E-01  3.1502061566414E-01 -1.9284915838687E-01
    26  2.5000000000000E-01  3.3827630207377E-01 -2.0184480614247E-01
    27  2.6000000000000E-01  3.6199351053586E-01 -2.1036845375773E-01
    28  2.7000000000000E-01  3.8613405621834E-01 -2.1839647261762E-01
    29  2.8000000000000E-01  4.1066094150370E-01 -2.2591399515080E-01
    30  2.9000000000000E-01  4.3553838447344E-01 -2.3291485971724E-01
    31  3.0000000000000E-01  4.6073181600018E-01 -2.3940141739126E-01
    32  3.1000000000000E-01  4.8620784606244E-01 -2.4538420305287E-01
    33  3.2000000000000E-01  5.1193420036999E-01 -2.5088147517439E-01
    34  3.3000000000000E-01  5.3787962884712E-01 -2.5591863061203E-01
    35  3.4000000000000E-01  5.6401378796028E-01 -2.6052750255602E-01
    36  3.5000000000000E-01  5.9030709928936E-01 -2.6474555153135E-01
    37  3.6000000000000E-01  6.1673058712209E-01 -2.6861496095060E-01
    38  3.7000000000000E-01  6.4325569819347E-01 -2.7218165017654E-01
    39  3.8000000000000E-01  6.6985410699114E-01 -2.7549421933477E-01
    40  3.9000000000000E-01  6.9649751029922E-01 -2.7860284120632E-01
    41  4.0000000000000E-01  7.2315741485324E-01 -2.8155811641120E-01
    42  4.1000000000000E-01  7.4980492212416E-01 -2.8440990875254E-01
    43  4.2000000000000E-01  7.7641051433777E-01 -2.8720617801639E-01
    44  4.3000000000000E-01  8.0294384586530E-01 -2.8999182770847E-01
    45  4.4000000000000E-01  8.2937354409114E-01 -2.9280758515013E-01
    46  4.5000000000000E-01  8.5566702377348E-01 -2.9568893105277E-01
    47  4.6000000000000E-01  8.8179031876553E-01 -2.9866509514438E-01
    48  4.7000000000000E-01  9.0770793475864E-01 -3.0175813363974E-01
    49  4.8000000000000E-01  9.3338272644835E-01 -3.0498210333728E-01
    50  4.9000000000000E-01  9.5877580221151E-01 -3.0834234590205E-01
    51  5.0000000000000E-01  9.8384645902304E-01 -3.1183489447157E-01
    52  5.1000000000000E-01  1.0085521499369E+00 -3.1544601311803E-01
    53  5.2000000000000E-01  1.0328484860154E+00 -3.1915187793673E-01
    54  5.3000000000000E-01  1.0566892741169E+00 -3.2291840663017E-01
    55  5.4000000000000E-01  1.0800265914534E+00 -3.2670124144511E-01
    56  5.5000000000000E-01  1.1028108973111E+00 -3.3044588822308E-01
    57  5.6000000000000E-01  1.1249911817959E+00 -3.3408801217101E-01
    58  5.7000000000000E-01  1.1465151509318E+00 -3.3755388877768E-01
    59  5.8000000000000E-01  1.1673294469058E+00 -3.4076100612283E-01
    60  5.9000000000000E-01  1.1873799017304E+00 -3.4361881267888E-01
    61  6.0000000000000E-01  1.2066118220893E+00 -3.4602960262049E-01
    62  6.1000000000000E-01  1.2249703026487E+00 -3.4788952866266E-01
    63  6.2000000000000E-01  1.2424005646665E+00 -3.4908973057301E-01
    64  6.3000000000000E-01  1.2588483163197E+00 -3.4951756577327E-01
    65  6.4000000000000E-01  1.2742601307972E+00 -3.4905792688545E-01
    66  6.5000000000000E-01  1.2885838378889E+00 -3.4759462971024E-01
    67  6.6000000000000E-01  1.3017689245318E+00 -3.4501185397082E-01
    68  6.7000000000000E-01  1.3137669395659E+00 -3.4119561823092E-01
    69  6.8000000000000E-01  1.3245318978075E+00 -3.3603526971598E-01
    70  6.9000000000000E-01  1.3340206784613E+00 -3.2942496934253E-01
    71  7.0000000000000E-01  1.3421934128768E+00 -3.2126515210027E-01
    72  7.1000000000000E-01  1.3490138567053E+00 -3.1146394303930E-01
    73  7.2000000000000E-01  1.3544497416275E+00 -2.9993850949034E-01
    74  7.3000000000000E-01  1.3584731020041E+00 -2.8661633078830E-01
    75  7.4000000000000E-01  1.3610605720500E+00 -2.7143636766937E-01
    76  7.5000000000000E-01  1.3621936494369E+00 -2.5435011466214E-01
    77  7.6000000000000E-01  1.3618589215953E+00 -2.3532252017771E-01
    78  7.7000000000000E-01  1.3600482514056E+00 -2.1433276060733E-01
    79  7.8000000000000E-01  1.3567589194345E+00 -1.9137485653800E-01
    80  7.9000000000000E-01  1.3519937203806E+00 -1.6645812117423E-01
    81  8.0000000000000E-01  1.3457610119406E+00 -1.3960743318232E-01
    82  8.1000000000000E-01  1.3380747148798E+00 -1.1086332842463E-01
    83  8.2000000000000E-01  1.3289542636871E+00 -8.0281907396176E-02
    84  8.3000000000000E-01  1.3184245078058E+00 -4.7934557583265E-02
    85  8.4000000000000E-01  1.3065155640452E+00 -1.3907492402023E-02
    86  8.5000000000000E-01  1.2932626213938E+00  2.1698889188910E-02
    87  8.6000000000000E-01  1.2787057000558E+00  5.8770815905459E-02
    88  8.7000000000000E-01  1.2628893671200E+00  9.7182121354681E-02
    89  8.8000000000000E-01  1.2458624118256E+00  1.3679537418494E-01