Ba    ONCVPSP-4.0.1  r_core=   2.15674   1.90213   2.15674
     56.0000     10.0000      250925    zatom,zion,pspd
     8   -1012   2     4   600     0    pspcod,pspxc,lmax,lloc,mmax,r2well
  5.99000000  5.00000000  0.00000000    rchrg fchrg qchrg
     2     3     2     0    nproj
     3     1           extension_switch
     3     3     0    nprojso
   0                         6.4053446634209E+00  6.1594196574804E-01
     1  0.0000000000000E+00 -8.2074624874195E-12  3.4616476352056E-11
     2  1.0000000000000E-02  2.8555357376362E-02 -1.0077820577190E-02
     3  2.0000000000000E-02  5.7096449658041E-02 -2.0133163912267E-02
     4  3.0000000000000E-02  8.5609033195379E-02 -3.0143683764649E-02
     5  4.0000000000000E-02  1.1407890699182E-01 -4.0087294742084E-02
     6  5.0000000000000E-02  1.4249193344020E-01 -4.9942299846814E-02
     7  6.0000000000000E-02  1.7083405835648E-01 -5.9687514592721E-02
     8  7.0000000000000E-02  1.9909133008661E-01 -6.9302386591341E-02
     9  8.0000000000000E-02  2.2724991747008E-01 -7.8767109539235E-02
    10  9.0000000000000E-02  2.5529612645416E-01 -8.8062730582143E-02
    11  1.0000000000000E-01  2.8321641516487E-01 -9.7171250082123E-02
    12  1.1000000000000E-01  3.1099740725420E-01 -1.0607571287248E-01
    13  1.2000000000000E-01  3.3862590335916E-01 -1.1476029015064E-01
    14  1.3000000000000E-01  3.6608889052484E-01 -1.2321035123203E-01
    15  1.4000000000000E-01  3.9337354946262E-01 -1.3141252446615E-01
    16  1.5000000000000E-01  4.2046725953416E-01 -1.3935474670105E-01
    17  1.6000000000000E-01  4.4735760137331E-01 -1.4702630077180E-01
    18  1.7000000000000E-01  4.7403235707982E-01 -1.5441784058270E-01
    19  1.8000000000000E-01  5.0047950794193E-01 -1.6152140345139E-01
    20  1.9000000000000E-01  5.2668722966847E-01 -1.6833040948434E-01
    21  2.0000000000000E-01  5.5264388513541E-01 -1.7483964785705E-01
    22  2.1000000000000E-01  5.7833801467642E-01 -1.8104524997844E-01
    23  2.2000000000000E-01  6.0375832397149E-01 -1.8694464962550E-01
    24  2.3000000000000E-01  6.2889366961272E-01 -1.9253653024199E-01
    25  2.4000000000000E-01  6.5373304245062E-01 -1.9782075970159E-01
    26  2.5000000000000E-01  6.7826554884871E-01 -2.0279831294167E-01
    27  2.6000000000000E-01  7.0248038999738E-01 -2.0747118297819E-01
    28  2.7000000000000E-01  7.2636683946112E-01 -2.1184228091272E-01
    29  2.8000000000000E-01  7.4991421915488E-01 -2.1591532564098E-01
    30  2.9000000000000E-01  7.7311187396613E-01 -2.1969472406590E-01
    31  3.0000000000000E-01  7.9594914525862E-01 -2.2318544270678E-01
    32  3.1000000000000E-01  8.1841534351170E-01 -2.2639287167979E-01
    33  3.2000000000000E-01  8.4049972036572E-01 -2.2932268210243E-01
    34  3.3000000000000E-01  8.6219144035821E-01 -2.3198067804458E-01
    35  3.4000000000000E-01  8.8347955264862E-01 -2.3437264421249E-01
    36  3.5000000000000E-01  9.0435296303979E-01 -2.3650419060697E-01
    37  3.6000000000000E-01  9.2480040661305E-01 -2.3838059544425E-01
    38  3.7000000000000E-01  9.4481042129989E-01 -2.4000664766603E-01
    39  3.8000000000000E-01  9.6437132271732E-01 -2.4138649039449E-01
    40  3.9000000000000E-01  9.8347118059534E-01 -2.4252346670725E-01
    41  4.0000000000000E-01  1.0020977971242E+00 -2.4341996911764E-01
    42  4.1000000000000E-01  1.0202386875454E+00 -2.4407729414486E-01
    43  4.2000000000000E-01  1.0378810633050E+00 -2.4449550334920E-01
    44  4.3000000000000E-01  1.0550118180784E+00 -2.4467329218635E-01
    45  4.4000000000000E-01  1.0716175169652E+00 -2.4460786800503E-01
    46  4.5000000000000E-01  1.0876843891390E+00 -2.4429483847116E-01
    47  4.6000000000000E-01  1.1031983242224E+00 -2.4372811165124E-01
    48  4.7000000000000E-01  1.1181448726348E+00 -2.4289980892770E-01
    49  4.8000000000000E-01  1.1325092501459E+00 -2.4180019184854E-01
    50  4.9000000000000E-01  1.1462763468391E+00 -2.4041760393502E-01
    51  5.0000000000000E-01  1.1594307406680E+00 -2.3873842838317E-01
    52  5.1000000000000E-01  1.1719567157584E+00 -2.3674706249923E-01
    53  5.2000000000000E-01  1.1838382855838E+00 -2.3442590960435E-01
    54  5.3000000000000E-01  1.1950592211067E+00 -2.3175538903386E-01
    55  5.4000000000000E-01  1.2056030839487E+00 -2.2871396473827E-01
    56  5.5000000000000E-01  1.2154532646195E+00 -2.2527819286958E-01
    57  5.6000000000000E-01  1.2245930257975E+00 -2.2142278860807E-01
    58  5.7000000000000E-01  1.2330055506206E+00 -2.1712071235202E-01
    59  5.8000000000000E-01  1.2406739959110E+00 -2.1234327525573E-01
    60  5.9000000000000E-01  1.2475815502172E+00 -2.0706026396287E-01
    61  6.0000000000000E-01  1.2537114965235E+00 -2.0124008424080E-01
    62  6.1000000000000E-01  1.2590472794363E+00 -1.9484992308034E-01
    63  6.2000000000000E-01  1.2635725766241E+00 -1.8785592868342E-01
    64  6.3000000000000E-01  1.2672713742470E+00 -1.8022340762136E-01
    65  6.4000000000000E-01  1.2701280460794E+00 -1.7191703830735E-01
    66  6.5000000000000E-01  1.2721274359944E+00 -1.6290109979212E-01
    67  6.6000000000000E-01  1.2732549434436E+00 -1.5313971475976E-01
    68  6.7000000000000E-01  1.2734966115353E+00 -1.4259710547471E-01
    69  6.8000000000000E-01  1.2728392172849E+00 -1.3123786131016E-01
    70  6.9000000000000E-01  1.2712703635811E+00 -1.1902721637417E-01
    71  7.0000000000000E-01  1.2687785723872E+00 -1.0593133564405E-01
    72  7.1000000000000E-01  1.2653533786724E+00 -9.1917607921504E-02
    73  7.2000000000000E-01  1.2609854245486E+00 -7.6954943833062E-02
    74  7.3000000000000E-01  1.2556665530677E+00 -6.1014077021651E-02
    75  7.4000000000000E-01  1.2493899011213E+00 -4.4067866608187E-02
    76  7.5000000000000E-01  1.2421499908729E+00 -2.6091598945204E-02
    77  7.6000000000000E-01  1.2339428191422E+00 -7.0632866412789E-03
    78  7.7000000000000E-01  1.2247659441581E+00  1.3036037197488E-02
    79  7.8000000000000E-01  1.2146185690931E+00  3.4222031580979E-02
    80  7.9000000000000E-01  1.2035016217971E+00  5.6506769181192E-02
    81  8.0000000000000E-01  1.1914178301493E+00  7.9898468880574E-02
    82  8.1000000000000E-01  1.1783717924611E+00  1.0440124137061E-01
    83  8.2000000000000E-01  1.1643700423734E+00  1.3001484981276E-01
    84  8.3000000000000E-01  1.1494211077084E+00  1.5673448752483E-01
    85  8.4000000000000E-01  1.1335355627564E+00  1.8455057459252E-01
    86  8.5000000000000E-01  1.1167260735054E+00  2.1344857522908E-01
    87  8.6000000000000E-01  1.0990074353424E+00  2.4340883761621E-01
    88  8.7000000000000E-01  1.0803966027941E+00  2.7440645785629E-01
    89  8.8000000000000E-01  1.0609127109023E+00  3.0641116955032E-01
    90  8.9000000000000E-01  1.0405770878723E+00  3.3938726038892E-01
    91  9.0000000000000E-01  1.0194132586687E+00  3.7329351700429E-01
    92  9.1000000000000E-01  9.9744693928029E-01  4.0808319918258E-01
    93  9.2000000000000E-01  9.7470602141830E-01  4.4370404437573E-01
    94  9.3000000000000E-01  9.5122054746371E-01  4.8009830328440E-01
    95  9.4000000000000E-01  9.2702267552677E-01  5.1720280710707E-01
    96  9.5000000000000E-01  9.0214663453630E-01  5.5494906686688E-01
    97  9.6000000000000E-01  8.7662866932897E-01  5.9326340503895E-01
    98  9.7000000000000E-01  8.5050697576394E-01  6.3206711950618E-01
    99  9.8000000000000E-01  8.2382162594409E-01  6.7127667967459E-01
   100  9.9000000000000E-01  7.9661448368145E-01  7.1080395437797E-01
   101  1.0000000000000E+00  7.6892911040102E-01  7.5055647100148E-01
   102  1.0100000000000E+00  7.4081066173364E-01  7.9043770505115E-01
   103  1.0200000000000E+00  7.1230577510469E-01  8.3034739919742E-01
   104  1.0300000000000E+00  6.8346244868050E-01  8.7018191062278E-01
   105  1.0400000000000E+00  6.5432991208845E-01  9.0983458531073E-01
   106  1.0500000000000E+00  6.2495848937918E-01  9.4919615772494E-01
   107  1.0600000000000E+00  5.9539945475007E-01  9.8815517414653E-01
   108  1.0700000000000E+00  5.6570488159739E-01  1.0265984377629E+00
   109  1.0800000000000E+00  5.3592748551069E-01  1.0644114734381E+00
   110  1.0900000000000E+00  5.0612046186574E-01  1.1014790099394E+00
   111  1.1000000000000E+00  4.7633731871238E-01  1.1376854772525E+00
   112  1.1100000000000E+00  4.4663170569014E-01  1.1729155164865E+00
   113  1.1200000000000E+00  4.1705723973685E-01  1.2070544997538E+00
   114  1.1300000000000E+00  3.8766732838461E-01  1.2399890573063E+00
   115  1.1400000000000E+00  3.5851499146185E-01  1.2716076091229E+00
   116  1.1500000000000E+00  3.2965268204012E-01  1.3018008980701E+00
   117  1.1600000000000E+00  3.0113210748020E-01  1.3304625217059E+00
   118  1.1700000000000E+00  2.7300405144271E-01  1.3574894597555E+00
   119  1.1800000000000E+00  2.4531819773417E-01  1.3827825942721E+00
   120  1.1900000000000E+00  2.1812295686086E-01  1.4062472194894E+00
   121  1.2000000000000E+00  1.9146529615831E-01  1.4277935383939E+00
   122  1.2100000000000E+00  1.6539057435565E-01  1.4473371430759E+00
   123  1.2200000000000E+00  1.3994238141938E-01  1.4647994759748E+00
   124  1.2300000000000E+00  1.1516238450233E-01  1.4801082692026E+00
   125  1.2400000000000E+00  9.1090180799260E-02  1.4931979592236E+00
   126  1.2500000000000E+00  6.7763158081379E-02  1.5040100742712E+00
   127  1.2600000000000E+00  4.5216363648711E-02  1.5124935920106E+00
   128  1.2700000000000E+00  2.3482382400322E-02  1.5186052650967E+00
   129  1.2800000000000E+00  2.5912246800918E-03  1.5223099124338E+00
   130  1.2900000000000E+00 -1.7429775491398E-02  1.5235806741146E+00
   131  1.3000000000000E+00 -3.6556051239140E-02  1.5223992282067E+00
   132  1.3100000000000E+00 -5.4765882205008E-02  1.5187559677494E+00
   133  1.3200000000000E+00 -7.2040462020561E-02  1.5126501365385E+00
   134  1.3300000000000E+00 -8.8363953495099E-02  1.5040899224992E+00
   135  1.3400000000000E+00 -1.0372353119602E-01  1.4930925076788E+00
   136  1.3500000000000E+00 -1.1810941116438E-01  1.4796840741290E+00
   137  1.3600000000000E+00 -1.3151486757655E-01  1.4638997651978E+00
   138  1.3700000000000E+00 -1.4393623623190E-01  1.4457836020016E+00
   139  1.3800000000000E+00 -1.5537290481728E-01  1.4253883551011E+00
   140  1.3900000000000E+00 -1.6582728996933E-01  1.4027753716660E+00
   141  1.4000000000000E+00 -1.7530480122798E-01  1.3780143586688E+00
   142  1.4100000000000E+00 -1.8381379204468E-01  1.3511831229049E+00
   143  1.4200000000000E+00 -1.9136549807992E-01  1.3223672688902E+00
   144  1.4300000000000E+00 -1.9797396309375E-01  1.2916598559370E+00
   145  1.4400000000000E+00 -2.0365595280068E-01  1.2591610159498E+00
   146  1.4500000000000E+00 -2.0843085712658E-01  1.2249775337202E+00
   147  1.4600000000000E+00 -2.1232058136826E-01  1.1892223917241E+00
   148  1.4700000000000E+00 -2.1534942681742E-01  1.1520142816394E+00
   149  1.4800000000000E+00 -2.1754396146797E-01  1.1134770850059E+00
   150  1.4900000000000E+00 -2.1893288147969E-01  1.0737393256367E+00
   151  1.5000000000000E+00 -2.1954686412128E-01  1.0329335965640E+00
   152  1.5100000000000E+00 -2.1941841296149E-01  9.9119596446138E-01
   153  1.5200000000000E+00 -2.1858169611835E-01  9.4866535462184E-01
   154  1.5300000000000E+00 -2.1707237841277E-01  9.0548291969608E-01
   155  1.5400000000000E+00 -2.1492744830413E-01  8.6179139549434E-01
   156  1.5500000000000E+00 -2.1218504051133E-01  8.1773444724009E-01
   157  1.5600000000000E+00 -2.0888425524345E-01  7.7345600972366E-01
   158  1.5700000000000E+00 -2.0506497497868E-01  7.2909962484545E-01
   159  1.5800000000000E+00 -2.0076767973958E-01  6.8480778005575E-01
   160  1.5900000000000E+00 -1.9603326181569E-01  6.4072125119589E-01
   161  1.6000000000000E+00 -1.9090284088209E-01  5.9697845321950E-01
   162  1.6100000000000E+00 -1.8541758045378E-01  5.5371480222568E-01
   163  1.6200000000000E+00 -1.7961850660161E-01  5.1106209216637E-01
   164  1.6300000000000E+00 -1.7354632983524E-01  4.6914788950040E-01
   165  1.6400000000000E+00 -1.6724127103278E-01  4.2809494895407E-01
   166  1.6500000000000E+00 -1.6074289226583E-01  3.8802065341713E-01
   167  1.6600000000000E+00 -1.5408993333153E-01  3.4903648085081E-01
   168  1.6700000000000E+00 -1.4732015476210E-01  3.1124750091468E-01
   169  1.6800000000000E+00 -1.4047018803554E-01  2.7475190383047E-01
   170  1.6900000000000E+00 -1.3357539366021E-01  2.3964056379696E-01
   171  1.7000000000000E+00 -1.2666972775077E-01  2.0599663904945E-01
   172  1.7100000000000E+00 -1.1978561765387E-01  1.7389521042379E-01
   173  1.7200000000000E+00 -1.1295384711925E-01  1.4340296003791E-01
   174  1.7300000000000E+00 -1.0620345144637E-01  1.1457789144663E-01
   175  1.7400000000000E+00 -9.9561622968119E-02  8.7469092358318E-02
   176  1.7500000000000E+00 -9.3053627162725E-02  6.2116540727659E-02
   177  1.7600000000000E+00 -8.6702729612382E-02  3.8550954757895E-02
   178  1.7700000000000E+00 -8.0530133953661E-02  1.6793687061655E-02
   179  1.7800000000000E+00 -7.4554930889917E-02 -3.1433370580806E-03
   180  1.7900000000000E+00 -6.8794058261398E-02 -2.1257637531754E-02
   181  1.8000000000000E+00 -6.3262272093721E-02 -3.7556154263553E-02
   182  1.8100000000000E+00 -5.7972128471380E-02 -5.2055179582421E-02
   183  1.8200000000000E+00 -5.2933976009940E-02 -6.4780249575556E-02
   184  1.8300000000000E+00 -4.8155958629176E-02 -7.5765995746803E-02
   185  1.8400000000000E+00 -4.3644028260013E-02 -8.5055958704452E-02
   186  1.8500000000000E+00 -3.9401967051293E-02 -9.2702365834569E-02
   187  1.8600000000000E+00 -3.5431418578488E-02 -9.8765875155408E-02
   188  1.8700000000000E+00 -3.1731927447352E-02 -1.0331528802986E-01
   189  1.8800000000000E+00 -2.8300986916917E-02 -1.0642723209646E-01
   190  1.8900000000000E+00 -2.5134093378941E-02 -1.0818581990346E-01
   191  1.9000000000000E+00 -2.2224809735163E-02 -1.0868227167393E-01
   192  1.9100000000000E+00 -1.9564830233441E-02 -1.0801454041145E-01
   193  1.9200000000000E+00 -1.7144334244219E-02 -1.0628543352895E-01
   194  1.9300000000000E+00 -1.4952439803273E-02 -1.0360029034834E-01
   195  1.9400000000000E+00 -1.2977454340522E-02 -1.0006578821851E-01
   196  1.9500000000000E+00 -1.1207005799083E-02 -9.5789396869036E-02
   197  1.9600000000000E+00 -9.6282002420481E-03 -9.0878695473077E-02
   198  1.9700000000000E+00 -8.2277751303846E-03 -8.5440717611223E-02
   199  1.9800000000000E+00 -6.9922521431702E-03 -7.9581301359305E-02
   200  1.9900000000000E+00 -5.9080887312208E-03 -7.3404447506290E-02
   201  2.0000000000000E+00 -4.9618273283187E-03 -6.7011690256899E-02
   202  2.0100000000000E+00 -4.1402403751184E-03 -6.0501486538273E-02
   203  2.0200000000000E+00 -3.4304772207455E-03 -5.3968608379952E-02
   204  2.0300000000000E+00 -2.8201911024563E-03 -4.7503598903334E-02
   205  2.0400000000000E+00 -2.2976690261461E-03 -4.1192228824928E-02
   206  2.0500000000000E+00 -1.8520714366436E-03 -3.5114678695718E-02
   207  2.0600000000000E+00 -1.4746300875935E-03 -2.9342034341780E-02
   208  2.0700000000000E+00 -1.1570613870328E-03 -2.3940460147282E-02
   209  2.0800000000000E+00 -8.9054791511429E-04 -1.8973915135379E-02
   210  2.0900000000000E+00 -6.6770797035190E-04 -1.4498723892102E-02
   211  2.1000000000000E+00 -4.8245055404208E-04 -1.0563835757280E-02
   212  2.1100000000000E+00 -3.3008569593434E-04 -7.2104210267632E-03
   213  2.1200000000000E+00 -2.0740493026501E-04 -4.4720824692420E-03
   214  2.1300000000000E+00 -1.1262732977298E-04 -2.3727868941021E-03
   215  2.1400000000000E+00 -4.5212703257670E-05 -9.2242822926785E-04
   216  2.1500000000000E+00 -8.9456591645733E-06 -1.7463365283498E-04
   217  2.1600000000000E+00  1.2721391004247E-06  2.4286472866779E-05
   218  2.1700000000000E+00 -4.3088041069687E-08 -8.4113725816351E-07
   219  2.18  0.  0.
   220  2.19  0.  0.
   221  2.20  0.  0.
   222  2.21  0.  0.
   223  2.22  0.  0.
   224  2.23  0.  0.
   225  2.24  0.  0.
   226  2.25  0.  0.
   227  2.26  0.  0.
   228  2.27  0.  0.
   229  2.28  0.  0.
   230  2.29  0.  0.
   231  2.30  0.  0.
   232  2.31  0.  0.
   233  2.32  0.  0.
   234  2.33  0.  0.
   235  2.34  0.  0.
   236  2.35  0.  0.
   237  2.36  0.  0.
   238  2.37  0.  0.
   239  2.38  0.  0.
   240  2.39  0.  0.
   241  2.40  0.  0.
   242  2.41  0.  0.
   243  2.42  0.  0.
   244  2.43  0.  0.
   245  2.44  0.  0.
   246  2.45  0.  0.
   247  2.46  0.  0.
   248  2.47  0.  0.
   249  2.48  0.  0.
   250  2.49  0.  0.
   251  2.50  0.  0.
   252  2.51  0.  0.
   253  2.52  0.  0.
   254  2.53  0.  0.
   255  2.54  0.  0.
   256  2.55  0.  0.
   257  2.56  0.  0.
   258  2.57  0.  0.
   259  2.58  0.  0.
   260  2.59  0.  0.
   261  2.60  0.  0.
   262  2.61  0.  0.
   263  2.62  0.  0.
   264  2.63  0.  0.
   265  2.64  0.  0.
   266  2.65  0.  0.
   267  2.66  0.  0.
   268  2.67  0.  0.
   269  2.68  0.  0.
   270  2.69  0.  0.
   271  2.70  0.  0.
   272  2.71  0.  0.
   273  2.72  0.  0.
   274  2.73  0.  0.
   275  2.74  0.  0.
   276  2.75  0.  0.
   277  2.76  0.  0.
   278  2.77  0.  0.
   279  2.78  0.  0.
   280  2.79  0.  0.
   281  2.80  0.  0.
   282  2.81  0.  0.
   283  2.82  0.  0.
   284  2.83  0.  0.
   285  2.84  0.  0.
   286  2.85  0.  0.
   287  2.86  0.  0.
   288  2.87  0.  0.
   289  2.88  0.  0.
   290  2.89  0.  0.
   291  2.90  0.  0.
   292  2.91  0.  0.
   293  2.92  0.  0.
   294  2.93  0.  0.
   295  2.94  0.  0.
   296  2.95  0.  0.
   297  2.96  0.  0.
   298  2.97  0.  0.
   299  2.98  0.  0.
   300  2.99  0.  0.
   301  3.00  0.  0.
   302  3.01  0.  0.
   303  3.02  0.  0.
   304  3.03  0.  0.
   305  3.04  0.  0.
   306  3.05  0.  0.
   307  3.06  0.  0.
   308  3.07  0.  0.
   309  3.08  0.  0.
   310  3.09  0.  0.
   311  3.10  0.  0.
   312  3.11  0.  0.
   313  3.12  0.  0.
   314  3.13  0.  0.
   315  3.14  0.  0.
   316  3.15  0.  0.
   317  3.16  0.  0.
   318  3.17  0.  0.
   319  3.18  0.  0.
   320  3.19  0.  0.
   321  3.20  0.  0.
   322  3.21  0.  0.
   323  3.22  0.  0.
   324  3.23  0.  0.
   325  3.24  0.  0.
   326  3.25  0.  0.
   327  3.26  0.  0.
   328  3.27  0.  0.
   329  3.28  0.  0.
   330  3.29  0.  0.
   331  3.30  0.  0.
   332  3.31  0.  0.
   333  3.32  0.  0.
   334  3.33  0.  0.
   335  3.34  0.  0.
   336  3.35  0.  0.
   337  3.36  0.  0.
   338  3.37  0.  0.
   339  3.38  0.  0.
   340  3.39  0.  0.
   341  3.40  0.  0.
   342  3.41  0.  0.
   343  3.42  0.  0.
   344  3.43  0.  0.
   345  3.44  0.  0.
   346  3.45  0.  0.
   347  3.46  0.  0.
   348  3.47  0.  0.
   349  3.48  0.  0.
   350  3.49  0.  0.
   351  3.50  0.  0.
   352  3.51  0.  0.
   353  3.52  0.  0.
   354  3.53  0.  0.
   355  3.54  0.  0.
   356  3.55  0.  0.
   357  3.56  0.  0.
   358  3.57  0.  0.
   359  3.58  0.  0.
   360  3.59  0.  0.
   361  3.60  0.  0.
   362  3.61  0.  0.
   363  3.62  0.  0.
   364  3.63  0.  0.
   365  3.64  0.  0.
   366  3.65  0.  0.
   367  3.66  0.  0.
   368  3.67  0.  0.
   369  3.68  0.  0.
   370  3.69  0.  0.
   371  3.70  0.  0.
   372  3.71  0.  0.
   373  3.72  0.  0.
   374  3.73  0.  0.
   375  3.74  0.  0.
   376  3.75  0.  0.
   377  3.76  0.  0.
   378  3.77  0.  0.
   379  3.78  0.  0.
   380  3.79  0.  0.
   381  3.80  0.  0.
   382  3.81  0.  0.
   383  3.82  0.  0.
   384  3.83  0.  0.
   385  3.84  0.  0.
   386  3.85  0.  0.
   387  3.86  0.  0.
   388  3.87  0.  0.
   389  3.88  0.  0.
   390  3.89  0.  0.
   391  3.90  0.  0.
   392  3.91  0.  0.
   393  3.92  0.  0.
   394  3.93  0.  0.
   395  3.94  0.  0.
   396  3.95  0.  0.
   397  3.96  0.  0.
   398  3.97  0.  0.
   399  3.98  0.  0.
   400  3.99  0.  0.
   401  4.00  0.  0.
   402  4.01  0.  0.
   403  4.02  0.  0.
   404  4.03  0.  0.
   405  4.04  0.  0.
   406  4.05  0.  0.
   407  4.06  0.  0.
   408  4.07  0.  0.
   409  4.08  0.  0.
   410  4.09  0.  0.
   411  4.10  0.  0.
   412  4.11  0.  0.
   413  4.12  0.  0.
   414  4.13  0.  0.
   415  4.14  0.  0.
   416  4.15  0.  0.
   417  4.16  0.  0.
   418  4.17  0.  0.
   419  4.18  0.  0.
   420  4.19  0.  0.
   421  4.20  0.  0.
   422  4.21  0.  0.
   423  4.22  0.  0.
   424  4.23  0.  0.
   425  4.24  0.  0.
   426  4.25  0.  0.
   427  4.26  0.  0.
   428  4.27  0.  0.
   429  4.28  0.  0.
   430  4.29  0.  0.
   431  4.30  0.  0.
   432  4.31  0.  0.
   433  4.32  0.  0.
   434  4.33  0.  0.
   435  4.34  0.  0.
   436  4.35  0.  0.
   437  4.36  0.  0.
   438  4.37  0.  0.
   439  4.38  0.  0.
   440  4.39  0.  0.
   441  4.40  0.  0.
   442  4.41  0.  0.
   443  4.42  0.  0.
   444  4.43  0.  0.
   445  4.44  0.  0.
   446  4.45  0.  0.
   447  4.46  0.  0.
   448  4.47  0.  0.
   449  4.48  0.  0.
   450  4.49  0.  0.
   451  4.50  0.  0.
   452  4.51  0.  0.
   453  4.52  0.  0.
   454  4.53  0.  0.
   455  4.54  0.  0.
   456  4.55  0.  0.
   457  4.56  0.  0.
   458  4.57  0.  0.
   459  4.58  0.  0.
   460  4.59  0.  0.
   461  4.60  0.  0.
   462  4.61  0.  0.
   463  4.62  0.  0.
   464  4.63  0.  0.
   465  4.64  0.  0.
   466  4.65  0.  0.
   467  4.66  0.  0.
   468  4.67  0.  0.
   469  4.68  0.  0.
   470  4.69  0.  0.
   471  4.70  0.  0.
   472  4.71  0.  0.
   473  4.72  0.  0.
   474  4.73  0.  0.
   475  4.74  0.  0.
   476  4.75  0.  0.
   477  4.76  0.  0.
   478  4.77  0.  0.
   479  4.78  0.  0.
   480  4.79  0.  0.
   481  4.80  0.  0.
   482  4.81  0.  0.
   483  4.82  0.  0.
   484  4.83  0.  0.
   485  4.84  0.  0.
   486  4.85  0.  0.
   487  4.86  0.  0.
   488  4.87  0.  0.
   489  4.88  0.  0.
   490  4.89  0.  0.
   491  4.90  0.  0.
   492  4.91  0.  0.
   493  4.92  0.  0.
   494  4.93  0.  0.
   495  4.94  0.  0.
   496  4.95  0.  0.
   497  4.96  0.  0.
   498  4.97  0.  0.
   499  4.98  0.  0.
   500  4.99  0.  0.
   501  5.00  0.  0.
   502  5.01  0.  0.
   503  5.02  0.  0.
   504  5.03  0.  0.
   505  5.04  0.  0.
   506  5.05  0.  0.
   507  5.06  0.  0.
   508  5.07  0.  0.
   509  5.08  0.  0.
   510  5.09  0.  0.
   511  5.10  0.  0.
   512  5.11  0.  0.
   513  5.12  0.  0.
   514  5.13  0.  0.
   515  5.14  0.  0.
   516  5.15  0.  0.
   517  5.16  0.  0.
   518  5.17  0.  0.
   519  5.18  0.  0.
   520  5.19  0.  0.
   521  5.20  0.  0.
   522  5.21  0.  0.
   523  5.22  0.  0.
   524  5.23  0.  0.
   525  5.24  0.  0.
   526  5.25  0.  0.
   527  5.26  0.  0.
   528  5.27  0.  0.
   529  5.28  0.  0.
   530  5.29  0.  0.
   531  5.30  0.  0.
   532  5.31  0.  0.
   533  5.32  0.  0.
   534  5.33  0.  0.
   535  5.34  0.  0.
   536  5.35  0.  0.
   537  5.36  0.  0.
   538  5.37  0.  0.
   539  5.38  0.  0.
   540  5.39  0.  0.
   541  5.40  0.  0.
   542  5.41  0.  0.
   543  5.42  0.  0.
   544  5.43  0.  0.
   545  5.44  0.  0.
   546  5.45  0.  0.
   547  5.46  0.  0.
   548  5.47  0.  0.
   549  5.48  0.  0.
   550  5.49  0.  0.
   551  5.50  0.  0.
   552  5.51  0.  0.
   553  5.52  0.  0.
   554  5.53  0.  0.
   555  5.54  0.  0.
   556  5.55  0.  0.
   557  5.56  0.  0.
   558  5.57  0.  0.
   559  5.58  0.  0.
   560  5.59  0.  0.
   561  5.60  0.  0.
   562  5.61  0.  0.
   563  5.62  0.  0.
   564  5.63  0.  0.
   565  5.64  0.  0.
   566  5.65  0.  0.
   567  5.66  0.  0.
   568  5.67  0.  0.
   569  5.68  0.  0.
   570  5.69  0.  0.
   571  5.70  0.  0.
   572  5.71  0.  0.
   573  5.72  0.  0.
   574  5.73  0.  0.
   575  5.74  0.  0.
   576  5.75  0.  0.
   577  5.76  0.  0.
   578  5.77  0.  0.
   579  5.78  0.  0.
   580  5.79  0.  0.
   581  5.80  0.  0.
   582  5.81  0.  0.
   583  5.82  0.  0.
   584  5.83  0.  0.
   585  5.84  0.  0.
   586  5.85  0.  0.
   587  5.86  0.  0.
   588  5.87  0.  0.
   589  5.88  0.  0.
   590  5.89  0.  0.
   591  5.90  0.  0.
   592  5.91  0.  0.
   593  5.92  0.  0.
   594  5.93  0.  0.
   595  5.94  0.  0.
   596  5.95  0.  0.
   597  5.96  0.  0.
   598  5.97  0.  0.
   599  5.98  0.  0.
   600  5.99  0.  0.
   1                         5.1535819158837E+00  4.2925631130567E-01  1.2414595743761E-02
     1  0.0000000000000E+00  4.1727129390656E-10 -1.6042258355053E-09 -6.6225338390263E-09
     2  1.0000000000000E-02  6.2688141710489E-04 -5.2078280446434E-04 -1.8549266146258E-04
     3  2.0000000000000E-02  2.5055812415339E-03 -2.0783179829350E-03 -7.2813471666116E-04
     4  3.0000000000000E-02  5.6302833626179E-03 -4.6582291892219E-03 -1.5866661309009E-03
     5  4.0000000000000E-02  9.9913512612213E-03 -8.2367661404040E-03 -2.6931422940785E-03
     6  5.0000000000000E-02  1.5575412689720E-02 -1.2781116916142E-02 -3.9541541961727E-03
     7  6.0000000000000E-02  2.2365476599855E-02 -1.8249838939353E-02 -5.2525108706447E-03
     8  7.0000000000000E-02  3.0341080721884E-02 -2.4593402504851E-02 -6.4493587450264E-03
     9  8.0000000000000E-02  3.9478467781203E-02 -3.1754839118313E-02 -7.3867059154467E-03
    10  9.0000000000000E-02  4.9750787949786E-02 -3.9670485412291E-02 -7.8903131951595E-03
    11  1.0000000000000E-01  6.1128324774937E-02 -4.8270812039544E-02 -7.7729081649173E-03
    12  1.1000000000000E-01  7.3578741511986E-02 -5.7481325726384E-02 -6.8376734551453E-03
    13  1.2000000000000E-01  8.7067344515155E-02 -6.7223531616934E-02 -4.8819561892603E-03
    14  1.3000000000000E-01  1.0155736011588E-01 -7.7415942168226E-02 -1.7011419762457E-03
    15  1.4000000000000E-01  1.1701022124346E-01 -8.7975118178493E-02  2.9073658896595E-03
    16  1.5000000000000E-01  1.3338585992181E-01 -9.8816727056355E-02  9.1401232420221E-03
    17  1.6000000000000E-01  1.5064300170980E-01 -1.0985660317419E-01  1.7183640085383E-02
    18  1.7000000000000E-01  1.6873945814255E-01 -1.2101179509867E-01  2.7210456185837E-02
    19  1.8000000000000E-01  1.8763241327703E-01 -1.3220158465666E-01  3.9375358724775E-02
    20  1.9000000000000E-01  2.0727870054728E-01 -1.4334846317311E-01  5.3811801837704E-02
    21  2.0000000000000E-01  2.2763506629062E-01 -1.5437905080536E-01  7.0628585293806E-02
    22  2.1000000000000E-01  2.4865841651502E-01 -1.6522494568639E-01  8.9906846167991E-02
    23  2.2000000000000E-01  2.7030604373570E-01 -1.7582349056910E-01  1.1169741315940E-01
    24  2.3000000000000E-01  2.9253583101350E-01 -1.8611844582019E-01  1.3601856827603E-01
    25  2.4000000000000E-01  3.1530643067329E-01 -1.9606055893082E-01  1.6285425500047E-01
    26  2.5000000000000E-01  3.3857741556418E-01 -2.0560802217359E-01  1.9215276585375E-01
    27  2.6000000000000E-01  3.6230940113790E-01 -2.1472681162236E-01  2.2382593556701E-01
    28  2.7000000000000E-01  3.8646413706308E-01 -2.2339090243968E-01  2.5774885894771E-01
    29  2.8000000000000E-01  4.1100456755373E-01 -2.3158235710516E-01  2.9376014508600E-01
    30  2.9000000000000E-01  4.3589486006485E-01 -2.3929128508012E-01  3.3166271189132E-01
    31  3.0000000000000E-01  4.6110040248923E-01 -2.4651567425661E-01  3.7122511718640E-01
    32  3.1000000000000E-01  4.8658776947031E-01 -2.5326109639422E-01  4.1218341482394E-01
    33  3.2000000000000E-01  5.1232465892087E-01 -2.5954029058216E-01  4.5424351663967E-01
    34  3.3000000000000E-01  5.3827980029769E-01 -2.6537263054999E-01  4.9708403362309E-01
    35  3.4000000000000E-01  5.6442283662290E-01 -2.7078348336319E-01  5.4035956257766E-01
    36  3.5000000000000E-01  5.9072418265718E-01 -2.7580346865590E-01  5.8370437786127E-01
    37  3.6000000000000E-01  6.1715486201120E-01 -2.8046762904864E-01  6.2673648163542E-01
    38  3.7000000000000E-01  6.4368632632519E-01 -2.8481452375300E-01  6.6906196050509E-01
    39  3.8000000000000E-01  6.7029025994694E-01 -2.8888525855825E-01  7.1027959157408E-01
    40  3.9000000000000E-01  6.9693837379069E-01 -2.9272246640904E-01  7.4998563685238E-01
    41  4.0000000000000E-01  7.2360219226070E-01 -2.9636925360379E-01  7.8777876168881E-01
    42  4.1000000000000E-01  7.5025283726876E-01 -2.9986812725789E-01  8.2326501051974E-01
    43  4.2000000000000E-01  7.7686081346425E-01 -3.0325992007374E-01  8.5606277175803E-01
    44  4.3000000000000E-01  8.0339579882499E-01 -3.0658272863535E-01  8.8580766312537E-01
    45  4.4000000000000E-01  8.2982644472702E-01 -3.0987088139406E-01  9.1215726916769E-01
    46  4.5000000000000E-01  8.5612018952221E-01 -3.1315395223332E-01  9.3479566408772E-01
    47  4.6000000000000E-01  8.8224308950314E-01 -3.1645583499721E-01  9.5343765537048E-01
    48  4.7000000000000E-01  9.0815967092913E-01 -3.1979389364469E-01  9.6783268693701E-01
    49  4.8000000000000E-01  9.3383280652542E-01 -3.2317820175792E-01  9.7776834470396E-01
    50  4.9000000000000E-01  9.5922361955496E-01 -3.2661088399990E-01  9.8307341239794E-01
    51  5.0000000000000E-01  9.8429141820080E-01 -3.3008557079906E-01  9.8362043121223E-01
    52  5.1000000000000E-01  1.0089936625931E+00 -3.3358697605182E-01  9.7932772332440E-01
    53  5.2000000000000E-01  1.0332859663723E+00 -3.3709060599958E-01  9.7016084633398E-01
    54  5.3000000000000E-01  1.0571221342057E+00 -3.4056260567380E-01  9.5613345323581E-01
    55  5.4000000000000E-01  1.0804542361731E+00 -3.4395974743677E-01  9.3730754051541E-01
    56  5.5000000000000E-01  1.1032327194201E+00 -3.4722956419986E-01  9.1379307523279E-01
    57  5.6000000000000E-01  1.1254065569420E+00 -3.5031062790267E-01  8.8574700043614E-01
    58  5.7000000000000E-01  1.1469234328271E+00 -3.5313297181189E-01  8.5337162680256E-01
    59  5.8000000000000E-01  1.1677299627534E+00 -3.5561865317604E-01  8.1691242692074E-01
    60  5.9000000000000E-01  1.1877719480068E+00 -3.5768245077864E-01  7.7665525699447E-01
    61  6.0000000000000E-01  1.2069946607817E+00 -3.5923268999579E-01  7.3292303883553E-01
    62  6.1000000000000E-01  1.2253431580426E+00 -3.6017218611164E-01  6.8607194272127E-01
    63  6.2000000000000E-01  1.2427626207712E+00 -3.6039929490195E-01  6.3648711890165E-01
    64  6.3000000000000E-01  1.2591987150109E+00 -3.5980905788769E-01  5.8457803215304E-01
    65  6.4000000000000E-01  1.2745979707477E+00 -3.5829442820955E-01  5.3077345969338E-01
    66  6.5000000000000E-01  1.2889081743455E+00 -3.5574756180156E-01  4.7551621791039E-01
    67  6.6000000000000E-01  1.3020787699871E+00 -3.5206115746683E-01  4.1925768763135E-01
    68  6.7000000000000E-01  1.3140612653602E+00 -3.4712982859633E-01  3.6245221101662E-01