Ru    ONCVPSP-4.0.1  r_core=   1.35510   1.40462   1.30733
     44.0000     16.0000      250217    zatom,zion,pspd
     8       2   2     4   600     0    pspcod,pspxc,lmax,lloc,mmax,r2well
  5.99000000  7.00000000  0.00000000    rchrg fchrg qchrg
     2     2     2     0    nproj
     3     1           extension_switch
     4     4     0    nprojso
   0                         1.4233531033137E+01  1.0676634179673E+00
     1  0.0000000000000E+00  2.1783013171017E-09 -9.3420898794605E-09
     2  1.0000000000000E-02  6.7507403287916E-02 -2.3774551235967E-02
     3  2.0000000000000E-02  1.3492951222236E-01 -4.7574259494149E-02
     4  3.0000000000000E-02  2.0218025031605E-01 -7.1420683773817E-02
     5  4.0000000000000E-02  2.6917200087466E-01 -9.5328286272115E-02
     6  5.0000000000000E-02  3.3581489646630E-01 -1.1930112960839E-01
     7  6.0000000000000E-02  4.0201617827370E-01 -1.4332986190419E-01
     8  7.0000000000000E-02  4.6767964598849E-01 -1.6738907435856E-01
     9  8.0000000000000E-02  5.3270521672882E-01 -1.9143510661624E-01
    10  9.0000000000000E-02  5.9698860883634E-01 -2.1540436398140E-01
    11  1.0000000000000E-01  6.6042116339902E-01 -2.3921219765520E-01
    12  1.1000000000000E-01  7.2288981302175E-01 -2.6275238498521E-01
    13  1.2000000000000E-01  7.8427720380808E-01 -2.8589723155456E-01
    14  1.3000000000000E-01  8.4446197280532E-01 -3.0849830117963E-01
    15  1.4000000000000E-01  9.0331917939145E-01 -3.3038776391230E-01
    16  1.5000000000000E-01  9.6072088533391E-01 -3.5138033635074E-01
    17  1.6000000000000E-01  1.0165368746175E+00 -3.7127577333906E-01
    18  1.7000000000000E-01  1.0706355007065E+00 -3.8986185586042E-01
    19  1.8000000000000E-01  1.1228846457584E+00 -4.0691780695486E-01
    20  1.9000000000000E-01  1.1731527735171E+00 -4.2221805614956E-01
    21  2.0000000000000E-01  1.2213100552485E+00 -4.3553626346377E-01
    22  2.1000000000000E-01  1.2672295462039E+00 -4.4664950678433E-01
    23  2.2000000000000E-01  1.3107883887428E+00 -4.5534253149674E-01
    24  2.3000000000000E-01  1.3518690174587E+00 -4.6141195883248E-01
    25  2.4000000000000E-01  1.3903603414470E+00 -4.6467034953607E-01
    26  2.5000000000000E-01  1.4261588792360E+00 -4.6495002217708E-01
    27  2.6000000000000E-01  1.4591698228707E+00 -4.6210653068623E-01
    28  2.7000000000000E-01  1.4893080091622E+00 -4.5602171337073E-01
    29  2.8000000000000E-01  1.5164987781704E+00 -4.4660623559116E-01
    30  2.9000000000000E-01  1.5406787015188E+00 -4.3380156023573E-01
    31  3.0000000000000E-01  1.5617961660876E+00 -4.1758129383006E-01
    32  3.1000000000000E-01  1.5798118019335E+00 -3.9795187124784E-01
    33  3.2000000000000E-01  1.5946987468562E+00 -3.7495255818276E-01
    34  3.3000000000000E-01  1.6064427437856E+00 -3.4865476741220E-01
    35  3.4000000000000E-01  1.6150420710223E+00 -3.1916070202103E-01
    36  3.5000000000000E-01  1.6205073092181E+00 -2.8660135573689E-01
    37  3.6000000000000E-01  1.6228609527500E+00 -2.5113391693705E-01
    38  3.7000000000000E-01  1.6221368767270E+00 -2.1293863830753E-01
    39  3.8000000000000E-01  1.6183796741797E+00 -1.7221524817576E-01
    40  3.9000000000000E-01  1.6116438809458E+00 -1.2917899183575E-01
    41  4.0000000000000E-01  1.6019931082919E+00 -8.4056401410699E-02
    42  4.1000000000000E-01  1.5894991053552E+00 -3.7080900677323E-02
    43  4.2000000000000E-01  1.5742407749793E+00  1.1511643421533E-02
    44  4.3000000000000E-01  1.5563031674227E+00  6.1487308288032E-02
    45  4.4000000000000E-01  1.5357764767130E+00  1.1261832819810E-01
    46  4.5000000000000E-01  1.5127550640834E+00  1.6468702100193E-01
    47  4.6000000000000E-01  1.4873365319713E+00  2.1748932415293E-01
    48  4.7000000000000E-01  1.4596208704974E+00  2.7083784396371E-01
    49  4.8000000000000E-01  1.4297096962055E+00  3.2456433329409E-01
    50  4.9000000000000E-01  1.3977056001901E+00  3.7852152651322E-01
    51  5.0000000000000E-01  1.3637116196082E+00  4.3258427624452E-01
    52  5.1000000000000E-01  1.3278308430629E+00  4.8664995375020E-01
    53  5.2000000000000E-01  1.2901661565192E+00  5.4063809344379E-01
    54  5.3000000000000E-01  1.2508201323743E+00  5.9448928149633E-01
    55  5.4000000000000E-01  1.2098950601460E+00  6.4816330836785E-01
    56  5.5000000000000E-01  1.1674931130690E+00  7.0163662486455E-01
    57  5.6000000000000E-01  1.1237166408019E+00  7.5489916051243E-01
    58  5.7000000000000E-01  1.0786685745562E+00  8.0795058116705E-01
    59  5.8000000000000E-01  1.0324529273561E+00  8.6079607938555E-01
    60  5.9000000000000E-01  9.8517536892628E-01  9.1344180573210E-01
    61  6.0000000000000E-01  9.3694385196647E-01  9.6589006148059E-01
    62  6.1000000000000E-01  8.8786926438689E-01  1.0181343827663E+00
    63  6.2000000000000E-01  8.3806608050990E-01  1.0701546528361E+00
    64  6.3000000000000E-01  7.8765298334403E-01  1.1219123824278E+00
    65  6.4000000000000E-01  7.3675342984100E-01  1.1733462983277E+00
    66  6.5000000000000E-01  6.8549613157538E-01  1.2243683767303E+00
    67  6.6000000000000E-01  6.3401542454200E-01  1.2748604511663E+00
    68  6.7000000000000E-01  5.8245150373300E-01  1.3246715145642E+00
    69  6.8000000000000E-01  5.3095050080348E-01  1.3736158216280E+00
    70  6.9000000000000E-01  4.7966438641134E-01  1.4214718814004E+00
    71  7.0000000000000E-01  4.2875068265938E-01  1.4679824109611E+00
    72  7.1000000000000E-01  3.7837197539548E-01  1.5128553000607E+00
    73  7.2000000000000E-01  3.2869522084665E-01  1.5557656135749E+00
    74  7.3000000000000E-01  2.7989084607249E-01  1.5963586344638E+00
    75  7.4000000000000E-01  2.3213164790666E-01  1.6342539249914E+00
    76  7.5000000000000E-01  1.8559150029698E-01  1.6690503588502E+00
    77  7.6000000000000E-01  1.4044388512746E-01  1.7003320521457E+00
    78  7.7000000000000E-01  9.6860266589783E-02  1.7276750974852E+00
    79  7.8000000000000E-01  5.5008333841258E-02  1.7506549832859E+00
    80  7.9000000000000E-01  1.5050140927753E-02  1.7688545603846E+00
    81  8.0000000000000E-01 -2.2859823348618E-02  1.7818724006319E+00
    82  8.1000000000000E-01 -5.8576599873987E-02  1.7893313778315E+00
    83  8.2000000000000E-01 -9.1966719897446E-02  1.7908872905380E+00
    84  8.3000000000000E-01 -1.2291012231110E-01  1.7862373391911E+00
    85  8.4000000000000E-01 -1.5130198721785E-01  1.7751282670684E+00
    86  8.5000000000000E-01 -1.7705444566229E-01  1.7573639757578E+00
    87  8.6000000000000E-01 -2.0009812649556E-01  1.7328124313329E+00
    88  8.7000000000000E-01 -2.2038350333887E-01  1.7014116871425E+00
    89  8.8000000000000E-01 -2.3788200747719E-01  1.6631748629593E+00
    90  8.9000000000000E-01 -2.5258687621090E-01  1.6181939379599E+00
    91  9.0000000000000E-01 -2.6451371065296E-01  1.5666422363033E+00
    92  9.1000000000000E-01 -2.7370072210002E-01  1.5087755085470E+00
    93  9.2000000000000E-01 -2.8020865182837E-01  1.4449315392992E+00
    94  9.3000000000000E-01 -2.8412035535342E-01  1.3755282408105E+00
    95  9.4000000000000E-01 -2.8554004871887E-01  1.3010602230488E+00
    96  9.5000000000000E-01 -2.8459222111078E-01  1.2220938625282E+00
    97  9.6000000000000E-01 -2.8142022487770E-01  1.1392609240888E+00
    98  9.7000000000000E-01 -2.7618456073496E-01  1.0532508212612E+00
    99  9.8000000000000E-01 -2.6906088238934E-01  9.6480163108900E-01
   100  9.9000000000000E-01 -2.6023775089523E-01  8.7469000764690E-01
   101  1.0000000000000E+00 -2.4991417460388E-01  7.8372016432179E-01
   102  1.0100000000000E+00 -2.3829697546843E-01  6.9271211762382E-01
   103  1.0200000000000E+00 -2.2559802659630E-01  6.0248940430684E-01
   104  1.0300000000000E+00 -2.1203140919819E-01  5.1386649842575E-01
   105  1.0400000000000E+00 -1.9781053938544E-01  4.2763616526654E-01
   106  1.0500000000000E+00 -1.8314531654846E-01  3.4455699454218E-01
   107  1.0600000000000E+00 -1.6823934526679E-01  2.6534135566798E-01
   108  1.0700000000000E+00 -1.5328728183613E-01  1.9064401323142E-01
   109  1.0800000000000E+00 -1.3847235454826E-01  1.2105163095288E-01
   110  1.0900000000000E+00 -1.2396410386599E-01  5.7073377699008E-02
   111  1.1000000000000E+00 -1.0991638462075E-01 -8.6717042592879E-04
   112  1.1100000000000E+00 -9.6465667440066E-02 -5.2438661667835E-02
   113  1.1200000000000E+00 -8.3729670823844E-02 -9.7406991490550E-02
   114  1.1300000000000E+00 -7.1806348809844E-02 -1.3563860538310E-01
   115  1.1400000000000E+00 -6.0773252060896E-02 -1.6710200424360E-01
   116  1.1500000000000E+00 -5.0687272684776E-02 -1.9186741085242E-01
   117  1.1600000000000E+00 -4.1584775241730E-02 -2.1010459333982E-01
   118  1.1700000000000E+00 -3.3482108454046E-02 -2.2207887927946E-01
   119  1.1800000000000E+00 -2.6376484169195E-02 -2.2814543180408E-01
   120  1.1900000000000E+00 -2.0247202440846E-02 -2.2874189553232E-01
   121  1.2000000000000E+00 -1.5057194194549E-02 -2.2437955505048E-01
   122  1.2100000000000E+00 -1.0754846151327E-02 -2.1563318072621E-01
   123  1.2200000000000E+00 -7.2760665075607E-03 -2.0312976567382E-01
   124  1.2300000000000E+00 -4.5465445351108E-03 -1.8753638269716E-01
   125  1.2400000000000E+00 -2.4841528609791E-03 -1.6954741058991E-01
   126  1.2500000000000E+00 -1.0014377890458E-03 -1.4987139490279E-01
   127  1.2600000000000E+00 -8.1407620334061E-06 -1.2921781861604E-01
   128  1.2700000000000E+00  5.8630044240873E-04 -1.0828404204251E-01
   129  1.2800000000000E+00  8.7037262962205E-04 -8.7742823434138E-02
   130  1.2900000000000E+00  9.2714632049060E-04 -6.8227054359260E-02
   131  1.3000000000000E+00  8.2137192779213E-04 -5.0282728818671E-02
   132  1.3100000000000E+00  6.2406353022618E-04 -3.4445251747906E-02
   133  1.3200000000000E+00  4.0248302181088E-04 -2.1204731673095E-02
   134  1.3300000000000E+00  2.0772375599605E-04 -1.0956073035571E-02
   135  1.3400000000000E+00  7.1885729212432E-05 -3.9780223320350E-03
   136  1.3500000000000E+00  8.0687520318524E-06 -4.9606942655721E-04
   137  1.3600000000000E+00 -6.8141375817513E-07  4.5450695120069E-05
   138  1.3700000000000E+00  1.2310863943399E-07 -7.7329431947438E-06
   139  1.38  0.  0.
   140  1.39  0.  0.
   141  1.40  0.  0.
   142  1.41  0.  0.
   143  1.42  0.  0.
   144  1.43  0.  0.
   145  1.44  0.  0.
   146  1.45  0.  0.
   147  1.46  0.  0.
   148  1.47  0.  0.
   149  1.48  0.  0.
   150  1.49  0.  0.
   151  1.50  0.  0.
   152  1.51  0.  0.
   153  1.52  0.  0.
   154  1.53  0.  0.
   155  1.54  0.  0.
   156  1.55  0.  0.
   157  1.56  0.  0.
   158  1.57  0.  0.
   159  1.58  0.  0.
   160  1.59  0.  0.
   161  1.60  0.  0.
   162  1.61  0.  0.
   163  1.62  0.  0.
   164  1.63  0.  0.
   165  1.64  0.  0.
   166  1.65  0.  0.
   167  1.66  0.  0.
   168  1.67  0.  0.
   169  1.68  0.  0.
   170  1.69  0.  0.
   171  1.70  0.  0.
   172  1.71  0.  0.
   173  1.72  0.  0.
   174  1.73  0.  0.
   175  1.74  0.  0.
   176  1.75  0.  0.
   177  1.76  0.  0.
   178  1.77  0.  0.
   179  1.78  0.  0.
   180  1.79  0.  0.
   181  1.80  0.  0.
   182  1.81  0.  0.
   183  1.82  0.  0.
   184  1.83  0.  0.
   185  1.84  0.  0.
   186  1.85  0.  0.
   187  1.86  0.  0.
   188  1.87  0.  0.
   189  1.88  0.  0.
   190  1.89  0.  0.
   191  1.90  0.  0.
   192  1.91  0.  0.
   193  1.92  0.  0.
   194  1.93  0.  0.
   195  1.94  0.  0.
   196  1.95  0.  0.
   197  1.96  0.  0.
   198  1.97  0.  0.
   199  1.98  0.  0.
   200  1.99  0.  0.
   201  2.00  0.  0.
   202  2.01  0.  0.
   203  2.02  0.  0.
   204  2.03  0.  0.
   205  2.04  0.  0.
   206  2.05  0.  0.
   207  2.06  0.  0.
   208  2.07  0.  0.
   209  2.08  0.  0.
   210  2.09  0.  0.
   211  2.10  0.  0.
   212  2.11  0.  0.
   213  2.12  0.  0.
   214  2.13  0.  0.
   215  2.14  0.  0.
   216  2.15  0.  0.
   217  2.16  0.  0.
   218  2.17  0.  0.
   219  2.18  0.  0.
   220  2.19  0.  0.
   221  2.20  0.  0.
   222  2.21  0.  0.
   223  2.22  0.  0.
   224  2.23  0.  0.
   225  2.24  0.  0.
   226  2.25  0.  0.
   227  2.26  0.  0.
   228  2.27  0.  0.
   229  2.28  0.  0.
   230  2.29  0.  0.
   231  2.30  0.  0.
   232  2.31  0.  0.
   233  2.32  0.  0.
   234  2.33  0.  0.
   235  2.34  0.  0.
   236  2.35  0.  0.
   237  2.36  0.  0.
   238  2.37  0.  0.
   239  2.38  0.  0.
   240  2.39  0.  0.
   241  2.40  0.  0.
   242  2.41  0.  0.
   243  2.42  0.  0.
   244  2.43  0.  0.
   245  2.44  0.  0.
   246  2.45  0.  0.
   247  2.46  0.  0.
   248  2.47  0.  0.
   249  2.48  0.  0.
   250  2.49  0.  0.
   251  2.50  0.  0.
   252  2.51  0.  0.
   253  2.52  0.  0.
   254  2.53  0.  0.
   255  2.54  0.  0.
   256  2.55  0.  0.
   257  2.56  0.  0.
   258  2.57  0.  0.
   259  2.58  0.  0.
   260  2.59  0.  0.
   261  2.60  0.  0.
   262  2.61  0.  0.
   263  2.62  0.  0.
   264  2.63  0.  0.
   265  2.64  0.  0.
   266  2.65  0.  0.
   267  2.66  0.  0.
   268  2.67  0.  0.
   269  2.68  0.  0.
   270  2.69  0.  0.
   271  2.70  0.  0.
   272  2.71  0.  0.
   273  2.72  0.  0.
   274  2.73  0.  0.
   275  2.74  0.  0.
   276  2.75  0.  0.
   277  2.76  0.  0.
   278  2.77  0.  0.
   279  2.78  0.  0.
   280  2.79  0.  0.
   281  2.80  0.  0.
   282  2.81  0.  0.
   283  2.82  0.  0.
   284  2.83  0.  0.
   285  2.84  0.  0.
   286  2.85  0.  0.
   287  2.86  0.  0.
   288  2.87  0.  0.
   289  2.88  0.  0.
   290  2.89  0.  0.
   291  2.90  0.  0.
   292  2.91  0.  0.
   293  2.92  0.  0.
   294  2.93  0.  0.
   295  2.94  0.  0.
   296  2.95  0.  0.
   297  2.96  0.  0.
   298  2.97  0.  0.
   299  2.98  0.  0.
   300  2.99  0.  0.
   301  3.00  0.  0.
   302  3.01  0.  0.
   303  3.02  0.  0.
   304  3.03  0.  0.
   305  3.04  0.  0.
   306  3.05  0.  0.
   307  3.06  0.  0.
   308  3.07  0.  0.
   309  3.08  0.  0.
   310  3.09  0.  0.
   311  3.10  0.  0.
   312  3.11  0.  0.
   313  3.12  0.  0.
   314  3.13  0.  0.
   315  3.14  0.  0.
   316  3.15  0.  0.
   317  3.16  0.  0.
   318  3.17  0.  0.
   319  3.18  0.  0.
   320  3.19  0.  0.
   321  3.20  0.  0.
   322  3.21  0.  0.
   323  3.22  0.  0.
   324  3.23  0.  0.
   325  3.24  0.  0.
   326  3.25  0.  0.
   327  3.26  0.  0.
   328  3.27  0.  0.
   329  3.28  0.  0.
   330  3.29  0.  0.
   331  3.30  0.  0.
   332  3.31  0.  0.
   333  3.32  0.  0.
   334  3.33  0.  0.
   335  3.34  0.  0.
   336  3.35  0.  0.
   337  3.36  0.  0.
   338  3.37  0.  0.
   339  3.38  0.  0.
   340  3.39  0.  0.
   341  3.40  0.  0.
   342  3.41  0.  0.
   343  3.42  0.  0.
   344  3.43  0.  0.
   345  3.44  0.  0.
   346  3.45  0.  0.
   347  3.46  0.  0.
   348  3.47  0.  0.
   349  3.48  0.  0.
   350  3.49  0.  0.
   351  3.50  0.  0.
   352  3.51  0.  0.
   353  3.52  0.  0.
   354  3.53  0.  0.
   355  3.54  0.  0.
   356  3.55  0.  0.
   357  3.56  0.  0.
   358  3.57  0.  0.
   359  3.58  0.  0.
   360  3.59  0.  0.
   361  3.60  0.  0.
   362  3.61  0.  0.
   363  3.62  0.  0.
   364  3.63  0.  0.
   365  3.64  0.  0.
   366  3.65  0.  0.
   367  3.66  0.  0.
   368  3.67  0.  0.
   369  3.68  0.  0.
   370  3.69  0.  0.
   371  3.70  0.  0.
   372  3.71  0.  0.
   373  3.72  0.  0.
   374  3.73  0.  0.
   375  3.74  0.  0.
   376  3.75  0.  0.
   377  3.76  0.  0.
   378  3.77  0.  0.
   379  3.78  0.  0.
   380  3.79  0.  0.
   381  3.80  0.  0.
   382  3.81  0.  0.
   383  3.82  0.  0.
   384  3.83  0.  0.
   385  3.84  0.  0.
   386  3.85  0.  0.
   387  3.86  0.  0.
   388  3.87  0.  0.
   389  3.88  0.  0.
   390  3.89  0.  0.
   391  3.90  0.  0.
   392  3.91  0.  0.
   393  3.92  0.  0.
   394  3.93  0.  0.
   395  3.94  0.  0.
   396  3.95  0.  0.
   397  3.96  0.  0.
   398  3.97  0.  0.
   399  3.98  0.  0.
   400  3.99  0.  0.
   401  4.00  0.  0.
   402  4.01  0.  0.
   403  4.02  0.  0.
   404  4.03  0.  0.
   405  4.04  0.  0.
   406  4.05  0.  0.
   407  4.06  0.  0.
   408  4.07  0.  0.
   409  4.08  0.  0.
   410  4.09  0.  0.
   411  4.10  0.  0.
   412  4.11  0.  0.
   413  4.12  0.  0.
   414  4.13  0.  0.
   415  4.14  0.  0.
   416  4.15  0.  0.
   417  4.16  0.  0.
   418  4.17  0.  0.
   419  4.18  0.  0.
   420  4.19  0.  0.
   421  4.20  0.  0.
   422  4.21  0.  0.
   423  4.22  0.  0.
   424  4.23  0.  0.
   425  4.24  0.  0.
   426  4.25  0.  0.
   427  4.26  0.  0.
   428  4.27  0.  0.
   429  4.28  0.  0.
   430  4.29  0.  0.
   431  4.30  0.  0.
   432  4.31  0.  0.
   433  4.32  0.  0.
   434  4.33  0.  0.
   435  4.34  0.  0.
   436  4.35  0.  0.
   437  4.36  0.  0.
   438  4.37  0.  0.
   439  4.38  0.  0.
   440  4.39  0.  0.
   441  4.40  0.  0.
   442  4.41  0.  0.
   443  4.42  0.  0.
   444  4.43  0.  0.
   445  4.44  0.  0.
   446  4.45  0.  0.
   447  4.46  0.  0.
   448  4.47  0.  0.
   449  4.48  0.  0.
   450  4.49  0.  0.
   451  4.50  0.  0.
   452  4.51  0.  0.
   453  4.52  0.  0.
   454  4.53  0.  0.
   455  4.54  0.  0.
   456  4.55  0.  0.
   457  4.56  0.  0.
   458  4.57  0.  0.
   459  4.58  0.  0.
   460  4.59  0.  0.
   461  4.60  0.  0.
   462  4.61  0.  0.
   463  4.62  0.  0.
   464  4.63  0.  0.
   465  4.64  0.  0.
   466  4.65  0.  0.
   467  4.66  0.  0.
   468  4.67  0.  0.
   469  4.68  0.  0.
   470  4.69  0.  0.
   471  4.70  0.  0.
   472  4.71  0.  0.
   473  4.72  0.  0.
   474  4.73  0.  0.
   475  4.74  0.  0.
   476  4.75  0.  0.
   477  4.76  0.  0.
   478  4.77  0.  0.
   479  4.78  0.  0.
   480  4.79  0.  0.
   481  4.80  0.  0.
   482  4.81  0.  0.
   483  4.82  0.  0.
   484  4.83  0.  0.
   485  4.84  0.  0.
   486  4.85  0.  0.
   487  4.86  0.  0.
   488  4.87  0.  0.
   489  4.88  0.  0.
   490  4.89  0.  0.
   491  4.90  0.  0.
   492  4.91  0.  0.
   493  4.92  0.  0.
   494  4.93  0.  0.
   495  4.94  0.  0.
   496  4.95  0.  0.
   497  4.96  0.  0.
   498  4.97  0.  0.
   499  4.98  0.  0.
   500  4.99  0.  0.
   501  5.00  0.  0.
   502  5.01  0.  0.
   503  5.02  0.  0.
   504  5.03  0.  0.
   505  5.04  0.  0.
   506  5.05  0.  0.
   507  5.06  0.  0.
   508  5.07  0.  0.
   509  5.08  0.  0.
   510  5.09  0.  0.
   511  5.10  0.  0.
   512  5.11  0.  0.
   513  5.12  0.  0.
   514  5.13  0.  0.
   515  5.14  0.  0.
   516  5.15  0.  0.
   517  5.16  0.  0.
   518  5.17  0.  0.
   519  5.18  0.  0.
   520  5.19  0.  0.
   521  5.20  0.  0.
   522  5.21  0.  0.
   523  5.22  0.  0.
   524  5.23  0.  0.
   525  5.24  0.  0.
   526  5.25  0.  0.
   527  5.26  0.  0.
   528  5.27  0.  0.
   529  5.28  0.  0.
   530  5.29  0.  0.
   531  5.30  0.  0.
   532  5.31  0.  0.
   533  5.32  0.  0.
   534  5.33  0.  0.
   535  5.34  0.  0.
   536  5.35  0.  0.
   537  5.36  0.  0.
   538  5.37  0.  0.
   539  5.38  0.  0.
   540  5.39  0.  0.
   541  5.40  0.  0.
   542  5.41  0.  0.
   543  5.42  0.  0.
   544  5.43  0.  0.
   545  5.44  0.  0.
   546  5.45  0.  0.
   547  5.46  0.  0.
   548  5.47  0.  0.
   549  5.48  0.  0.
   550  5.49  0.  0.
   551  5.50  0.  0.
   552  5.51  0.  0.
   553  5.52  0.  0.
   554  5.53  0.  0.
   555  5.54  0.  0.
   556  5.55  0.  0.
   557  5.56  0.  0.
   558  5.57  0.  0.
   559  5.58  0.  0.
   560  5.59  0.  0.
   561  5.60  0.  0.
   562  5.61  0.  0.
   563  5.62  0.  0.
   564  5.63  0.  0.
   565  5.64  0.  0.
   566  5.65  0.  0.
   567  5.66  0.  0.
   568  5.67  0.  0.
   569  5.68  0.  0.
   570  5.69  0.  0.
   571  5.70  0.  0.
   572  5.71  0.  0.
   573  5.72  0.  0.
   574  5.73  0.  0.
   575  5.74  0.  0.
   576  5.75  0.  0.
   577  5.76  0.  0.
   578  5.77  0.  0.
   579  5.78  0.  0.
   580  5.79  0.  0.
   581  5.80  0.  0.
   582  5.81  0.  0.
   583  5.82  0.  0.
   584  5.83  0.  0.
   585  5.84  0.  0.
   586  5.85  0.  0.
   587  5.86  0.  0.
   588  5.87  0.  0.
   589  5.88  0.  0.
   590  5.89  0.  0.
   591  5.90  0.  0.
   592  5.91  0.  0.
   593  5.92  0.  0.
   594  5.93  0.  0.
   595  5.94  0.  0.
   596  5.95  0.  0.
   597  5.96  0.  0.
   598  5.97  0.  0.
   599  5.98  0.  0.
   600  5.99  0.  0.
   1                         7.1367824629640E+00  9.7922947690299E-01
     1  0.0000000000000E+00 -5.7172684642115E-09  1.5016300439208E-08
     2  1.0000000000000E-02  1.6992213249191E-03 -5.9456721973618E-04
     3  2.0000000000000E-02  6.7935374899100E-03 -2.3821643478638E-03
     4  3.0000000000000E-02  1.5272802537743E-02 -5.3741775556920E-03
     5  4.0000000000000E-02  2.7119768409495E-02 -9.5885925711956E-03
     6  5.0000000000000E-02  4.2309590353454E-02 -1.5048541040677E-02
     7  6.0000000000000E-02  6.0809159350057E-02 -2.1780330882819E-02
     8  7.0000000000000E-02  8.2576285584639E-02 -2.9811023897586E-02
     9  8.0000000000000E-02  1.0755876271705E-01 -3.9165638908696E-02
    10  9.0000000000000E-02  1.3569334759425E-01 -4.9864071553339E-02
    11  1.0000000000000E-01  1.6690469399041E-01 -6.1917832119945E-02
    12  1.1000000000000E-01  2.0110428182614E-01 -7.5326710277386E-02
    13  1.2000000000000E-01  2.3818938502871E-01 -9.0075479914307E-02
    14  1.3000000000000E-01  2.7804212169365E-01 -1.0613075847427E-01
    15  1.4000000000000E-01  3.2052862947149E-01 -1.2343813307555E-01
    16  1.5000000000000E-01  3.6549840714077E-01 -1.4191966037532E-01
    17  1.6000000000000E-01  4.1278386018058E-01 -1.6147183869503E-01
    18  1.7000000000000E-01  4.6220008389674E-01 -1.8196413956946E-01
    19  1.8000000000000E-01  5.1354491238599E-01 -2.0323817189836E-01
    20  1.9000000000000E-01  5.6659925547355E-01 -2.2510753562122E-01
    21  2.0000000000000E-01  6.2112773888337E-01 -2.4735840372028E-01
    22  2.1000000000000E-01  6.7687965547210E-01 -2.6975085185606E-01
    23  2.2000000000000E-01  7.3359022756622E-01 -2.9202093456527E-01
    24  2.3000000000000E-01  7.9098217248845E-01 -3.1388348624461E-01
    25  2.4000000000000E-01  8.4876755545018E-01 -3.3503560465892E-01
    26  2.5000000000000E-01  9.0664990632993E-01 -3.5516075500465E-01
    27  2.6000000000000E-01  9.6432656965602E-01 -3.7393341416914E-01
    28  2.7000000000000E-01  1.0214912505577E+00 -3.9102415826347E-01
    29  2.8000000000000E-01  1.0778367137216E+00 -4.0610508224165E-01
    30  2.9000000000000E-01  1.1330575876484E+00 -4.1885542886462E-01
    31  3.0000000000000E-01  1.1868532228818E+00 -4.2896729577151E-01
    32  3.1000000000000E-01  1.2389305504876E+00 -4.3615128425404E-01
    33  3.2000000000000E-01  1.2890068859693E+00 -4.4014195168044E-01
    34  3.3000000000000E-01  1.3368126240665E+00 -4.4070293147902E-01
    35  3.4000000000000E-01  1.3820937714978E+00 -4.3763159017391E-01
    36  3.5000000000000E-01  1.4246142676623E+00 -4.3076310007414E-01
    37  3.6000000000000E-01  1.4641580475395E+00 -4.1997381866923E-01
    38  3.7000000000000E-01  1.5005308064380E+00 -4.0518388130461E-01
    39  3.8000000000000E-01  1.5335614327076E+00 -3.8635893194098E-01
    40  3.9000000000000E-01  1.5631030819098E+00 -3.6351093730952E-01
    41  4.0000000000000E-01  1.5890338740403E+00 -3.3669805205918E-01
    42  4.1000000000000E-01  1.6112572040354E+00 -3.0602352600171E-01
    43  4.2000000000000E-01  1.6297016647498E+00 -2.7163366869994E-01
    44  4.3000000000000E-01  1.6443205906365E+00 -2.3371491079770E-01
    45  4.4000000000000E-01  1.6550912392760E+00 -1.9249002502706E-01
    46  4.5000000000000E-01  1.6620136364475E+00 -1.4821359212823E-01
    47  4.6000000000000E-01  1.6651091183975E+00 -1.0116681737919E-01
    48  4.7000000000000E-01  1.6644186121272E+00 -5.1651821495518E-02
    49  4.8000000000000E-01  1.6600007006994E+00  1.4455185262688E-05
    50  4.9000000000000E-01  1.6519295255890E+00  5.3506584515761E-02
    51  5.0000000000000E-01  1.6402925818236E+00  1.0849705953748E-01
    52  5.1000000000000E-01  1.6251884639805E+00  1.6466261775238E-01
    53  5.2000000000000E-01  1.6067246219376E+00  2.2169031581115E-01
    54  5.3000000000000E-01  1.5850151845917E+00  2.7928319705318E-01
    55  5.4000000000000E-01  1.5601789075436E+00  3.3716540182205E-01
    56  5.5000000000000E-01  1.5323372970612E+00  3.9508658302105E-01
    57  5.6000000000000E-01  1.5016129575347E+00  4.5282550571657E-01
    58  5.7000000000000E-01  1.4681282032489E+00  5.1019272938924E-01
    59  5.8000000000000E-01  1.4320039677697E+00  5.6703229422740E-01
    60  5.9000000000000E-01  1.3933590357532E+00  6.2322235812232E-01
    61  6.0000000000000E-01  1.3523096127419E+00  6.7867475815626E-01
    62  6.1000000000000E-01  1.3089692387452E+00  7.3333349870920E-01
    63  6.2000000000000E-01  1.2634490413622E+00  7.8717219714369E-01
    64  6.3000000000000E-01  1.2158583141386E+00  8.4019054662796E-01
    65  6.4000000000000E-01  1.1663053960343E+00  8.9240988328742E-01
    66  6.5000000000000E-01  1.1148988185599E+00  9.4386797080644E-01
    67  6.6000000000000E-01  1.0617486785804E+00  9.9461313913793E-01
    68  6.7000000000000E-01  1.0069681872068E+00  1.0446979344686E+00
    69  6.8000000000000E-01  9.5067533883408E-01  1.0941724544462E+00
    70  6.9000000000000E-01  8.9299463939711E-01  1.1430775553988E+00
    71  7.0000000000000E-01  8.3405882949095E-01  1.1914381264546E+00
    72  7.1000000000000E-01  7.7401053622642E-01  1.2392566288019E+00
    73  7.2000000000000E-01  7.1300378766699E-01  1.2865070966244E+00
    74  7.3000000000000E-01  6.5120532543900E-01  1.3331297894461E+00
    75  7.4000000000000E-01  5.8879565462152E-01  1.3790266737858E+00
    76  7.5000000000000E-01  5.2596977524746E-01  1.4240578953369E+00
    77  7.6000000000000E-01  4.6293754658601E-01  1.4680393816841E+00
    78  7.7000000000000E-01  3.9992364368580E-01  1.5107416902613E+00
    79  7.8000000000000E-01  3.3716707525859E-01  1.5518901874060E+00
    80  7.9000000000000E-01  2.7492024265665E-01  1.5911666126064E+00
    81  8.0000000000000E-01  2.1344753119672E-01  1.6282120481043E+00
    82  8.1000000000000E-01  1.5302343713599E-01  1.6626312787044E+00
    83  8.2000000000000E-01  9.3930245918712E-02  1.6939984907924E+00
    84  8.3000000000000E-01  3.6455289583852E-02  1.7218642240608E+00
    85  8.4000000000000E-01 -1.9112176856452E-02  1.7457634551628E+00
    86  8.5000000000000E-01 -7.2484428992726E-02  1.7652246603330E+00
    87  8.6000000000000E-01 -1.2337899516013E-01  1.7797796747653E+00
    88  8.7000000000000E-01 -1.7152257667124E-01  1.7889741410009E+00
    89  8.8000000000000E-01 -2.1665508805540E-01  1.7923783174619E+00
    90  8.9000000000000E-01 -2.5853373330891E-01  1.7895980021656E+00
    91  9.0000000000000E-01 -2.9693703012742E-01  1.7802853160845E+00
    92  9.1000000000000E-01 -3.3166869207653E-01  1.7641490859338E+00
    93  9.2000000000000E-01 -3.6256127875095E-01  1.7409645676214E+00
    94  9.3000000000000E-01 -3.8947952621752E-01  1.7105822592612E+00
    95  9.4000000000000E-01 -4.1232327442424E-01  1.6729355664921E+00
    96  9.5000000000000E-01 -4.3102991472386E-01  1.6280471026310E+00
    97  9.6000000000000E-01 -4.4557628909195E-01  1.5760334315818E+00
    98  9.7000000000000E-01 -4.5597998285434E-01  1.5171080919214E+00
    99  9.8000000000000E-01 -4.6229996456761E-01  1.4515827755631E+00
   100  9.9000000000000E-01 -4.6463653986788E-01  1.3798665731087E+00
   101  1.0000000000000E+00 -4.6313060032586E-01  1.3024632395975E+00
   102  1.0100000000000E+00 -4.5796216331126E-01  1.2199664779206E+00
   103  1.0200000000000E+00 -4.4934821423160E-01  1.1330532817022E+00
   104  1.0300000000000E+00 -4.3753987791034E-01  1.0424754239003E+00
   105  1.0400000000000E+00 -4.2281896095239E-01  9.4904922073676E-01
   106  1.0500000000000E+00 -4.0549392136070E-01  8.5364374180039E-01
   107  1.0600000000000E+00 -3.8589533503667E-01  7.5716767521195E-01
   108  1.0700000000000E+00 -3.6437094083486E-01  6.6055509075822E-01
   109  1.0800000000000E+00 -3.4128035621366E-01  5.6475037295837E-01
   110  1.0900000000000E+00 -3.1698956397006E-01  4.7069261937852E-01
   111  1.1000000000000E+00 -2.9186527686560E-01  3.7929981659113E-01
   112  1.1100000000000E+00 -2.6626929092866E-01  2.9145311639617E-01
   113  1.1200000000000E+00 -2.4055293976785E-01  2.0798153803688E-01
   114  1.1300000000000E+00 -2.1505176126356E-01  1.2964741793418E-01
   115  1.1400000000000E+00 -1.9008048451011E-01  5.7132916910843E-02
   116  1.1500000000000E+00 -1.6592843893434E-01 -8.9721237664180E-03
   117  1.1600000000000E+00 -1.4285547917163E-01 -6.8180711766976E-02
   118  1.1700000000000E+00 -1.2108850879517E-01 -1.2011738445030E-01
   119  1.1800000000000E+00 -1.0081867343893E-01 -1.6452484459381E-01
   120  1.1900000000000E+00 -8.2199279713927E-02 -2.0126839683717E-01
   121  1.2000000000000E+00 -6.5344480609582E-02 -2.3033807717514E-01
   122  1.2100000000000E+00 -5.0328751471810E-02 -2.5184841687733E-01
   123  1.2200000000000E+00 -3.7187163224267E-02 -2.6603583352652E-01
   124  1.2300000000000E+00 -2.5916441837499E-02 -2.7325369372342E-01
   125  1.2400000000000E+00 -1.6476785529021E-02 -2.7396514330906E-01
   126  1.2500000000000E+00 -8.7943940413336E-03 -2.6873385099288E-01
   127  1.2600000000000E+00 -2.7646482487251E-03 -2.5821285814293E-01
   128  1.2700000000000E+00  1.7441365729306E-03 -2.4313177079300E-01
   129  1.2800000000000E+00  4.8864737664628E-03 -2.2428256834626E-01
   130  1.2900000000000E+00  6.8350860131679E-03 -2.0250433660007E-01
   131  1.3000000000000E+00  7.7760120829467E-03 -1.7866724988575E-01
   132  1.3100000000000E+00  7.9035771505285E-03 -1.5365622518622E-01
   133  1.3200000000000E+00  7.4145883459174E-03 -1.2835169786062E-01
   134  1.3300000000000E+00  6.5000939734707E-03 -1.0360043213924E-01
   135  1.3400000000000E+00  5.3331096162173E-03 -8.0180665354835E-02
   136  1.3500000000000E+00  4.0554659097342E-03 -5.8768766794689E-02
   137  1.3600000000000E+00  2.8111645129545E-03 -4.0004184340748E-02
   138  1.3700000000000E+00  1.7184724428355E-03 -2.4428268988016E-02
   139  1.3800000000000E+00  8.6327762529651E-04 -1.2467077117548E-02
   140  1.3900000000000E+00  2.9505484475213E-04 -4.4068504240901E-03
   141  1.4000000000000E+00  3.2689760537740E-05 -5.1868961113476E-04
   142  1.4100000000000E+00 -2.9544699240900E-06  4.7478381536179E-05
   143  1.4200000000000E+00  6.0256613117633E-07 -9.4475309312670E-06
   144  1.43  0.  0.
   145  1.44  0.  0.
   146  1.45  0.  0.
   147  1.46  0.  0.
   148  1.47  0.  0.
   149  1.48  0.  0.