Ru    ONCVPSP-4.0.1  r_core=   1.35510   1.40462   1.30733
     44.0000     16.0000      231019    zatom,zion,pspd
     8       2   2     4   600     0    pspcod,pspxc,lmax,lloc,mmax,r2well
  5.99000000  7.00000000  0.00000000    rchrg fchrg qchrg
     2     2     2     0     0    nproj
     1     1           extension_switch
   0                         1.4233583871648E+01  1.0692703516531E+00
     1  0.0000000000000E+00  2.1861760179931E-09 -9.3665111222663E-09
     2  1.0000000000000E-02  6.7544063767399E-02 -2.3770450158002E-02
     3  2.0000000000000E-02  1.3500275499144E-01 -4.7566220548482E-02
     4  3.0000000000000E-02  2.0228991642743E-01 -7.1409024217155E-02
     5  4.0000000000000E-02  2.6931784557177E-01 -9.5313459342391E-02
     6  5.0000000000000E-02  3.3599658181143E-01 -1.1928369807654E-01
     7  6.0000000000000E-02  4.0223326369750E-01 -1.4331046400429E-01
     8  7.0000000000000E-02  4.6793157707291E-01 -1.6736838308172E-01
     9  8.0000000000000E-02  5.3299131259868E-01 -1.9141378355336E-01
    10  9.0000000000000E-02  5.9730804858830E-01 -2.1538300906946E-01
    11  1.0000000000000E-01  6.6077297203893E-01 -2.3919129631801E-01
    12  1.1000000000000E-01  7.2327284741237E-01 -2.6273225425790E-01
    13  1.2000000000000E-01  7.8469013914645E-01 -2.8587796683952E-01
    14  1.3000000000000E-01  8.4490329015361E-01 -3.0847972529827E-01
    15  1.4000000000000E-01  9.0378715477561E-01 -3.3036938009110E-01
    16  1.5000000000000E-01  9.6121358090173E-01 -3.5136128671228E-01
    17  1.6000000000000E-01  1.0170521323118E+00 -3.7125480435980E-01
    18  1.7000000000000E-01  1.0711709388609E+00 -3.8983729211011E-01
    19  1.8000000000000E-01  1.1234376589645E+00 -4.0688753424985E-01
    20  1.9000000000000E-01  1.1737205360405E+00 -4.2217951503943E-01
    21  2.0000000000000E-01  1.2218895281974E+00 -4.3548645373068E-01
    22  2.1000000000000E-01  1.2678174885659E+00 -4.4658500337501E-01
    23  2.2000000000000E-01  1.3113813723194E+00 -4.5525951203236E-01
    24  2.3000000000000E-01  1.3524634456355E+00 -4.6130624255905E-01
    25  2.4000000000000E-01  1.3909524716466E+00 -4.6453744729456E-01
    26  2.5000000000000E-01  1.4267448488107E+00 -4.6478519669403E-01
    27  2.6000000000000E-01  1.4597456781070E+00 -4.6190486621979E-01
    28  2.7000000000000E-01  1.4898697369905E+00 -4.5577819349989E-01
    29  2.8000000000000E-01  1.5170423401029E+00 -4.4631582771330E-01
    30  2.9000000000000E-01  1.5412000692750E+00 -4.3345930514636E-01
    31  3.0000000000000E-01  1.5622913583206E+00 -4.1718239860100E-01
    32  3.1000000000000E-01  1.5802769214318E+00 -3.9749180350403E-01
    33  3.2000000000000E-01  1.5951300175714E+00 -3.7442713980226E-01
    34  3.3000000000000E-01  1.6068365470309E+00 -3.4806026564528E-01
    35  3.4000000000000E-01  1.6153949801905E+00 -3.1849391603973E-01
    36  3.5000000000000E-01  1.6208161223898E+00 -2.8585969668996E-01
    37  3.6000000000000E-01  1.6231227225982E+00 -2.5031547969250E-01
    38  3.7000000000000E-01  1.6223489371734E+00 -2.1204226321652E-01
    39  3.8000000000000E-01  1.6185396633220E+00 -1.7124057138331E-01
    40  3.9000000000000E-01  1.6117497598455E+00 -1.2812648289044E-01
    41  4.0000000000000E-01  1.6020431752997E+00 -8.2927387185964E-02
    42  4.1000000000000E-01  1.5894920057407E+00 -3.5877574900303E-02
    43  4.2000000000000E-01  1.5741755057280E+00  1.2786225433295E-02
    44  4.3000000000000E-01  1.5561790771680E+00  6.2829249764982E-02
    45  4.4000000000000E-01  1.5355932608711E+00  1.1402292569432E-01
    46  4.5000000000000E-01  1.5125127553612E+00  1.6614881324981E-01
    47  4.6000000000000E-01  1.4870354865168E+00  2.1900215412967E-01
    48  4.7000000000000E-01  1.4592617500530E+00  2.7239493300862E-01
    49  4.8000000000000E-01  1.4292934467116E+00  3.2615836584672E-01
    50  4.9000000000000E-01  1.3972334273597E+00  3.8014474380314E-01
    51  5.0000000000000E-01  1.3631849620560E+00  4.3422857706041E-01
    52  5.1000000000000E-01  1.3272513436235E+00  4.8830700025417E-01
    53  5.2000000000000E-01  1.2895356324223E+00  5.4229941987948E-01
    54  5.3000000000000E-01  1.2501405449652E+00  5.9614640357120E-01
    55  5.4000000000000E-01  1.2091684848425E+00  6.4980783107156E-01
    56  5.5000000000000E-01  1.1667217102316E+00  7.0326034651831E-01
    57  5.6000000000000E-01  1.1229026281666E+00  7.5649417092749E-01
    58  5.7000000000000E-01  1.0778142018318E+00  8.0950935192419E-01
    59  5.8000000000000E-01  1.0315604535299E+00  8.6231154442623E-01
    60  5.9000000000000E-01  9.8424704274628E-01  9.1490743067468E-01
    61  6.0000000000000E-01  9.3598189598602E-01  9.6729990033596E-01
    62  6.1000000000000E-01  8.8687586285967E-01  1.0194831210188E+00
    63  6.2000000000000E-01  8.3704337132229E-01  1.0714376361746E+00
    64  6.3000000000000E-01  7.8660305406294E-01  1.1231256307490E+00
    65  6.4000000000000E-01  7.3567831784479E-01  1.1744865049797E+00
    66  6.5000000000000E-01  6.8439782812446E-01  1.2254328933149E+00
    67  6.6000000000000E-01  6.3289588253723E-01  1.2758472585645E+00
    68  6.7000000000000E-01  5.8131264880731E-01  1.3255791811768E+00
    69  6.8000000000000E-01  5.2979424529651E-01  1.3744434501339E+00
    70  6.9000000000000E-01  4.7849264569200E-01  1.4222190456147E+00
    71  7.0000000000000E-01  4.2756539318866E-01  1.4686490846175E+00
    72  7.1000000000000E-01  3.7717511386331E-01  1.5134417795453E+00
    73  7.2000000000000E-01  3.2748882367486E-01  1.5562724367897E+00
    74  7.3000000000000E-01  2.7867702855013E-01  1.5967864981033E+00
    75  7.4000000000000E-01  2.3091262221775E-01  1.6346036025608E+00
    76  7.5000000000000E-01  1.8436959171190E-01  1.6693226217469E+00
    77  7.6000000000000E-01  1.3922154565984E-01  1.7005275960577E+00
    78  7.7000000000000E-01  9.5640085468853E-02  1.7277944762425E+00
    79  7.8000000000000E-01  5.3793044215796E-02  1.7506985521229E+00
    80  7.9000000000000E-01  1.3842622299349E-02  1.7688224303483E+00
    81  8.0000000000000E-01 -2.4056547368807E-02  1.7817644056009E+00
    82  8.1000000000000E-01 -5.9759368782269E-02  1.7891470553001E+00
    83  8.2000000000000E-01 -9.3132248666985E-02  1.7906258769788E+00
    84  8.3000000000000E-01 -1.2405501896629E-01  1.7858977804410E+00
    85  8.4000000000000E-01 -1.5242277553565E-01  1.7747092438014E+00
    86  8.5000000000000E-01 -1.7814759279048E-01  1.7568639437149E+00
    87  8.6000000000000E-01 -2.0116007514741E-01  1.7322296755907E+00
    88  8.7000000000000E-01 -2.2141070809765E-01  1.7007443893234E+00
    89  8.8000000000000E-01 -2.3887097462595E-01  1.6624211799264E+00
    90  8.9000000000000E-01 -2.5353420639520E-01  1.6173520902093E+00
    91  9.0000000000000E-01 -2.6541614358995E-01  1.5657106039750E+00
    92  9.1000000000000E-01 -2.7455518246888E-01  1.5077527327231E+00
    93  9.2000000000000E-01 -2.8101229541621E-01  1.4438166260627E+00
    94  9.3000000000000E-01 -2.8487061448992E-01  1.3743206653947E+00
    95  9.4000000000000E-01 -2.8623467601280E-01  1.2997600313258E+00
    96  9.5000000000000E-01 -2.8522933050338E-01  1.2207017670680E+00
    97  9.6000000000000E-01 -2.8199832905174E-01  1.1377783920655E+00
    98  9.7000000000000E-01 -2.7670260396462E-01  1.0516801515967E+00
    99  9.8000000000000E-01 -2.6951826798363E-01  9.6314601839728E-01
   100  9.9000000000000E-01 -2.6063436247542E-01  8.7295359077957E-01
   101  1.0000000000000E+00 -2.5025039056259E-01  7.8190805760424E-01
   102  1.0100000000000E+00 -2.3857367608125E-01  6.9083042321475E-01
   103  1.0200000000000E+00 -2.2581659339488E-01  6.0054520449734E-01
   104  1.0300000000000E+00 -2.1219371636305E-01  5.1186782711416E-01
   105  1.0400000000000E+00 -1.9791893707452E-01  4.2559195829111E-01
   106  1.0500000000000E+00 -1.8320260624040E-01  3.4247701901605E-01
   107  1.0600000000000E+00 -1.6824874736234E-01  2.6323611893023E-01
   108  1.0700000000000E+00 -1.5325239592373E-01  1.8852465249278E-01
   109  1.0800000000000E+00 -1.3839711289664E-01  1.1892978516534E-01
   110  1.0900000000000E+00 -1.2385271885468E-01  5.4961043604959E-02
   111  1.1000000000000E+00 -1.0977329095492E-01 -2.9577957177469E-03
   112  1.1100000000000E+00 -9.6295460116072E-02 -5.4495348884254E-02
   113  1.1200000000000E+00 -8.3537039913734E-02 -9.9417655181337E-02
   114  1.1300000000000E+00 -7.1596012213920E-02 -1.3759148446433E-01
   115  1.1400000000000E+00 -6.0549887435735E-02 -1.6898584369449E-01
   116  1.1500000000000E+00 -5.0455449788107E-02 -1.9367164105959E-01
   117  1.1600000000000E+00 -4.1348889944109E-02 -2.1181950355251E-01
   118  1.1700000000000E+00 -3.3246319650253E-02 -2.2369578168157E-01
   119  1.1800000000000E+00 -2.6144654779330E-02 -2.2965681282653E-01
   120  1.1900000000000E+00 -2.0022845623289E-02 -2.3014155121713E-01
   121  1.2000000000000E+00 -1.4843425801090E-02 -2.2566270753626E-01
   122  1.2100000000000E+00 -1.0554344340890E-02 -2.1679657324520E-01
   123  1.2200000000000E+00 -7.0910393009910E-03 -2.0417173382937E-01
   124  1.2300000000000E+00 -4.3787059422973E-03 -1.8845690021885E-01
   125  1.2400000000000E+00 -2.3347080461789E-03 -1.7034810823190E-01
   126  1.2500000000000E+00 -8.7107756381569E-04 -1.5055555165172E-01
   127  1.2600000000000E+00  1.0295448827744E-04 -1.2979032489495E-01
   128  1.2700000000000E+00  6.7844747106140E-04 -1.0875133511300E-01
   129  1.2800000000000E+00  9.4436300470529E-04 -8.8112795858462E-02
   130  1.2900000000000E+00  9.8421407950301E-04 -6.8508934406831E-02
   131  1.3000000000000E+00  8.6314078553509E-04 -5.0486920353399E-02
   132  1.3100000000000E+00  6.5251970912468E-04 -3.4583203077717E-02
   133  1.3200000000000E+00  4.1992862094532E-04 -2.1288760030867E-02
   134  1.3300000000000E+00  2.1671081611097E-04 -1.0999160314093E-02
   135  1.3400000000000E+00  7.5140332635023E-05 -3.9935831929370E-03
   136  1.3500000000000E+00  8.4679279500353E-06 -4.9797846094560E-04
   137  1.3600000000000E+00 -7.2138798705016E-07  4.5640404489139E-05
   138  1.3700000000000E+00  1.2974956074583E-07 -7.7645143355157E-06
   139  1.38  0. -0.
   140  1.39  0.  0.
   141  1.40  0.  0.
   142  1.41  0.  0.
   143  1.42  0.  0.
   144  1.43  0.  0.
   145  1.44  0.  0.
   146  1.45  0.  0.
   147  1.46  0.  0.
   148  1.47  0.  0.
   149  1.48  0.  0.
   150  1.49  0.  0.
   151  1.50  0.  0.
   152  1.51  0.  0.
   153  1.52  0.  0.
   154  1.53  0.  0.
   155  1.54  0.  0.
   156  1.55  0.  0.
   157  1.56  0.  0.
   158  1.57  0.  0.
   159  1.58  0.  0.
   160  1.59  0.  0.
   161  1.60  0.  0.
   162  1.61  0.  0.
   163  1.62  0.  0.
   164  1.63  0.  0.
   165  1.64  0.  0.
   166  1.65  0.  0.
   167  1.66  0.  0.
   168  1.67  0.  0.
   169  1.68  0.  0.
   170  1.69  0.  0.
   171  1.70  0.  0.
   172  1.71  0.  0.
   173  1.72  0.  0.
   174  1.73  0.  0.
   175  1.74  0.  0.
   176  1.75  0.  0.
   177  1.76  0.  0.
   178  1.77  0.  0.
   179  1.78  0.  0.
   180  1.79  0.  0.
   181  1.80  0.  0.
   182  1.81  0.  0.
   183  1.82  0.  0.
   184  1.83  0.  0.
   185  1.84  0.  0.
   186  1.85  0.  0.
   187  1.86  0.  0.
   188  1.87  0.  0.
   189  1.88  0.  0.
   190  1.89  0.  0.
   191  1.90  0.  0.
   192  1.91  0.  0.
   193  1.92  0.  0.
   194  1.93  0.  0.
   195  1.94  0.  0.
   196  1.95  0.  0.
   197  1.96  0.  0.
   198  1.97  0.  0.
   199  1.98  0.  0.
   200  1.99  0.  0.
   201  2.00  0.  0.
   202  2.01  0.  0.
   203  2.02  0.  0.
   204  2.03  0.  0.
   205  2.04  0.  0.
   206  2.05  0.  0.
   207  2.06  0.  0.
   208  2.07  0.  0.
   209  2.08  0.  0.
   210  2.09  0.  0.
   211  2.10  0.  0.
   212  2.11  0.  0.
   213  2.12  0.  0.
   214  2.13  0.  0.
   215  2.14  0.  0.
   216  2.15  0.  0.
   217  2.16  0.  0.
   218  2.17  0.  0.
   219  2.18  0.  0.
   220  2.19  0.  0.
   221  2.20  0.  0.
   222  2.21  0.  0.
   223  2.22  0.  0.
   224  2.23  0.  0.
   225  2.24  0.  0.
   226  2.25  0.  0.
   227  2.26  0.  0.
   228  2.27  0.  0.
   229  2.28  0.  0.
   230  2.29  0.  0.
   231  2.30  0.  0.
   232  2.31  0.  0.
   233  2.32  0.  0.
   234  2.33  0.  0.
   235  2.34  0.  0.
   236  2.35  0.  0.
   237  2.36  0.  0.
   238  2.37  0.  0.
   239  2.38  0.  0.
   240  2.39  0.  0.
   241  2.40  0.  0.
   242  2.41  0.  0.
   243  2.42  0.  0.
   244  2.43  0.  0.
   245  2.44  0.  0.
   246  2.45  0.  0.
   247  2.46  0.  0.
   248  2.47  0.  0.
   249  2.48  0.  0.
   250  2.49  0.  0.
   251  2.50  0.  0.
   252  2.51  0.  0.
   253  2.52  0.  0.
   254  2.53  0.  0.
   255  2.54  0.  0.
   256  2.55  0.  0.
   257  2.56  0.  0.
   258  2.57  0.  0.
   259  2.58  0.  0.
   260  2.59  0.  0.
   261  2.60  0.  0.
   262  2.61  0.  0.
   263  2.62  0.  0.
   264  2.63  0.  0.
   265  2.64  0.  0.
   266  2.65  0.  0.
   267  2.66  0.  0.
   268  2.67  0.  0.
   269  2.68  0.  0.
   270  2.69  0.  0.
   271  2.70  0.  0.
   272  2.71  0.  0.
   273  2.72  0.  0.
   274  2.73  0.  0.
   275  2.74  0.  0.
   276  2.75  0.  0.
   277  2.76  0.  0.
   278  2.77  0.  0.
   279  2.78  0.  0.
   280  2.79  0.  0.
   281  2.80  0.  0.
   282  2.81  0.  0.
   283  2.82  0.  0.
   284  2.83  0.  0.
   285  2.84  0.  0.
   286  2.85  0.  0.
   287  2.86  0.  0.
   288  2.87  0.  0.
   289  2.88  0.  0.
   290  2.89  0.  0.
   291  2.90  0.  0.
   292  2.91  0.  0.
   293  2.92  0.  0.
   294  2.93  0.  0.
   295  2.94  0.  0.
   296  2.95  0.  0.
   297  2.96  0.  0.
   298  2.97  0.  0.
   299  2.98  0.  0.
   300  2.99  0.  0.
   301  3.00  0.  0.
   302  3.01  0.  0.
   303  3.02  0.  0.
   304  3.03  0.  0.
   305  3.04  0.  0.
   306  3.05  0.  0.
   307  3.06  0.  0.
   308  3.07  0.  0.
   309  3.08  0.  0.
   310  3.09  0.  0.
   311  3.10  0.  0.
   312  3.11  0.  0.
   313  3.12  0.  0.
   314  3.13  0.  0.
   315  3.14  0.  0.
   316  3.15  0.  0.
   317  3.16  0.  0.
   318  3.17  0.  0.
   319  3.18  0.  0.
   320  3.19  0.  0.
   321  3.20  0.  0.
   322  3.21  0.  0.
   323  3.22  0.  0.
   324  3.23  0.  0.
   325  3.24  0.  0.
   326  3.25  0.  0.
   327  3.26  0.  0.
   328  3.27  0.  0.
   329  3.28  0.  0.
   330  3.29  0.  0.
   331  3.30  0.  0.
   332  3.31  0.  0.
   333  3.32  0.  0.
   334  3.33  0.  0.
   335  3.34  0.  0.
   336  3.35  0.  0.
   337  3.36  0.  0.
   338  3.37  0.  0.
   339  3.38  0.  0.
   340  3.39  0.  0.
   341  3.40  0.  0.
   342  3.41  0.  0.
   343  3.42  0.  0.
   344  3.43  0.  0.
   345  3.44  0.  0.
   346  3.45  0.  0.
   347  3.46  0.  0.
   348  3.47  0.  0.
   349  3.48  0.  0.
   350  3.49  0.  0.
   351  3.50  0.  0.
   352  3.51  0.  0.
   353  3.52  0.  0.
   354  3.53  0.  0.
   355  3.54  0.  0.
   356  3.55  0.  0.
   357  3.56  0.  0.
   358  3.57  0.  0.
   359  3.58  0.  0.
   360  3.59  0.  0.
   361  3.60  0.  0.
   362  3.61  0.  0.
   363  3.62  0.  0.
   364  3.63  0.  0.
   365  3.64  0.  0.
   366  3.65  0.  0.
   367  3.66  0.  0.
   368  3.67  0.  0.
   369  3.68  0.  0.
   370  3.69  0.  0.
   371  3.70  0.  0.
   372  3.71  0.  0.
   373  3.72  0.  0.
   374  3.73  0.  0.
   375  3.74  0.  0.
   376  3.75  0.  0.
   377  3.76  0.  0.
   378  3.77  0.  0.
   379  3.78  0.  0.
   380  3.79  0.  0.
   381  3.80  0.  0.
   382  3.81  0.  0.
   383  3.82  0.  0.
   384  3.83  0.  0.
   385  3.84  0.  0.
   386  3.85  0.  0.
   387  3.86  0.  0.
   388  3.87  0.  0.
   389  3.88  0.  0.
   390  3.89  0.  0.
   391  3.90  0.  0.
   392  3.91  0.  0.
   393  3.92  0.  0.
   394  3.93  0.  0.
   395  3.94  0.  0.
   396  3.95  0.  0.
   397  3.96  0.  0.
   398  3.97  0.  0.
   399  3.98  0.  0.
   400  3.99  0.  0.
   401  4.00  0.  0.
   402  4.01  0.  0.
   403  4.02  0.  0.
   404  4.03  0.  0.
   405  4.04  0.  0.
   406  4.05  0.  0.
   407  4.06  0.  0.
   408  4.07  0.  0.
   409  4.08  0.  0.
   410  4.09  0.  0.
   411  4.10  0.  0.
   412  4.11  0.  0.
   413  4.12  0.  0.
   414  4.13  0.  0.
   415  4.14  0.  0.
   416  4.15  0.  0.
   417  4.16  0.  0.
   418  4.17  0.  0.
   419  4.18  0.  0.
   420  4.19  0.  0.
   421  4.20  0.  0.
   422  4.21  0.  0.
   423  4.22  0.  0.
   424  4.23  0.  0.
   425  4.24  0.  0.
   426  4.25  0.  0.
   427  4.26  0.  0.
   428  4.27  0.  0.
   429  4.28  0.  0.
   430  4.29  0.  0.
   431  4.30  0.  0.
   432  4.31  0.  0.
   433  4.32  0.  0.
   434  4.33  0.  0.
   435  4.34  0.  0.
   436  4.35  0.  0.
   437  4.36  0.  0.
   438  4.37  0.  0.
   439  4.38  0.  0.
   440  4.39  0.  0.
   441  4.40  0.  0.
   442  4.41  0.  0.
   443  4.42  0.  0.
   444  4.43  0.  0.
   445  4.44  0.  0.
   446  4.45  0.  0.
   447  4.46  0.  0.
   448  4.47  0.  0.
   449  4.48  0.  0.
   450  4.49  0.  0.
   451  4.50  0.  0.
   452  4.51  0.  0.
   453  4.52  0.  0.
   454  4.53  0.  0.
   455  4.54  0.  0.
   456  4.55  0.  0.
   457  4.56  0.  0.
   458  4.57  0.  0.
   459  4.58  0.  0.
   460  4.59  0.  0.
   461  4.60  0.  0.
   462  4.61  0.  0.
   463  4.62  0.  0.
   464  4.63  0.  0.
   465  4.64  0.  0.
   466  4.65  0.  0.
   467  4.66  0.  0.
   468  4.67  0.  0.
   469  4.68  0.  0.
   470  4.69  0.  0.
   471  4.70  0.  0.
   472  4.71  0.  0.
   473  4.72  0.  0.
   474  4.73  0.  0.
   475  4.74  0.  0.
   476  4.75  0.  0.
   477  4.76  0.  0.
   478  4.77  0.  0.
   479  4.78  0.  0.
   480  4.79  0.  0.
   481  4.80  0.  0.
   482  4.81  0.  0.
   483  4.82  0.  0.
   484  4.83  0.  0.
   485  4.84  0.  0.
   486  4.85  0.  0.
   487  4.86  0.  0.
   488  4.87  0.  0.
   489  4.88  0.  0.
   490  4.89  0.  0.
   491  4.90  0.  0.
   492  4.91  0.  0.
   493  4.92  0.  0.
   494  4.93  0.  0.
   495  4.94  0.  0.
   496  4.95  0.  0.
   497  4.96  0.  0.
   498  4.97  0.  0.
   499  4.98  0.  0.
   500  4.99  0.  0.
   501  5.00  0.  0.
   502  5.01  0.  0.
   503  5.02  0.  0.
   504  5.03  0.  0.
   505  5.04  0.  0.
   506  5.05  0.  0.
   507  5.06  0.  0.
   508  5.07  0.  0.
   509  5.08  0.  0.
   510  5.09  0.  0.
   511  5.10  0.  0.
   512  5.11  0.  0.
   513  5.12  0.  0.
   514  5.13  0.  0.
   515  5.14  0.  0.
   516  5.15  0.  0.
   517  5.16  0.  0.
   518  5.17  0.  0.
   519  5.18  0.  0.
   520  5.19  0.  0.
   521  5.20  0.  0.
   522  5.21  0.  0.
   523  5.22  0.  0.
   524  5.23  0.  0.
   525  5.24  0.  0.
   526  5.25  0.  0.
   527  5.26  0.  0.
   528  5.27  0.  0.
   529  5.28  0.  0.
   530  5.29  0.  0.
   531  5.30  0.  0.
   532  5.31  0.  0.
   533  5.32  0.  0.
   534  5.33  0.  0.
   535  5.34  0.  0.
   536  5.35  0.  0.
   537  5.36  0.  0.
   538  5.37  0.  0.
   539  5.38  0.  0.
   540  5.39  0.  0.
   541  5.40  0.  0.
   542  5.41  0.  0.
   543  5.42  0.  0.
   544  5.43  0.  0.
   545  5.44  0.  0.
   546  5.45  0.  0.
   547  5.46  0.  0.
   548  5.47  0.  0.
   549  5.48  0.  0.
   550  5.49  0.  0.
   551  5.50  0.  0.
   552  5.51  0.  0.
   553  5.52  0.  0.
   554  5.53  0.  0.
   555  5.54  0.  0.
   556  5.55  0.  0.
   557  5.56  0.  0.
   558  5.57  0.  0.
   559  5.58  0.  0.
   560  5.59  0.  0.
   561  5.60  0.  0.
   562  5.61  0.  0.
   563  5.62  0.  0.
   564  5.63  0.  0.
   565  5.64  0.  0.
   566  5.65  0.  0.
   567  5.66  0.  0.
   568  5.67  0.  0.
   569  5.68  0.  0.
   570  5.69  0.  0.
   571  5.70  0.  0.
   572  5.71  0.  0.
   573  5.72  0.  0.
   574  5.73  0.  0.
   575  5.74  0.  0.
   576  5.75  0.  0.
   577  5.76  0.  0.
   578  5.77  0.  0.
   579  5.78  0.  0.
   580  5.79  0.  0.
   581  5.80  0.  0.
   582  5.81  0.  0.
   583  5.82  0.  0.
   584  5.83  0.  0.
   585  5.84  0.  0.
   586  5.85  0.  0.
   587  5.86  0.  0.
   588  5.87  0.  0.
   589  5.88  0.  0.
   590  5.89  0.  0.
   591  5.90  0.  0.
   592  5.91  0.  0.
   593  5.92  0.  0.
   594  5.93  0.  0.
   595  5.94  0.  0.
   596  5.95  0.  0.
   597  5.96  0.  0.
   598  5.97  0.  0.
   599  5.98  0.  0.
   600  5.99  0.  0.
   1                         7.1365383763344E+00  9.7622128066730E-01
     1  0.0000000000000E+00 -5.6497164724334E-09  1.4780509198509E-08
     2  1.0000000000000E-02  1.7012416894432E-03 -6.0100855033131E-04
     3  2.0000000000000E-02  6.8015549833094E-03 -2.4077117519724E-03
     4  3.0000000000000E-02  1.5290603711610E-02 -5.4308478627421E-03
     5  4.0000000000000E-02  2.7150828356900E-02 -9.6873420802910E-03
     6  5.0000000000000E-02  4.2356959661722E-02 -1.5198881383888E-02
     7  6.0000000000000E-02  6.0875362244353E-02 -2.1989983758404E-02
     8  7.0000000000000E-02  8.2663231975577E-02 -3.0085624088881E-02
     9  8.0000000000000E-02  1.0766767651892E-01 -3.9508493794562E-02
    10  9.0000000000000E-02  1.3582471327423E-01 -5.0275983898055E-02
    11  1.0000000000000E-01  1.6705822285348E-01 -6.2396991339877E-02
    12  1.1000000000000E-01  2.0127889904627E-01 -7.5868655656916E-02
    13  1.2000000000000E-01  2.3838323791652E-01 -9.0673137427005E-02
    14  1.3000000000000E-01  2.7825260915683E-01 -1.0677455100094E-01
    15  1.4000000000000E-01  3.2075245208956E-01 -1.2411616194509E-01
    16  1.5000000000000E-01  3.6573163675406E-01 -1.4261795433206E-01
    17  1.6000000000000E-01  4.1302202739674E-01 -1.6217466466315E-01
    18  1.7000000000000E-01  4.6243828145923E-01 -1.8265436798336E-01
    19  1.8000000000000E-01  5.1377791193942E-01 -2.0389768793747E-01
    20  1.9000000000000E-01  5.6682163490985E-01 -2.2571768646399E-01
    21  2.0000000000000E-01  6.2133401717040E-01 -2.4790047094583E-01
    22  2.1000000000000E-01  6.7706443165857E-01 -2.7020653739847E-01
    23  2.2000000000000E-01  7.3374832052982E-01 -2.9237284818267E-01
    24  2.3000000000000E-01  7.9110875795046E-01 -3.1411562231576E-01
    25  2.4000000000000E-01  8.4885829682185E-01 -3.3513379626842E-01
    26  2.5000000000000E-01  9.0670107608209E-01 -3.5511309372199E-01
    27  2.6000000000000E-01  9.6433515811110E-01 -3.7373062465656E-01
    28  2.7000000000000E-01  1.0214550592883E+00 -3.9065991784751E-01
    29  2.8000000000000E-01  1.0777544310948E+00 -4.0557627682926E-01
    30  2.9000000000000E-01  1.1329288444717E+00 -4.1816233804834E-01
    31  3.0000000000000E-01  1.1866786265757E+00 -4.2811370161452E-01
    32  3.1000000000000E-01  1.2387116967196E+00 -4.3514450003665E-01
    33  3.2000000000000E-01  1.2887463472227E+00 -4.3899276878077E-01
    34  3.3000000000000E-01  1.3365139151705E+00 -4.3942548450904E-01
    35  3.4000000000000E-01  1.3817612927021E+00 -4.3624314244828E-01
    36  3.5000000000000E-01  1.4242532263845E+00 -4.2928375340918E-01
    37  3.6000000000000E-01  1.4637743604338E+00 -4.1842615334353E-01
    38  3.7000000000000E-01  1.5001309839157E+00 -4.0359253371928E-01
    39  3.8000000000000E-01  1.5331524484766E+00 -3.8475011905283E-01
    40  3.9000000000000E-01  1.5626922304716E+00 -3.6191193823769E-01
    41  4.0000000000000E-01  1.5886286193894E+00 -3.3513665835255E-01
    42  4.1000000000000E-01  1.6108650230352E+00 -3.0452747287241E-01
    43  4.2000000000000E-01  1.6293298888027E+00 -2.7023006005826E-01
    44  4.3000000000000E-01  1.6439762493269E+00 -2.3242965115050E-01
    45  4.4000000000000E-01  1.6547809096356E+00 -1.9134727121994E-01
    46  4.5000000000000E-01  1.6617433013747E+00 -1.4723523752080E-01
    47  4.6000000000000E-01  1.6648840375614E+00 -1.0037202035243E-01
    48  4.7000000000000E-01  1.6642432084034E+00 -5.1056589214586E-02
    49  4.8000000000000E-01  1.6598784648290E+00  3.9761806670093E-04
    50  4.9000000000000E-01  1.6518629413263E+00  5.3668953994528E-02
    51  5.0000000000000E-01  1.6402830733635E+00  1.0843389069822E-01
    52  5.1000000000000E-01  1.6252363669295E+00  1.6437325878701E-01
    53  5.2000000000000E-01  1.6068291785419E+00  2.2117823485003E-01
    54  5.3000000000000E-01  1.5851745633568E+00  2.7855592105252E-01
    55  5.4000000000000E-01  1.5603902468073E+00  3.3623436878889E-01
    56  5.5000000000000E-01  1.5325967715102E+00  3.9396691086729E-01
    57  5.6000000000000E-01  1.5019158661094E+00  4.5153568296745E-01
    58  5.7000000000000E-01  1.4684690763716E+00  5.0875423478500E-01
    59  5.8000000000000E-01  1.4323766913733E+00  5.6546915390368E-01
    60  5.9000000000000E-01  1.3937569891837E+00  6.2156065049710E-01
    61  6.0000000000000E-01  1.3527258172797E+00  6.7694207785301E-01
    62  6.1000000000000E-01  1.3093965132387E+00  7.3155839177850E-01
    63  6.2000000000000E-01  1.2638801612977E+00  7.8538358048667E-01
    64  6.3000000000000E-01  1.2162861703931E+00  8.3841712485790E-01
    65  6.4000000000000E-01  1.1667231495687E+00  8.9067957628387E-01
    66  6.5000000000000E-01  1.1153000474142E+00  9.4220736491743E-01
    67  6.6000000000000E-01  1.0621275137210E+00  9.9304697437851E-01
    68  6.7000000000000E-01  1.0073194340538E+00  1.0432486391623E+00
    69  6.8000000000000E-01  9.5099458164551E-01  1.0928597375816E+00
    70  6.9000000000000E-01  8.9327832611025E-01  1.1419180655562E+00
    71  7.0000000000000E-01  8.3430433509827E-01  1.1904451845300E+00
    72  7.1000000000000E-01  7.7421620329109E-01  1.2384400399587E+00
    73  7.2000000000000E-01  7.1316894314189E-01  1.2858730449822E+00
    74  7.3000000000000E-01  6.5133027353426E-01  1.3326808170146E+00
    75  7.4000000000000E-01  5.8888164605127E-01  1.3787617431198E+00
    76  7.5000000000000E-01  5.2601895376459E-01  1.4239725333816E+00
    77  7.6000000000000E-01  4.6295287426863E-01  1.4681259003341E+00
    78  7.7000000000000E-01  3.9990880695764E-01  1.5109894773371E+00
    79  7.8000000000000E-01  3.3712637409473E-01  1.5522860600863E+00
    80  7.9000000000000E-01  2.7485846583421E-01  1.5916952238952E+00
    81  8.0000000000000E-01  2.1336982078712E-01  1.6288563356904E+00
    82  8.1000000000000E-01  1.5293514569245E-01  1.6633729446149E+00
    83  8.2000000000000E-01  9.3836789984035E-02  1.6948184995807E+00
    84  8.3000000000000E-01  3.6362003224025E-02  1.7227433069135E+00
    85  8.4000000000000E-01 -1.9200184799149E-02  1.7466826072675E+00
    86  8.5000000000000E-01 -7.2562410337921E-02  1.7661656191277E+00
    87  8.6000000000000E-01 -1.2344268712386E-01  1.7807253672708E+00
    88  8.7000000000000E-01 -1.7156831278126E-01  1.7899090893199E+00
    89  8.8000000000000E-01 -2.1667989248952E-01  1.7932889926717E+00
    90  8.9000000000000E-01 -2.5853539632553E-01  1.7904731182269E+00
    91  9.0000000000000E-01 -2.9691416274340E-01  1.7811160569823E+00
    92  9.1000000000000E-01 -3.3162075868013E-01  1.7649292610322E+00
    93  9.2000000000000E-01 -3.6248860690292E-01  1.7416906920946E+00
    94  9.3000000000000E-01 -3.8938329347875E-01  1.7112535584255E+00
    95  9.4000000000000E-01 -4.1220547263715E-01  1.6735539048401E+00
    96  9.5000000000000E-01 -4.3089329275378E-01  1.6286168403272E+00
    97  9.6000000000000E-01 -4.4542427558771E-01  1.5765612130556E+00
    98  9.7000000000000E-01 -4.5581659110197E-01  1.5176025729487E+00
    99  9.8000000000000E-01 -4.6212968197266E-01  1.4520542968103E+00
   100  9.9000000000000E-01 -4.6446420499925E-01  1.3803267894922E+00
   101  1.0000000000000E+00 -4.6296127077747E-01  1.3029247159398E+00
   102  1.0100000000000E+00 -4.5780097787749E-01  1.2204422622418E+00
   103  1.0200000000000E+00 -4.4920025304349E-01  1.1335564680462E+00
   104  1.0300000000000E+00 -4.3741002423648E-01  1.0430187168450E+00
   105  1.0400000000000E+00 -4.2271176833029E-01  9.4964451366694E-01
   106  1.0500000000000E+00 -4.0541348959155E-01  8.5430172063924E-01
   107  1.0600000000000E+00 -3.8584519835141E-01  7.5789745861035E-01
   108  1.0700000000000E+00 -3.6435397122819E-01  6.6136391675827E-01
   109  1.0800000000000E+00 -3.4129868455189E-01  5.6564334089488E-01
   110  1.0900000000000E+00 -3.1704452101844E-01  4.7167249429509E-01
   111  1.1000000000000E+00 -2.9195735586181E-01  3.8036690176039E-01
   112  1.1100000000000E+00 -2.6639813276461E-01  2.9260519769143E-01
   113  1.1200000000000E+00 -2.4071734124511E-01  2.0921390194777E-01
   114  1.1300000000000E+00 -2.1524970627417E-01  1.3095294300371E-01
   115  1.1400000000000E+00 -1.9030919737853E-01  5.8502236344299E-02
   116  1.1500000000000E+00 -1.6618445855361E-01 -7.5503925574445E-03
   117  1.1600000000000E+00 -1.4313475199260E-01 -6.6719676819964E-02
   118  1.1700000000000E+00 -1.2138649819535E-01 -1.1863153600164E-01
   119  1.1800000000000E+00 -1.0113048252147E-01 -1.6302966839742E-01
   120  1.1900000000000E+00 -8.2519784178327E-02 -1.9977995488491E-01
   121  1.2000000000000E+00 -6.5668468004615E-02 -2.2887256775561E-01
   122  1.2100000000000E+00 -5.0651062896019E-02 -2.5042172673072E-01
   123  1.2200000000000E+00 -3.7502833386162E-02 -2.6466309537270E-01
   124  1.2300000000000E+00 -2.6220833330266E-02 -2.7194886264302E-01
   125  1.2400000000000E+00 -1.6765713213981E-02 -2.7274060534195E-01
   126  1.2500000000000E+00 -9.0642355702661E-03 -2.6760007688560E-01
   127  1.2600000000000E+00 -3.0124369832102E-03 -2.5717811443970E-01
   128  1.2700000000000E+00  1.5206396723732E-03 -2.4220189944351E-01
   129  1.2800000000000E+00  4.6887323152155E-03 -2.2346084472261E-01
   130  1.2900000000000E+00  6.6637670139650E-03 -2.0179141431317E-01
   131  1.3000000000000E+00  7.6309934219129E-03 -1.7806119906641E-01
   132  1.3100000000000E+00  7.7839851971141E-03 -1.5315266896599E-01
   133  1.3200000000000E+00  7.3188655568854E-03 -1.2794404192939E-01
   134  1.3300000000000E+00  6.4260829020033E-03 -1.0328012548775E-01
   135  1.3400000000000E+00  5.2782464654358E-03 -7.9937783480060E-02
   136  1.3500000000000E+00  4.0171372710792E-03 -5.8593077472402E-02
   137  1.3600000000000E+00  2.7864017723788E-03 -3.9884204265774E-02
   138  1.3700000000000E+00  1.7040964581768E-03 -2.4351721417356E-02
   139  1.3800000000000E+00  8.5611250122058E-04 -1.2421551291875E-02
   140  1.3900000000000E+00  2.9217457888111E-04 -4.3807686405037E-03
   141  1.4000000000000E+00  3.1494767427094E-05 -4.9944967414713E-04
   142  1.4100000000000E+00 -3.2499494108995E-06  5.3161167095881E-05
   143  1.4200000000000E+00  6.3949923723380E-07 -1.0177990175166E-05
   144  1.43 -0.  0.
   145  1.44  0.  0.
   146  1.45  0.  0.
   147  1.46  0.  0.
   148  1.47  0.  0.
   149  1.48  0.  0.
   150  1.49  0.  0.