Ru    ONCVPSP-4.0.1  r_core=   1.35510   1.40462   1.30733
     44.0000     16.0000      250925    zatom,zion,pspd
     8   -1012   2     4   600     0    pspcod,pspxc,lmax,lloc,mmax,r2well
  5.99000000  7.00000000  0.00000000    rchrg fchrg qchrg
     2     2     2     0    nproj
     3     1           extension_switch
     4     4     0    nprojso
   0                         1.4232241862460E+01  1.0673283097031E+00
     1  0.0000000000000E+00  2.1801478400363E-09 -9.3528435274326E-09
     2  1.0000000000000E-02  6.7500091121059E-02 -2.3748251488777E-02
     3  2.0000000000000E-02  1.3491495206620E-01 -4.7521966294072E-02
     4  3.0000000000000E-02  2.0215856955955E-01 -7.1343004359438E-02
     5  4.0000000000000E-02  2.6914338820651E-01 -9.5226118245852E-02
     6  5.0000000000000E-02  3.3577959905896E-01 -1.1917564536205E-01
     7  6.0000000000000E-02  4.0197449812329E-01 -1.4318248839805E-01
     8  7.0000000000000E-02  4.6763193548885E-01 -1.6722146870455E-01
     9  8.0000000000000E-02  5.3265187357410E-01 -1.9124912800803E-01
    10  9.0000000000000E-02  5.9693007036033E-01 -2.1520204259359E-01
    11  1.0000000000000E-01  6.6035790047077E-01 -2.3899570119859E-01
    12  1.1000000000000E-01  7.2282232362572E-01 -2.6252398365337E-01
    13  1.2000000000000E-01  7.8420600644257E-01 -2.8565926212802E-01
    14  1.3000000000000E-01  8.4438759983546E-01 -3.0825313106663E-01
    15  1.4000000000000E-01  9.0324217049231E-01 -3.3013775589943E-01
    16  1.5000000000000E-01  9.6064178115545E-01 -3.5112781481266E-01
    17  1.6000000000000E-01  1.0164562107962E+00 -3.7102299261448E-01
    18  1.7000000000000E-01  1.0705538023385E+00 -3.8961097144300E-01
    19  1.8000000000000E-01  1.1228024224370E+00 -4.0667085007325E-01
    20  1.9000000000000E-01  1.1730705150216E+00 -4.2197691222345E-01
    21  2.0000000000000E-01  1.2212282279556E+00 -4.3530265482264E-01
    22  2.1000000000000E-01  1.2671485902738E+00 -4.4642497992804E-01
    23  2.2000000000000E-01  1.3107087161118E+00 -4.5512844906094E-01
    24  2.3000000000000E-01  1.3517910106509E+00 -4.6120949630368E-01
    25  2.4000000000000E-01  1.3902843531960E+00 -4.6448049664063E-01
    26  2.5000000000000E-01  1.4260852328882E+00 -4.6477358875095E-01
    27  2.6000000000000E-01  1.4590988135199E+00 -4.6194415671902E-01
    28  2.7000000000000E-01  1.4892399054493E+00 -4.5587388281213E-01
    29  2.8000000000000E-01  1.5164338246646E+00 -4.4647329341295E-01
    30  2.9000000000000E-01  1.5406171215805E+00 -4.3368373215993E-01
    31  3.0000000000000E-01  1.5617381651025E+00 -4.1747870806561E-01
    32  3.1000000000000E-01  1.5797575707984E+00 -3.9786458152773E-01
    33  3.2000000000000E-01  1.5946484655881E+00 -3.7488056735937E-01
    34  3.3000000000000E-01  1.6063965851259E+00 -3.4859805085453E-01
    35  3.4000000000000E-01  1.6150002039051E+00 -3.1911923006156E-01
    36  3.5000000000000E-01  1.6204699019759E+00 -2.8657511444081E-01
    37  3.6000000000000E-01  1.6228281759377E+00 -2.5112292650881E-01
    38  3.7000000000000E-01  1.6221089054533E+00 -2.1294296851110E-01
    39  3.8000000000000E-01  1.6183566898487E+00 -1.7223503022298E-01
    40  3.9000000000000E-01  1.6116260723262E+00 -1.2921442628951E-01
    41  4.0000000000000E-01  1.6019806718499E+00 -8.4107761756108E-02
    42  4.1000000000000E-01  1.5894922448057E+00 -3.7148532329548E-02
    43  4.2000000000000E-01  1.5742397000307E+00  1.1427328779795E-02
    44  4.3000000000000E-01  1.5563080917141E+00  6.1385843017883E-02
    45  4.4000000000000E-01  1.5357876149636E+00  1.1249920351288E-01
    46  4.5000000000000E-01  1.5127726284962E+00  1.6454970599204E-01
    47  4.6000000000000E-01  1.4873607279560E+00  2.1733328862245E-01
    48  4.7000000000000E-01  1.4596518917959E+00  2.7066258455742E-01
    49  4.8000000000000E-01  1.4297477195248E+00  3.2436940228878E-01
    50  4.9000000000000E-01  1.3977507794616E+00  3.7830656255412E-01
    51  5.0000000000000E-01  1.3637640800082E+00  4.3234903623255E-01
    52  5.1000000000000E-01  1.3278906749394E+00  4.8639434502698E-01
    53  5.2000000000000E-01  1.2902334093782E+00  5.4036220538374E-01
    54  5.3000000000000E-01  1.2508948090834E+00  5.9419341559812E-01
    55  5.4000000000000E-01  1.2099771115139E+00  6.4784800594194E-01
    56  5.5000000000000E-01  1.1675824329554E+00  7.0130269144088E-01
    57  5.6000000000000E-01  1.1238130619075E+00  7.5454768614162E-01
    58  5.7000000000000E-01  1.0787718650301E+00  8.0758295585824E-01
    59  5.8000000000000E-01  1.0325627883453E+00  8.6041400301471E-01
    60  5.9000000000000E-01  9.8529143317446E-01  9.1304729186264E-01
    61  6.0000000000000E-01  9.3706568354929E-01  9.6548543466372E-01
    62  6.1000000000000E-01  8.8799635964847E-01  1.0177222690253E+00
    63  6.2000000000000E-01  8.3819787024113E-01  1.0697379631881E+00
    64  6.3000000000000E-01  7.8778883621694E-01  1.1214942894523E+00
    65  6.4000000000000E-01  7.3689265708706E-01  1.1729302059505E+00
    66  6.5000000000000E-01  6.8563799286812E-01  1.2239578835513E+00
    67  6.6000000000000E-01  6.3415913501754E-01  1.2744593078159E+00
    68  6.7000000000000E-01  5.8259624205627E-01  1.3242835757233E+00
    69  6.8000000000000E-01  5.3109541816321E-01  1.3732449934823E+00
    70  6.9000000000000E-01  4.7980861630447E-01  1.4211220654275E+00
    71  7.0000000000000E-01  4.2889335130575E-01  1.4676574450538E+00
    72  7.1000000000000E-01  3.7851221260662E-01  1.5125588980795E+00
    73  7.2000000000000E-01  3.2883217115960E-01  1.5555013044852E+00
    74  7.3000000000000E-01  2.8002367994932E-01  1.5961297022576E+00
    75  7.4000000000000E-01  2.3225957279554E-01  1.6340633506071E+00
    76  7.5000000000000E-01  1.8571377134904E-01  1.6689007652948E+00
    77  7.6000000000000E-01  1.4055981536708E-01  1.7002256539862E+00
    78  7.7000000000000E-01  9.6969236342940E-02  1.7276136558144E+00
    79  7.8000000000000E-01  5.5109799238671E-02  1.7506397671782E+00
    80  7.9000000000000E-01  1.5143641314899E-02  1.7688863157478E+00
    81  8.0000000000000E-01 -2.2774659243169E-02  1.7819513272275E+00
    82  8.1000000000000E-01 -5.8500049137807E-02  1.7894571150840E+00
    83  8.2000000000000E-01 -9.1898962101327E-02  1.7910589125866E+00
    84  8.3000000000000E-01 -1.2285123771660E-01  1.7864533594581E+00
    85  8.4000000000000E-01 -1.5125195656806E-01  1.7753866524289E+00
    86  8.5000000000000E-01 -1.7701315156795E-01  1.7576621702041E+00
    87  8.6000000000000E-01 -2.0006535639749E-01  1.7331473888321E+00
    88  8.7000000000000E-01 -2.2035895399633E-01  1.7017799131971E+00
    89  8.8000000000000E-01 -2.3786529090191E-01  1.6635724641995E+00
    90  8.9000000000000E-01 -2.5257752693761E-01  1.6186166789247E+00
    91  9.0000000000000E-01 -2.6451119421071E-01  1.5670856024169E+00
    92  9.1000000000000E-01 -2.7370444452484E-01  1.5092347741581E+00
    93  9.2000000000000E-01 -2.8021797003710E-01  1.4454018395437E+00
    94  9.3000000000000E-01 -2.8413458818173E-01  1.3760046459662E+00
    95  9.4000000000000E-01 -2.8555848841360E-01  1.3015378139941E+00
    96  9.5000000000000E-01 -2.8461414505835E-01  1.2225678058842E+00
    97  9.6000000000000E-01 -2.8144490734635E-01  1.1397265456222E+00
    98  9.7000000000000E-01 -2.7621128440949E-01  1.0537036761549E+00
    99  9.8000000000000E-01 -2.6908894948229E-01  9.6523756974336E-01
   100  9.9000000000000E-01 -2.6026649362839E-01  8.7510523576224E-01
   101  1.0000000000000E+00 -2.4994296486853E-01  7.8411129612438E-01
   102  1.0100000000000E+00 -2.3832523349045E-01  6.9307622123565E-01
   103  1.0200000000000E+00 -2.2562522845490E-01  6.0282403841834E-01
   104  1.0300000000000E+00 -2.1205709307140E-01  5.1416973960744E-01
   105  1.0400000000000E+00 -1.9783431042340E-01  4.2790662544756E-01
   106  1.0500000000000E+00 -1.8316685030526E-01  3.4479382838631E-01
   107  1.0600000000000E+00 -1.6825838965211E-01  2.6554425778494E-01
   108  1.0700000000000E+00 -1.5330365757997E-01  1.9081320537210E-01
   109  1.0800000000000E+00 -1.3848595420320E-01  1.2118783954339E-01
   110  1.0900000000000E+00 -1.2397488940227E-01  5.7177802267659E-02
   111  1.1000000000000E+00 -1.0992438369890E-01 -7.9289718697082E-04
   112  1.1100000000000E+00 -9.6470968472873E-02 -5.2392521293410E-02
   113  1.1200000000000E+00 -8.3732416964215E-02 -9.7386633521559E-02
   114  1.1300000000000E+00 -7.1806731022358E-02 -1.3564140634091E-01
   115  1.1400000000000E+00 -6.0771501452596E-02 -1.6712513050523E-01
   116  1.1500000000000E+00 -5.0683652284472E-02 -1.9190788405731E-01
   117  1.1600000000000E+00 -4.1579571426313E-02 -2.1015935691560E-01
   118  1.1700000000000E+00 -3.3475622225148E-02 -2.2214486466104E-01
   119  1.1800000000000E+00 -2.6369022483745E-02 -2.2821962293861E-01
   120  1.1900000000000E+00 -2.0239069794614E-02 -2.2882139031205E-01
   121  1.2000000000000E+00 -1.5048684649013E-02 -2.2446162239419E-01
   122  1.2100000000000E+00 -1.0746235980970E-02 -2.1571531213793E-01
   123  1.2200000000000E+00 -7.2676076278685E-03 -2.0320972023914E-01
   124  1.2300000000000E+00 -4.5384588508964E-03 -1.8761222463450E-01
   125  1.2400000000000E+00 -2.4766276513392E-03 -1.6961753864763E-01
   126  1.2500000000000E+00 -9.9462221918822E-04 -1.4993456308430E-01
   127  1.2600000000000E+00 -2.1435845971586E-06 -1.2927314791579E-01
   128  1.2700000000000E+00  5.9141196357952E-04 -1.0833102308092E-01
   129  1.2800000000000E+00  8.7457256393807E-04 -8.7781310104665E-02
   130  1.2900000000000E+00  9.3044881602708E-04 -6.8257248244647E-02
   131  1.3000000000000E+00  8.2382962560991E-04 -5.0305148895163E-02
   132  1.3100000000000E+00  6.2576253498227E-04 -3.4460710780545E-02
   133  1.3200000000000E+00  4.0353802971331E-04 -2.1214302749655E-02
   134  1.3300000000000E+00  2.0827335314337E-04 -1.0961042677005E-02
   135  1.3400000000000E+00  7.2086830354472E-05 -3.9798343136717E-03
   136  1.3500000000000E+00  8.0939892963833E-06 -4.9629606766180E-04
   137  1.3600000000000E+00 -6.8375679240775E-07  4.5471593773142E-05
   138  1.3700000000000E+00  1.2350527251663E-07 -7.7364906362178E-06
   139  1.38  0.  0.
   140  1.39  0.  0.
   141  1.40  0.  0.
   142  1.41  0.  0.
   143  1.42  0.  0.
   144  1.43  0.  0.
   145  1.44  0.  0.
   146  1.45  0.  0.
   147  1.46  0.  0.
   148  1.47  0.  0.
   149  1.48  0.  0.
   150  1.49  0.  0.
   151  1.50  0.  0.
   152  1.51  0.  0.
   153  1.52  0.  0.
   154  1.53  0.  0.
   155  1.54  0.  0.
   156  1.55  0.  0.
   157  1.56  0.  0.
   158  1.57  0.  0.
   159  1.58  0.  0.
   160  1.59  0.  0.
   161  1.60  0.  0.
   162  1.61  0.  0.
   163  1.62  0.  0.
   164  1.63  0.  0.
   165  1.64  0.  0.
   166  1.65  0.  0.
   167  1.66  0.  0.
   168  1.67  0.  0.
   169  1.68  0.  0.
   170  1.69  0.  0.
   171  1.70  0.  0.
   172  1.71  0.  0.
   173  1.72  0.  0.
   174  1.73  0.  0.
   175  1.74  0.  0.
   176  1.75  0.  0.
   177  1.76  0.  0.
   178  1.77  0.  0.
   179  1.78  0.  0.
   180  1.79  0.  0.
   181  1.80  0.  0.
   182  1.81  0.  0.
   183  1.82  0.  0.
   184  1.83  0.  0.
   185  1.84  0.  0.
   186  1.85  0.  0.
   187  1.86  0.  0.
   188  1.87  0.  0.
   189  1.88  0.  0.
   190  1.89  0.  0.
   191  1.90  0.  0.
   192  1.91  0.  0.
   193  1.92  0.  0.
   194  1.93  0.  0.
   195  1.94  0.  0.
   196  1.95  0.  0.
   197  1.96  0.  0.
   198  1.97  0.  0.
   199  1.98  0.  0.
   200  1.99  0.  0.
   201  2.00  0.  0.
   202  2.01  0.  0.
   203  2.02  0.  0.
   204  2.03  0.  0.
   205  2.04  0.  0.
   206  2.05  0.  0.
   207  2.06  0.  0.
   208  2.07  0.  0.
   209  2.08  0.  0.
   210  2.09  0.  0.
   211  2.10  0.  0.
   212  2.11  0.  0.
   213  2.12  0.  0.
   214  2.13  0.  0.
   215  2.14  0.  0.
   216  2.15  0.  0.
   217  2.16  0.  0.
   218  2.17  0.  0.
   219  2.18  0.  0.
   220  2.19  0.  0.
   221  2.20  0.  0.
   222  2.21  0.  0.
   223  2.22  0.  0.
   224  2.23  0.  0.
   225  2.24  0.  0.
   226  2.25  0.  0.
   227  2.26  0.  0.
   228  2.27  0.  0.
   229  2.28  0.  0.
   230  2.29  0.  0.
   231  2.30  0.  0.
   232  2.31  0.  0.
   233  2.32  0.  0.
   234  2.33  0.  0.
   235  2.34  0.  0.
   236  2.35  0.  0.
   237  2.36  0.  0.
   238  2.37  0.  0.
   239  2.38  0.  0.
   240  2.39  0.  0.
   241  2.40  0.  0.
   242  2.41  0.  0.
   243  2.42  0.  0.
   244  2.43  0.  0.
   245  2.44  0.  0.
   246  2.45  0.  0.
   247  2.46  0.  0.
   248  2.47  0.  0.
   249  2.48  0.  0.
   250  2.49  0.  0.
   251  2.50  0.  0.
   252  2.51  0.  0.
   253  2.52  0.  0.
   254  2.53  0.  0.
   255  2.54  0.  0.
   256  2.55  0.  0.
   257  2.56  0.  0.
   258  2.57  0.  0.
   259  2.58  0.  0.
   260  2.59  0.  0.
   261  2.60  0.  0.
   262  2.61  0.  0.
   263  2.62  0.  0.
   264  2.63  0.  0.
   265  2.64  0.  0.
   266  2.65  0.  0.
   267  2.66  0.  0.
   268  2.67  0.  0.
   269  2.68  0.  0.
   270  2.69  0.  0.
   271  2.70  0.  0.
   272  2.71  0.  0.
   273  2.72  0.  0.
   274  2.73  0.  0.
   275  2.74  0.  0.
   276  2.75  0.  0.
   277  2.76  0.  0.
   278  2.77  0.  0.
   279  2.78  0.  0.
   280  2.79  0.  0.
   281  2.80  0.  0.
   282  2.81  0.  0.
   283  2.82  0.  0.
   284  2.83  0.  0.
   285  2.84  0.  0.
   286  2.85  0.  0.
   287  2.86  0.  0.
   288  2.87  0.  0.
   289  2.88  0.  0.
   290  2.89  0.  0.
   291  2.90  0.  0.
   292  2.91  0.  0.
   293  2.92  0.  0.
   294  2.93  0.  0.
   295  2.94  0.  0.
   296  2.95  0.  0.
   297  2.96  0.  0.
   298  2.97  0.  0.
   299  2.98  0.  0.
   300  2.99  0.  0.
   301  3.00  0.  0.
   302  3.01  0.  0.
   303  3.02  0.  0.
   304  3.03  0.  0.
   305  3.04  0.  0.
   306  3.05  0.  0.
   307  3.06  0.  0.
   308  3.07  0.  0.
   309  3.08  0.  0.
   310  3.09  0.  0.
   311  3.10  0.  0.
   312  3.11  0.  0.
   313  3.12  0.  0.
   314  3.13  0.  0.
   315  3.14  0.  0.
   316  3.15  0.  0.
   317  3.16  0.  0.
   318  3.17  0.  0.
   319  3.18  0.  0.
   320  3.19  0.  0.
   321  3.20  0.  0.
   322  3.21  0.  0.
   323  3.22  0.  0.
   324  3.23  0.  0.
   325  3.24  0.  0.
   326  3.25  0.  0.
   327  3.26  0.  0.
   328  3.27  0.  0.
   329  3.28  0.  0.
   330  3.29  0.  0.
   331  3.30  0.  0.
   332  3.31  0.  0.
   333  3.32  0.  0.
   334  3.33  0.  0.
   335  3.34  0.  0.
   336  3.35  0.  0.
   337  3.36  0.  0.
   338  3.37  0.  0.
   339  3.38  0.  0.
   340  3.39  0.  0.
   341  3.40  0.  0.
   342  3.41  0.  0.
   343  3.42  0.  0.
   344  3.43  0.  0.
   345  3.44  0.  0.
   346  3.45  0.  0.
   347  3.46  0.  0.
   348  3.47  0.  0.
   349  3.48  0.  0.
   350  3.49  0.  0.
   351  3.50  0.  0.
   352  3.51  0.  0.
   353  3.52  0.  0.
   354  3.53  0.  0.
   355  3.54  0.  0.
   356  3.55  0.  0.
   357  3.56  0.  0.
   358  3.57  0.  0.
   359  3.58  0.  0.
   360  3.59  0.  0.
   361  3.60  0.  0.
   362  3.61  0.  0.
   363  3.62  0.  0.
   364  3.63  0.  0.
   365  3.64  0.  0.
   366  3.65  0.  0.
   367  3.66  0.  0.
   368  3.67  0.  0.
   369  3.68  0.  0.
   370  3.69  0.  0.
   371  3.70  0.  0.
   372  3.71  0.  0.
   373  3.72  0.  0.
   374  3.73  0.  0.
   375  3.74  0.  0.
   376  3.75  0.  0.
   377  3.76  0.  0.
   378  3.77  0.  0.
   379  3.78  0.  0.
   380  3.79  0.  0.
   381  3.80  0.  0.
   382  3.81  0.  0.
   383  3.82  0.  0.
   384  3.83  0.  0.
   385  3.84  0.  0.
   386  3.85  0.  0.
   387  3.86  0.  0.
   388  3.87  0.  0.
   389  3.88  0.  0.
   390  3.89  0.  0.
   391  3.90  0.  0.
   392  3.91  0.  0.
   393  3.92  0.  0.
   394  3.93  0.  0.
   395  3.94  0.  0.
   396  3.95  0.  0.
   397  3.96  0.  0.
   398  3.97  0.  0.
   399  3.98  0.  0.
   400  3.99  0.  0.
   401  4.00  0.  0.
   402  4.01  0.  0.
   403  4.02  0.  0.
   404  4.03  0.  0.
   405  4.04  0.  0.
   406  4.05  0.  0.
   407  4.06  0.  0.
   408  4.07  0.  0.
   409  4.08  0.  0.
   410  4.09  0.  0.
   411  4.10  0.  0.
   412  4.11  0.  0.
   413  4.12  0.  0.
   414  4.13  0.  0.
   415  4.14  0.  0.
   416  4.15  0.  0.
   417  4.16  0.  0.
   418  4.17  0.  0.
   419  4.18  0.  0.
   420  4.19  0.  0.
   421  4.20  0.  0.
   422  4.21  0.  0.
   423  4.22  0.  0.
   424  4.23  0.  0.
   425  4.24  0.  0.
   426  4.25  0.  0.
   427  4.26  0.  0.
   428  4.27  0.  0.
   429  4.28  0.  0.
   430  4.29  0.  0.
   431  4.30  0.  0.
   432  4.31  0.  0.
   433  4.32  0.  0.
   434  4.33  0.  0.
   435  4.34  0.  0.
   436  4.35  0.  0.
   437  4.36  0.  0.
   438  4.37  0.  0.
   439  4.38  0.  0.
   440  4.39  0.  0.
   441  4.40  0.  0.
   442  4.41  0.  0.
   443  4.42  0.  0.
   444  4.43  0.  0.
   445  4.44  0.  0.
   446  4.45  0.  0.
   447  4.46  0.  0.
   448  4.47  0.  0.
   449  4.48  0.  0.
   450  4.49  0.  0.
   451  4.50  0.  0.
   452  4.51  0.  0.
   453  4.52  0.  0.
   454  4.53  0.  0.
   455  4.54  0.  0.
   456  4.55  0.  0.
   457  4.56  0.  0.
   458  4.57  0.  0.
   459  4.58  0.  0.
   460  4.59  0.  0.
   461  4.60  0.  0.
   462  4.61  0.  0.
   463  4.62  0.  0.
   464  4.63  0.  0.
   465  4.64  0.  0.
   466  4.65  0.  0.
   467  4.66  0.  0.
   468  4.67  0.  0.
   469  4.68  0.  0.
   470  4.69  0.  0.
   471  4.70  0.  0.
   472  4.71  0.  0.
   473  4.72  0.  0.
   474  4.73  0.  0.
   475  4.74  0.  0.
   476  4.75  0.  0.
   477  4.76  0.  0.
   478  4.77  0.  0.
   479  4.78  0.  0.
   480  4.79  0.  0.
   481  4.80  0.  0.
   482  4.81  0.  0.
   483  4.82  0.  0.
   484  4.83  0.  0.
   485  4.84  0.  0.
   486  4.85  0.  0.
   487  4.86  0.  0.
   488  4.87  0.  0.
   489  4.88  0.  0.
   490  4.89  0.  0.
   491  4.90  0.  0.
   492  4.91  0.  0.
   493  4.92  0.  0.
   494  4.93  0.  0.
   495  4.94  0.  0.
   496  4.95  0.  0.
   497  4.96  0.  0.
   498  4.97  0.  0.
   499  4.98  0.  0.
   500  4.99  0.  0.
   501  5.00  0.  0.
   502  5.01  0.  0.
   503  5.02  0.  0.
   504  5.03  0.  0.
   505  5.04  0.  0.
   506  5.05  0.  0.
   507  5.06  0.  0.
   508  5.07  0.  0.
   509  5.08  0.  0.
   510  5.09  0.  0.
   511  5.10  0.  0.
   512  5.11  0.  0.
   513  5.12  0.  0.
   514  5.13  0.  0.
   515  5.14  0.  0.
   516  5.15  0.  0.
   517  5.16  0.  0.
   518  5.17  0.  0.
   519  5.18  0.  0.
   520  5.19  0.  0.
   521  5.20  0.  0.
   522  5.21  0.  0.
   523  5.22  0.  0.
   524  5.23  0.  0.
   525  5.24  0.  0.
   526  5.25  0.  0.
   527  5.26  0.  0.
   528  5.27  0.  0.
   529  5.28  0.  0.
   530  5.29  0.  0.
   531  5.30  0.  0.
   532  5.31  0.  0.
   533  5.32  0.  0.
   534  5.33  0.  0.
   535  5.34  0.  0.
   536  5.35  0.  0.
   537  5.36  0.  0.
   538  5.37  0.  0.
   539  5.38  0.  0.
   540  5.39  0.  0.
   541  5.40  0.  0.
   542  5.41  0.  0.
   543  5.42  0.  0.
   544  5.43  0.  0.
   545  5.44  0.  0.
   546  5.45  0.  0.
   547  5.46  0.  0.
   548  5.47  0.  0.
   549  5.48  0.  0.
   550  5.49  0.  0.
   551  5.50  0.  0.
   552  5.51  0.  0.
   553  5.52  0.  0.
   554  5.53  0.  0.
   555  5.54  0.  0.
   556  5.55  0.  0.
   557  5.56  0.  0.
   558  5.57  0.  0.
   559  5.58  0.  0.
   560  5.59  0.  0.
   561  5.60  0.  0.
   562  5.61  0.  0.
   563  5.62  0.  0.
   564  5.63  0.  0.
   565  5.64  0.  0.
   566  5.65  0.  0.
   567  5.66  0.  0.
   568  5.67  0.  0.
   569  5.68  0.  0.
   570  5.69  0.  0.
   571  5.70  0.  0.
   572  5.71  0.  0.
   573  5.72  0.  0.
   574  5.73  0.  0.
   575  5.74  0.  0.
   576  5.75  0.  0.
   577  5.76  0.  0.
   578  5.77  0.  0.
   579  5.78  0.  0.
   580  5.79  0.  0.
   581  5.80  0.  0.
   582  5.81  0.  0.
   583  5.82  0.  0.
   584  5.83  0.  0.
   585  5.84  0.  0.
   586  5.85  0.  0.
   587  5.86  0.  0.
   588  5.87  0.  0.
   589  5.88  0.  0.
   590  5.89  0.  0.
   591  5.90  0.  0.
   592  5.91  0.  0.
   593  5.92  0.  0.
   594  5.93  0.  0.
   595  5.94  0.  0.
   596  5.95  0.  0.
   597  5.96  0.  0.
   598  5.97  0.  0.
   599  5.98  0.  0.
   600  5.99  0.  0.
   1                         7.1365210905281E+00  9.7916217176333E-01
     1  0.0000000000000E+00 -5.7160950694968E-09  1.5012684678739E-08
     2  1.0000000000000E-02  1.6991560070206E-03 -5.9455732696376E-04
     3  2.0000000000000E-02  6.7932757224028E-03 -2.3821217066868E-03
     4  3.0000000000000E-02  1.5272211730462E-02 -5.3740702020206E-03
     5  4.0000000000000E-02  2.7118713638395E-02 -9.5883736972353E-03
     6  5.0000000000000E-02  4.2307933627735E-02 -1.5048143756588E-02
     7  6.0000000000000E-02  6.0806759073480E-02 -2.1779663657235E-02
     8  7.0000000000000E-02  8.2572996257359E-02 -2.9809966842183E-02
     9  8.0000000000000E-02  1.0755443491778E-01 -3.9164041051632E-02
    10  9.0000000000000E-02  1.3568782827486E-01 -4.9861749222006E-02
    11  1.0000000000000E-01  1.6689782710645E-01 -6.1914568526213E-02
    12  1.1000000000000E-01  2.0109590931734E-01 -7.5322256368674E-02
    13  1.2000000000000E-01  2.3817934815362E-01 -9.0069556522192E-02
    14  1.3000000000000E-01  2.7803026271236E-01 -1.0612305975943E-01
    15  1.4000000000000E-01  3.2051479366012E-01 -1.2342833123487E-01
    16  1.5000000000000E-01  3.6548244511123E-01 -1.4190741154396E-01
    17  1.6000000000000E-01  4.1276563046967E-01 -1.6145678994445E-01
    18  1.7000000000000E-01  4.6217945577948E-01 -1.8194593687269E-01
    19  1.8000000000000E-01  5.1352176886013E-01 -2.0321646890598E-01
    20  1.9000000000000E-01  5.6657349635516E-01 -2.2508200306743E-01
    21  2.0000000000000E-01  6.2109928394769E-01 -2.4732873925757E-01
    22  2.1000000000000E-01  6.7684844756954E-01 -2.6971679010056E-01
    23  2.2000000000000E-01  7.3355623564076E-01 -2.9198225712309E-01
    24  2.3000000000000E-01  7.9094539442431E-01 -3.1384003148215E-01
    25  2.4000000000000E-01  8.4872802067333E-01 -3.3498727697854E-01
    26  2.5000000000000E-01  9.0660767809330E-01 -3.5510753339037E-01
    27  2.6000000000000E-01  9.6428174694098E-01 -3.7387535977537E-01
    28  2.7000000000000E-01  1.0214439695299E+00 -3.9096142083361E-01
    29  2.8000000000000E-01  1.0777871486864E+00 -4.0603790516175E-01
    30  2.9000000000000E-01  1.1330059514594E+00 -4.1878415268040E-01
    31  3.0000000000000E-01  1.1867997667648E+00 -4.2889236002391E-01
    32  3.1000000000000E-01  1.2388755632546E+00 -4.3607322751950E-01
    33  3.2000000000000E-01  1.2889506926068E+00 -4.4006140973545E-01
    34  3.3000000000000E-01  1.3367555836945E+00 -4.4062063354461E-01
    35  3.4000000000000E-01  1.3820362747096E+00 -4.3754835323339E-01
    36  3.5000000000000E-01  1.4245567332650E+00 -4.3067982129567E-01
    37  3.6000000000000E-01  1.4641009187302E+00 -4.1989146600347E-01
    38  3.7000000000000E-01  1.5004745464583E+00 -4.0510348236529E-01
    39  3.8000000000000E-01  1.5335065200352E+00 -3.8628156131279E-01
    40  3.9000000000000E-01  1.5630500050504E+00 -3.6343770246145E-01
    41  4.0000000000000E-01  1.5889831259953E+00 -3.3663007807282E-01
    42  4.1000000000000E-01  1.6112092765286E+00 -3.0596193935138E-01
    43  4.2000000000000E-01  1.6296570422989E+00 -2.7157958034475E-01
    44  4.3000000000000E-01  1.6442797445634E+00 -2.3366939886447E-01
    45  4.4000000000000E-01  1.6550546217501E+00 -1.9245411737634E-01
    46  4.5000000000000E-01  1.6619816746576E+00 -1.4818824910381E-01
    47  4.6000000000000E-01  1.6650822089463E+00 -1.0115291504408E-01
    48  4.7000000000000E-01  1.6643971157413E+00 -5.1650135653916E-02
    49  4.8000000000000E-01  1.6599849373407E+00  3.2638892483506E-06
    50  4.9000000000000E-01  1.6519197700479E+00  5.3481984146271E-02
    51  5.0000000000000E-01  1.6402890598683E+00  1.0845865880567E-01
    52  5.1000000000000E-01  1.6251913491238E+00  1.6461017611394E-01
    53  5.2000000000000E-01  1.6067340328770E+00  2.2162375152024E-01
    54  5.3000000000000E-01  1.5850311833619E+00  2.7920259300338E-01
    55  5.4000000000000E-01  1.5602014984122E+00  3.3707100904191E-01
    56  5.5000000000000E-01  1.5323664261849E+00  3.9497882173070E-01
    57  5.6000000000000E-01  1.5016485133791E+00  4.5270496389313E-01
    58  5.7000000000000E-01  1.4681700177623E+00  5.1006015883145E-01
    59  5.8000000000000E-01  1.4320518182907E+00  5.6688860415205E-01
    60  5.9000000000000E-01  1.3934126476170E+00  6.2306860636779E-01
    61  6.0000000000000E-01  1.3523686625397E+00  6.7851214010934E-01
    62  6.1000000000000E-01  1.3090333581819E+00  7.3316333411049E-01
    63  6.2000000000000E-01  1.2635178216461E+00  7.8699591496316E-01
    64  6.3000000000000E-01  1.2159313108304E+00  8.4000966823524E-01
    65  6.4000000000000E-01  1.1663821342752E+00  8.9222600417050E-01
    66  6.5000000000000E-01  1.1149787985953E+00  9.4368274111655E-01
    67  6.6000000000000E-01  1.0618313814892E+00  9.9442824335838E-01
    68  6.7000000000000E-01  1.0070530807492E+00  1.0445150705191E+00
    69  6.8000000000000E-01  9.5076188332590E-01  1.0939933125435E+00
    70  6.9000000000000E-01  8.9308229352534E-01  1.1429037969965E+00
    71  7.0000000000000E-01  8.3414705598420E-01  1.1912713635843E+00
    72  7.1000000000000E-01  7.7409880730210E-01  1.2390984041272E+00
    73  7.2000000000000E-01  7.1309159018137E-01  1.2863588645082E+00
    74  7.3000000000000E-01  6.5129216567447E-01  1.3329928983118E+00
    75  7.4000000000000E-01  5.8888106265357E-01  1.3789023500290E+00
    76  7.5000000000000E-01  5.2605330884324E-01  1.4239472290195E+00
    77  7.6000000000000E-01  4.6301879459615E-01  1.4679433142084E+00
    78  7.7000000000000E-01  4.0000222890147E-01  1.5106610041891E+00
    79  7.8000000000000E-01  3.3724265671609E-01  1.5518254985521E+00
    80  7.9000000000000E-01  2.7499251738227E-01  1.5911183644951E+00
    81  8.0000000000000E-01  2.1351623539469E-01  1.6281805088409E+00
    82  8.1000000000000E-01  1.5308834683181E-01  1.6626165402726E+00
    83  8.2000000000000E-01  9.3991177079291E-02  1.6940004707498E+00
    84  8.3000000000000E-01  3.6512097743735E-02  1.7218826695675E+00
    85  8.4000000000000E-01 -1.9059597426156E-02  1.7457979492412E+00
    86  8.5000000000000E-01 -7.2436146530270E-02  1.7652746302236E+00
    87  8.6000000000000E-01 -1.2333504202647E-01  1.7798444022124E+00
    88  8.7000000000000E-01 -1.7148295127991E-01  1.7890527742761E+00
    89  8.8000000000000E-01 -2.1661975706562E-01  1.7924698849076E+00
    90  8.9000000000000E-01 -2.5850263402767E-01  1.7897014270239E+00
    91  9.0000000000000E-01 -2.9691007306631E-01  1.7803994323608E+00
    92  9.1000000000000E-01 -3.3164576361075E-01  1.7642726550357E+00
    93  9.2000000000000E-01 -3.6254224382996E-01  1.7410962955050E+00
    94  9.3000000000000E-01 -3.8946423108063E-01  1.7107208138206E+00
    95  9.4000000000000E-01 -4.1231154927834E-01  1.6730795949274E+00
    96  9.5000000000000E-01 -4.3102157634576E-01  1.6281952485405E+00
    97  9.6000000000000E-01 -4.4557114332295E-01  1.5761843515352E+00
    98  9.7000000000000E-01 -4.5597782696075E-01  1.5172604712875E+00
    99  9.8000000000000E-01 -4.6230058944691E-01  1.4517353433819E+00
   100  9.9000000000000E-01 -4.6463973208610E-01  1.3800181158239E+00
   101  1.0000000000000E+00 -4.6313614397796E-01  1.3026126134857E+00
   102  1.0100000000000E+00 -4.5796984170159E-01  1.2201126200819E+00
   103  1.0200000000000E+00 -4.4935781137694E-01  1.1331952195037E+00
   104  1.0300000000000E+00 -4.3755117987249E-01  1.0426122827919E+00
   105  1.0400000000000E+00 -4.2283175701123E-01  9.4918023038789E-01
   106  1.0500000000000E+00 -4.0550800504180E-01  8.5376824053407E-01
   107  1.0600000000000E+00 -3.8591050501004E-01  7.5728511274000E-01
   108  1.0700000000000E+00 -3.6438700170276E-01  6.6066502924811E-01
   109  1.0800000000000E+00 -3.4129711920620E-01  5.6485248648672E-01
   110  1.0900000000000E+00 -3.1700684756723E-01  4.7078669184902E-01
   111  1.1000000000000E+00 -2.9188290736317E-01  3.7938573821478E-01
   112  1.1100000000000E+00 -2.6628710296412E-01  2.9153087885029E-01
   113  1.1200000000000E+00 -2.4057077681986E-01  2.0805122843368E-01
   114  1.1300000000000E+00 -2.1506947613583E-01  1.2970921174253E-01
   115  1.1400000000000E+00 -1.9009793980718E-01  5.7187069983737E-02
   116  1.1500000000000E+00 -1.6594550753334E-01 -8.9252838995568E-03
   117  1.1600000000000E+00 -1.4287204469019E-01 -6.8140795180901E-02
   118  1.1700000000000E+00 -1.2110446605203E-01 -1.2008394851466E-01
   119  1.1800000000000E+00 -1.0083392890014E-01 -1.6449740391330E-01
   120  1.1900000000000E+00 -8.2213751914089E-02 -2.0124643328536E-01
   121  1.2000000000000E+00 -6.5358100534645E-02 -2.3032104987314E-01
   122  1.2100000000000E+00 -5.0341462887217E-02 -2.5183577197771E-01
   123  1.2200000000000E+00 -3.7198922930419E-02 -2.6602701367400E-01
   124  1.2300000000000E+00 -2.5927219833023E-02 -2.7324814707622E-01
   125  1.2400000000000E+00 -1.6486565061787E-02 -2.7396233201844E-01
   126  1.2500000000000E+00 -8.8031715271400E-03 -2.6873325905353E-01
   127  1.2600000000000E+00 -2.7724330384820E-03 -2.5821399854188E-01
   128  1.2700000000000E+00  1.7373225951243E-03 -2.4313419190044E-01
   129  1.2800000000000E+00  4.8805967697505E-03 -2.2428585950777E-01
   130  1.2900000000000E+00  6.8301010032554E-03 -2.0250813290514E-01
   131  1.3000000000000E+00  7.7718638911910E-03 -1.7867123610218E-01
   132  1.3100000000000E+00  7.9002016335834E-03 -1.5366013886959E-01
   133  1.3200000000000E+00  7.4119137843184E-03 -1.2835533143239E-01
   134  1.3300000000000E+00  6.4980425674220E-03 -1.0360363306416E-01
   135  1.3400000000000E+00  5.3315994483096E-03 -8.0183334727191E-02
   136  1.3500000000000E+00  4.0544132132560E-03 -5.8770856215619E-02
   137  1.3600000000000E+00  2.8104835612138E-03 -4.0005693053789E-02
   138  1.3700000000000E+00  1.7180778873154E-03 -2.4429241144826E-02
   139  1.3800000000000E+00  8.6308702578063E-04 -1.2467598256612E-02
   140  1.3900000000000E+00  2.9499133828531E-04 -4.4070425543204E-03
   141  1.4000000000000E+00  3.2682948657198E-05 -5.1871165629113E-04
   142  1.4100000000000E+00 -2.9537819346506E-06  4.7481230782949E-05
   143  1.4200000000000E+00  6.0243040314849E-07 -9.4480478059936E-06
   144  1.43  0.  0.
   145  1.44  0.  0.
   146  1.45  0.  0.
   147  1.46  0.  0.
   148  1.47  0.  0.
   149  1.48  0.  0.