N     ONCVPSP-4.0.1  r_core=   1.20716   1.35246
      7.0000      5.0000      231019    zatom,zion,pspd
     8       2   1     4   600     0    pspcod,pspxc,lmax,lloc,mmax,r2well
  5.99000000  4.00000000  0.00000000    rchrg fchrg qchrg
     2     2     0     0     0    nproj
     1     1           extension_switch
   0                         7.4792246295835E+00  6.5005205272265E-01
     1  0.0000000000000E+00 -1.1511373743112E-08  5.0240987259365E-08
     2  1.0000000000000E-02  9.8940852368258E-02 -7.5551258192643E-02
     3  2.0000000000000E-02  1.9742679015290E-01 -1.4996580090617E-01
     4  3.0000000000000E-02  2.9500865342501E-01 -2.2212971144685E-01
     5  4.0000000000000E-02  3.9124866735863E-01 -2.9097413092975E-01
     6  5.0000000000000E-02  4.8572582733786E-01 -3.5549645117395E-01
     7  6.0000000000000E-02  5.7804092365294E-01 -4.1477994155651E-01
     8  7.0000000000000E-02  6.6782109961719E-01 -4.6801134875037E-01
     9  8.0000000000000E-02  7.5472384844855E-01 -5.1449605851246E-01
    10  9.0000000000000E-02  8.3844036808472E-01 -5.5367046905988E-01
    11  1.0000000000000E-01  9.1869820888690E-01 -5.8511129454471E-01
    12  1.1000000000000E-01  9.9526316653011E-01 -6.0854159297185E-01
    13  1.2000000000000E-01  1.0679403908342E+00 -6.2383339367996E-01
    14  1.3000000000000E-01  1.1365747003889E+00 -6.3100688319025E-01
    15  1.4000000000000E-01  1.2010501120840E+00 -6.3022619271110E-01
    16  1.5000000000000E-01  1.2612886135767E+00 -6.2179191374881E-01
    17  1.6000000000000E-01  1.3172482248465E+00 -6.0613054802921E-01
    18  1.7000000000000E-01  1.3689204118285E+00 -5.8378117229118E-01
    19  1.8000000000000E-01  1.4163269302715E+00 -5.5537966561817E-01
    20  1.9000000000000E-01  1.4595161910549E+00 -5.2164090517009E-01
    21  2.0000000000000E-01  1.4985592488879E+00 -4.8333938403076E-01
    22  2.1000000000000E-01  1.5335455243578E+00 -4.4128874123642E-01
    23  2.2000000000000E-01  1.5645783744873E+00 -3.9632071802755E-01
    24  2.3000000000000E-01  1.5917706291981E+00 -3.4926406541995E-01
    25  2.4000000000000E-01  1.6152402103074E+00 -3.0092392610093E-01
    26  2.5000000000000E-01  1.6351059459537E+00 -2.5206219853218E-01
    27  2.6000000000000E-01  1.6514836867618E+00 -2.0337936342769E-01
    28  2.7000000000000E-01  1.6644828208084E+00 -1.5549821322923E-01
    29  2.8000000000000E-01  1.6742032727849E+00 -1.0894987487897E-01
    30  2.9000000000000E-01  1.6807330589977E+00 -6.4162456409861E-02
    31  3.0000000000000E-01  1.6841464543548E+00 -2.1452580194322E-02
    32  3.1000000000000E-01  1.6845028106771E+00  1.8980008144573E-02
    33  3.2000000000000E-01  1.6818460479854E+00  5.7054644258287E-02
    34  3.3000000000000E-01  1.6762048223028E+00  9.2808732514099E-02
    35  3.4000000000000E-01  1.6675933554574E+00  1.2639356646005E-01
    36  3.5000000000000E-01  1.6560128948228E+00  1.5806711127335E-01
    37  3.6000000000000E-01  1.6414537543593E+00  1.8818395225846E-01
    38  3.7000000000000E-01  1.6238978731141E+00  2.1718268297052E-01
    39  3.8000000000000E-01  1.6033218139079E+00  2.4557106874859E-01
    40  3.9000000000000E-01  1.5797001135960E+00  2.7390937484647E-01
    41  4.0000000000000E-01  1.5530088873238E+00  3.0279229168200E-01
    42  4.1000000000000E-01  1.5232295828135E+00  3.3282992198301E-01
    43  4.2000000000000E-01  1.4903527770659E+00  3.6462831507374E-01
    44  4.3000000000000E-01  1.4543819069997E+00  3.9877004181230E-01
    45  4.4000000000000E-01  1.4153368274990E+00  4.3579529965640E-01
    46  4.5000000000000E-01  1.3732570950036E+00  4.7618402121532E-01
    47  4.6000000000000E-01  1.3282048820238E+00  5.2033943195850E-01
    48  4.7000000000000E-01  1.2802674375866E+00  5.6857346429530E-01
    49  4.8000000000000E-01  1.2295590203435E+00  6.2109438708775E-01
    50  4.9000000000000E-01  1.1762222445793E+00  6.7799695310229E-01
    51  5.0000000000000E-01  1.1204287942996E+00  7.3925530345012E-01
    52  5.1000000000000E-01  1.0623794765260E+00  8.0471879935941E-01
    53  5.2000000000000E-01  1.0023036015037E+00  8.7411087943221E-01
    54  5.3000000000000E-01  9.4045769426937E-01  9.4703096669889E-01
    55  5.4000000000000E-01  8.7712355852693E-01  1.0229593761424E+00
    56  5.5000000000000E-01  8.1260572961513E-01  1.1012651017424E+00
    57  5.6000000000000E-01  7.4722836812209E-01  1.1812162942341E+00
    58  5.7000000000000E-01  6.8133165905555E-01  1.2619931783092E+00
    59  5.8000000000000E-01  6.1526779308686E-01  1.3427031023787E+00
    60  5.9000000000000E-01  5.4939661598294E-01  1.4223973665329E+00
    61  6.0000000000000E-01  4.8408103970834E-01  1.5000894360253E+00
    62  6.1000000000000E-01  4.1968231366449E-01  1.5747741192723E+00
    63  6.2000000000000E-01  3.5655525704460E-01  1.6454472715320E+00
    64  6.3000000000000E-01  2.9504355329671E-01  1.7111255783642E+00
    65  6.4000000000000E-01  2.3547520524204E-01  1.7708659766698E+00
    66  6.5000000000000E-01  1.7815824459663E-01  1.8237842852693E+00
    67  6.6000000000000E-01  1.2337678265115E-01  1.8690726410698E+00
    68  6.7000000000000E-01  7.1387479895026E-02  1.9060153701010E+00
    69  6.8000000000000E-01  2.2416501688376E-02  1.9340029640833E+00
    70  6.9000000000000E-01 -2.3342985006959E-02  1.9525438815347E+00
    71  7.0000000000000E-01 -6.5732731995414E-02  1.9612739464079E+00
    72  7.1000000000000E-01 -1.0463071936350E-01  1.9599631754224E+00
    73  7.2000000000000E-01 -1.3995184043917E-01  1.9485199261124E+00
    74  7.3000000000000E-01 -1.7164796272534E-01  1.9269923195936E+00
    75  7.4000000000000E-01 -1.9970737920314E-01  1.8955669536327E+00
    76  7.5000000000000E-01 -2.2415367755386E-01  1.8545649812899E+00
    77  7.6000000000000E-01 -2.4504406697698E-01  1.8044356867958E+00
    78  7.7000000000000E-01 -2.6246721310609E-01  1.7457477421465E+00
    79  7.8000000000000E-01 -2.7654064080651E-01  1.6791783740190E+00
    80  7.9000000000000E-01 -2.8740777218833E-01  1.6055007100816E+00
    81  8.0000000000000E-01 -2.9523467284531E-01  1.5255696058396E+00
    82  8.1000000000000E-01 -3.0020658304912E-01  1.4403062772838E+00
    83  8.2000000000000E-01 -3.0252431235734E-01  1.3506820804660E+00
    84  8.3000000000000E-01 -3.0240057585508E-01  1.2577017866213E+00
    85  8.4000000000000E-01 -3.0005634811963E-01  1.1623867007021E+00
    86  8.5000000000000E-01 -2.9571730709761E-01  1.0657579625124E+00
    87  8.6000000000000E-01 -2.8961043458224E-01  9.6882035354169E-01
    88  8.7000000000000E-01 -2.8196083307973E-01  8.7254690979389E-01
    89  8.8000000000000E-01 -2.7298881079390E-01  7.7786461220971E-01
    90  8.9000000000000E-01 -2.6290727749745E-01  6.8564139264882E-01
    91  9.0000000000000E-01 -2.5191948447095E-01  5.9667465587192E-01
    92  9.1000000000000E-01 -2.4021713175876E-01  5.1168147763258E-01
    93  9.2000000000000E-01 -2.2797885599706E-01  4.3129059698540E-01
    94  9.3000000000000E-01 -2.1536910228123E-01  3.5603627833722E-01
    95  9.4000000000000E-01 -2.0253737421660E-01  2.8635407669971E-01
    96  9.5000000000000E-01 -1.8961784766589E-01  2.2257849904058E-01
    97  9.6000000000000E-01 -1.7672932597112E-01  1.6494251649119E-01
    98  9.7000000000000E-01 -1.6397550775314E-01  1.1357884724982E-01
    99  9.8000000000000E-01 -1.5144553290729E-01  6.8522898989562E-02
   100  9.9000000000000E-01 -1.3921476820246E-01  2.9717232941961E-02
   101  1.0000000000000E+00 -1.2734579100308E-01 -2.9826100270365E-03
   102  1.0100000000000E+00 -1.1588952806688E-01 -2.9801097912989E-02
   103  1.0200000000000E+00 -1.0488650608970E-01 -5.1034699056577E-02
   104  1.0300000000000E+00 -9.4368171597321E-02 -6.7043071937446E-02
   105  1.0400000000000E+00 -8.4358239810537E-02 -7.8239650799147E-02
   106  1.0500000000000E+00 -7.4874035095016E-02 -8.5081822477323E-02
   107  1.0600000000000E+00 -6.5927789392870E-02 -8.8060883742747E-02
   108  1.0700000000000E+00 -5.7527869425100E-02 -8.7691959075751E-02
   109  1.0800000000000E+00 -4.9679908280138E-02 -8.4504046614775E-02
   110  1.0900000000000E+00 -4.2387822048992E-02 -7.9030345746657E-02
   111  1.1000000000000E+00 -3.5654697247832E-02 -7.1799004069223E-02
   112  1.1100000000000E+00 -2.9483539706395E-02 -6.3324404859027E-02
   113  1.1200000000000E+00 -2.3877880202838E-02 -5.4099099420665E-02
   114  1.1300000000000E+00 -1.8842236770639E-02 -4.4586469807212E-02
   115  1.1400000000000E+00 -1.4382435488388E-02 -3.5214204583476E-02
   116  1.1500000000000E+00 -1.0504810903179E-02 -2.6373377595373E-02
   117  1.1600000000000E+00 -7.2090428392617E-03 -1.8449574515805E-02
   118  1.1700000000000E+00 -4.5102094408735E-03 -1.1711837087130E-02
   119  1.1800000000000E+00 -2.4267135749133E-03 -6.3651684605303E-03
   120  1.1900000000000E+00 -9.7557967587022E-04 -2.5734676592807E-03
   121  1.2000000000000E+00 -1.7085900512109E-04 -4.5140785975843E-04
   122  1.2100000000000E+00  8.5884972278986E-06  2.2619464845112E-05
   123  1.2200000000000E+00 -1.5389623682973E-06 -4.0614243725012E-06
   124  1.23 -0.  0.
   125  1.24  0.  0.
   126  1.25  0.  0.
   127  1.26  0.  0.
   128  1.27  0.  0.
   129  1.28  0.  0.
   130  1.29  0.  0.
   131  1.30  0.  0.
   132  1.31  0.  0.
   133  1.32  0.  0.
   134  1.33  0.  0.
   135  1.34  0.  0.
   136  1.35  0.  0.
   137  1.36  0.  0.
   138  1.37  0.  0.
   139  1.38  0.  0.
   140  1.39  0.  0.
   141  1.40  0.  0.
   142  1.41  0.  0.
   143  1.42  0.  0.
   144  1.43  0.  0.
   145  1.44  0.  0.
   146  1.45  0.  0.
   147  1.46  0.  0.
   148  1.47  0.  0.
   149  1.48  0.  0.
   150  1.49  0.  0.
   151  1.50  0.  0.
   152  1.51  0.  0.
   153  1.52  0.  0.
   154  1.53  0.  0.
   155  1.54  0.  0.
   156  1.55  0.  0.
   157  1.56  0.  0.
   158  1.57  0.  0.
   159  1.58  0.  0.
   160  1.59  0.  0.
   161  1.60  0.  0.
   162  1.61  0.  0.
   163  1.62  0.  0.
   164  1.63  0.  0.
   165  1.64  0.  0.
   166  1.65  0.  0.
   167  1.66  0.  0.
   168  1.67  0.  0.
   169  1.68  0.  0.
   170  1.69  0.  0.
   171  1.70  0.  0.
   172  1.71  0.  0.
   173  1.72  0.  0.
   174  1.73  0.  0.
   175  1.74  0.  0.
   176  1.75  0.  0.
   177  1.76  0.  0.
   178  1.77  0.  0.
   179  1.78  0.  0.
   180  1.79  0.  0.
   181  1.80  0.  0.
   182  1.81  0.  0.
   183  1.82  0.  0.
   184  1.83  0.  0.
   185  1.84  0.  0.
   186  1.85  0.  0.
   187  1.86  0.  0.
   188  1.87  0.  0.
   189  1.88  0.  0.
   190  1.89  0.  0.
   191  1.90  0.  0.
   192  1.91  0.  0.
   193  1.92  0.  0.
   194  1.93  0.  0.
   195  1.94  0.  0.
   196  1.95  0.  0.
   197  1.96  0.  0.
   198  1.97  0.  0.
   199  1.98  0.  0.
   200  1.99  0.  0.
   201  2.00  0.  0.
   202  2.01  0.  0.
   203  2.02  0.  0.
   204  2.03  0.  0.
   205  2.04  0.  0.
   206  2.05  0.  0.
   207  2.06  0.  0.
   208  2.07  0.  0.
   209  2.08  0.  0.
   210  2.09  0.  0.
   211  2.10  0.  0.
   212  2.11  0.  0.
   213  2.12  0.  0.
   214  2.13  0.  0.
   215  2.14  0.  0.
   216  2.15  0.  0.
   217  2.16  0.  0.
   218  2.17  0.  0.
   219  2.18  0.  0.
   220  2.19  0.  0.
   221  2.20  0.  0.
   222  2.21  0.  0.
   223  2.22  0.  0.
   224  2.23  0.  0.
   225  2.24  0.  0.
   226  2.25  0.  0.
   227  2.26  0.  0.
   228  2.27  0.  0.
   229  2.28  0.  0.
   230  2.29  0.  0.
   231  2.30  0.  0.
   232  2.31  0.  0.
   233  2.32  0.  0.
   234  2.33  0.  0.
   235  2.34  0.  0.
   236  2.35  0.  0.
   237  2.36  0.  0.
   238  2.37  0.  0.
   239  2.38  0.  0.
   240  2.39  0.  0.
   241  2.40  0.  0.
   242  2.41  0.  0.
   243  2.42  0.  0.
   244  2.43  0.  0.
   245  2.44  0.  0.
   246  2.45  0.  0.
   247  2.46  0.  0.
   248  2.47  0.  0.
   249  2.48  0.  0.
   250  2.49  0.  0.
   251  2.50  0.  0.
   252  2.51  0.  0.
   253  2.52  0.  0.
   254  2.53  0.  0.
   255  2.54  0.  0.
   256  2.55  0.  0.
   257  2.56  0.  0.
   258  2.57  0.  0.
   259  2.58  0.  0.
   260  2.59  0.  0.
   261  2.60  0.  0.
   262  2.61  0.  0.
   263  2.62  0.  0.
   264  2.63  0.  0.
   265  2.64  0.  0.
   266  2.65  0.  0.
   267  2.66  0.  0.
   268  2.67  0.  0.
   269  2.68  0.  0.
   270  2.69  0.  0.
   271  2.70  0.  0.
   272  2.71  0.  0.
   273  2.72  0.  0.
   274  2.73  0.  0.
   275  2.74  0.  0.
   276  2.75  0.  0.
   277  2.76  0.  0.
   278  2.77  0.  0.
   279  2.78  0.  0.
   280  2.79  0.  0.
   281  2.80  0.  0.
   282  2.81  0.  0.
   283  2.82  0.  0.
   284  2.83  0.  0.
   285  2.84  0.  0.
   286  2.85  0.  0.
   287  2.86  0.  0.
   288  2.87  0.  0.
   289  2.88  0.  0.
   290  2.89  0.  0.
   291  2.90  0.  0.
   292  2.91  0.  0.
   293  2.92  0.  0.
   294  2.93  0.  0.
   295  2.94  0.  0.
   296  2.95  0.  0.
   297  2.96  0.  0.
   298  2.97  0.  0.
   299  2.98  0.  0.
   300  2.99  0.  0.
   301  3.00  0.  0.
   302  3.01  0.  0.
   303  3.02  0.  0.
   304  3.03  0.  0.
   305  3.04  0.  0.
   306  3.05  0.  0.
   307  3.06  0.  0.
   308  3.07  0.  0.
   309  3.08  0.  0.
   310  3.09  0.  0.
   311  3.10  0.  0.
   312  3.11  0.  0.
   313  3.12  0.  0.
   314  3.13  0.  0.
   315  3.14  0.  0.
   316  3.15  0.  0.
   317  3.16  0.  0.
   318  3.17  0.  0.
   319  3.18  0.  0.
   320  3.19  0.  0.
   321  3.20  0.  0.
   322  3.21  0.  0.
   323  3.22  0.  0.
   324  3.23  0.  0.
   325  3.24  0.  0.
   326  3.25  0.  0.
   327  3.26  0.  0.
   328  3.27  0.  0.
   329  3.28  0.  0.
   330  3.29  0.  0.
   331  3.30  0.  0.
   332  3.31  0.  0.
   333  3.32  0.  0.
   334  3.33  0.  0.
   335  3.34  0.  0.
   336  3.35  0.  0.
   337  3.36  0.  0.
   338  3.37  0.  0.
   339  3.38  0.  0.
   340  3.39  0.  0.
   341  3.40  0.  0.
   342  3.41  0.  0.
   343  3.42  0.  0.
   344  3.43  0.  0.
   345  3.44  0.  0.
   346  3.45  0.  0.
   347  3.46  0.  0.
   348  3.47  0.  0.
   349  3.48  0.  0.
   350  3.49  0.  0.
   351  3.50  0.  0.
   352  3.51  0.  0.
   353  3.52  0.  0.
   354  3.53  0.  0.
   355  3.54  0.  0.
   356  3.55  0.  0.
   357  3.56  0.  0.
   358  3.57  0.  0.
   359  3.58  0.  0.
   360  3.59  0.  0.
   361  3.60  0.  0.
   362  3.61  0.  0.
   363  3.62  0.  0.
   364  3.63  0.  0.
   365  3.64  0.  0.
   366  3.65  0.  0.
   367  3.66  0.  0.
   368  3.67  0.  0.
   369  3.68  0.  0.
   370  3.69  0.  0.
   371  3.70  0.  0.
   372  3.71  0.  0.
   373  3.72  0.  0.
   374  3.73  0.  0.
   375  3.74  0.  0.
   376  3.75  0.  0.
   377  3.76  0.  0.
   378  3.77  0.  0.
   379  3.78  0.  0.
   380  3.79  0.  0.
   381  3.80  0.  0.
   382  3.81  0.  0.
   383  3.82  0.  0.
   384  3.83  0.  0.
   385  3.84  0.  0.
   386  3.85  0.  0.
   387  3.86  0.  0.
   388  3.87  0.  0.
   389  3.88  0.  0.
   390  3.89  0.  0.
   391  3.90  0.  0.
   392  3.91  0.  0.
   393  3.92  0.  0.
   394  3.93  0.  0.
   395  3.94  0.  0.
   396  3.95  0.  0.
   397  3.96  0.  0.
   398  3.97  0.  0.
   399  3.98  0.  0.
   400  3.99  0.  0.
   401  4.00  0.  0.
   402  4.01  0.  0.
   403  4.02  0.  0.
   404  4.03  0.  0.
   405  4.04  0.  0.
   406  4.05  0.  0.
   407  4.06  0.  0.
   408  4.07  0.  0.
   409  4.08  0.  0.
   410  4.09  0.  0.
   411  4.10  0.  0.
   412  4.11  0.  0.
   413  4.12  0.  0.
   414  4.13  0.  0.
   415  4.14  0.  0.
   416  4.15  0.  0.
   417  4.16  0.  0.
   418  4.17  0.  0.
   419  4.18  0.  0.
   420  4.19  0.  0.
   421  4.20  0.  0.
   422  4.21  0.  0.
   423  4.22  0.  0.
   424  4.23  0.  0.
   425  4.24  0.  0.
   426  4.25  0.  0.
   427  4.26  0.  0.
   428  4.27  0.  0.
   429  4.28  0.  0.
   430  4.29  0.  0.
   431  4.30  0.  0.
   432  4.31  0.  0.
   433  4.32  0.  0.
   434  4.33  0.  0.
   435  4.34  0.  0.
   436  4.35  0.  0.
   437  4.36  0.  0.
   438  4.37  0.  0.
   439  4.38  0.  0.
   440  4.39  0.  0.
   441  4.40  0.  0.
   442  4.41  0.  0.
   443  4.42  0.  0.
   444  4.43  0.  0.
   445  4.44  0.  0.
   446  4.45  0.  0.
   447  4.46  0.  0.
   448  4.47  0.  0.
   449  4.48  0.  0.
   450  4.49  0.  0.
   451  4.50  0.  0.
   452  4.51  0.  0.
   453  4.52  0.  0.
   454  4.53  0.  0.
   455  4.54  0.  0.
   456  4.55  0.  0.
   457  4.56  0.  0.
   458  4.57  0.  0.
   459  4.58  0.  0.
   460  4.59  0.  0.
   461  4.60  0.  0.
   462  4.61  0.  0.
   463  4.62  0.  0.
   464  4.63  0.  0.
   465  4.64  0.  0.
   466  4.65  0.  0.
   467  4.66  0.  0.
   468  4.67  0.  0.
   469  4.68  0.  0.
   470  4.69  0.  0.
   471  4.70  0.  0.
   472  4.71  0.  0.
   473  4.72  0.  0.
   474  4.73  0.  0.
   475  4.74  0.  0.
   476  4.75  0.  0.
   477  4.76  0.  0.
   478  4.77  0.  0.
   479  4.78  0.  0.
   480  4.79  0.  0.
   481  4.80  0.  0.
   482  4.81  0.  0.
   483  4.82  0.  0.
   484  4.83  0.  0.
   485  4.84  0.  0.
   486  4.85  0.  0.
   487  4.86  0.  0.
   488  4.87  0.  0.
   489  4.88  0.  0.
   490  4.89  0.  0.
   491  4.90  0.  0.
   492  4.91  0.  0.
   493  4.92  0.  0.
   494  4.93  0.  0.
   495  4.94  0.  0.
   496  4.95  0.  0.
   497  4.96  0.  0.
   498  4.97  0.  0.
   499  4.98  0.  0.
   500  4.99  0.  0.
   501  5.00  0.  0.
   502  5.01  0.  0.
   503  5.02  0.  0.
   504  5.03  0.  0.
   505  5.04  0.  0.
   506  5.05  0.  0.
   507  5.06  0.  0.
   508  5.07  0.  0.
   509  5.08  0.  0.
   510  5.09  0.  0.
   511  5.10  0.  0.
   512  5.11  0.  0.
   513  5.12  0.  0.
   514  5.13  0.  0.
   515  5.14  0.  0.
   516  5.15  0.  0.
   517  5.16  0.  0.
   518  5.17  0.  0.
   519  5.18  0.  0.
   520  5.19  0.  0.
   521  5.20  0.  0.
   522  5.21  0.  0.
   523  5.22  0.  0.
   524  5.23  0.  0.
   525  5.24  0.  0.
   526  5.25  0.  0.
   527  5.26  0.  0.
   528  5.27  0.  0.
   529  5.28  0.  0.
   530  5.29  0.  0.
   531  5.30  0.  0.
   532  5.31  0.  0.
   533  5.32  0.  0.
   534  5.33  0.  0.
   535  5.34  0.  0.
   536  5.35  0.  0.
   537  5.36  0.  0.
   538  5.37  0.  0.
   539  5.38  0.  0.
   540  5.39  0.  0.
   541  5.40  0.  0.
   542  5.41  0.  0.
   543  5.42  0.  0.
   544  5.43  0.  0.
   545  5.44  0.  0.
   546  5.45  0.  0.
   547  5.46  0.  0.
   548  5.47  0.  0.
   549  5.48  0.  0.
   550  5.49  0.  0.
   551  5.50  0.  0.
   552  5.51  0.  0.
   553  5.52  0.  0.
   554  5.53  0.  0.
   555  5.54  0.  0.
   556  5.55  0.  0.
   557  5.56  0.  0.
   558  5.57  0.  0.
   559  5.58  0.  0.
   560  5.59  0.  0.
   561  5.60  0.  0.
   562  5.61  0.  0.
   563  5.62  0.  0.
   564  5.63  0.  0.
   565  5.64  0.  0.
   566  5.65  0.  0.
   567  5.66  0.  0.
   568  5.67  0.  0.
   569  5.68  0.  0.
   570  5.69  0.  0.
   571  5.70  0.  0.
   572  5.71  0.  0.
   573  5.72  0.  0.
   574  5.73  0.  0.
   575  5.74  0.  0.
   576  5.75  0.  0.
   577  5.76  0.  0.
   578  5.77  0.  0.
   579  5.78  0.  0.
   580  5.79  0.  0.
   581  5.80  0.  0.
   582  5.81  0.  0.
   583  5.82  0.  0.
   584  5.83  0.  0.
   585  5.84  0.  0.
   586  5.85  0.  0.
   587  5.86  0.  0.
   588  5.87  0.  0.
   589  5.88  0.  0.
   590  5.89  0.  0.
   591  5.90  0.  0.
   592  5.91  0.  0.
   593  5.92  0.  0.
   594  5.93  0.  0.
   595  5.94  0.  0.
   596  5.95  0.  0.
   597  5.96  0.  0.
   598  5.97  0.  0.
   599  5.98  0.  0.
   600  5.99  0.  0.
   1                        -4.3386463815195E+00 -9.9124090392030E-01
     1  0.0000000000000E+00 -6.5189731668358E-09  1.2077293387591E-08
     2  1.0000000000000E-02  2.1745339809143E-03 -9.9817547403164E-04
     3  2.0000000000000E-02  8.6896725543084E-03 -3.9862542853710E-03
     4  3.0000000000000E-02  1.9519953091888E-02 -8.9447500939677E-03
     5  4.0000000000000E-02  3.4622700565847E-02 -1.5840715674999E-02
     6  5.0000000000000E-02  5.3937686897404E-02 -2.4627066915132E-02
     7  6.0000000000000E-02  7.7386684146012E-02 -3.5241693293736E-02
     8  7.0000000000000E-02  1.0487294040129E-01 -4.7606409246920E-02
     9  8.0000000000000E-02  1.3628061375866E-01 -6.1625812889515E-02
    10  9.0000000000000E-02  1.7147420505581E-01 -7.7186128200695E-02
    11  1.0000000000000E-01  2.1029803392630E-01 -9.4154113581965E-02
    12  1.1000000000000E-01  2.5257580503980E-01 -1.1237612338323E-01
    13  1.2000000000000E-01  2.9811031204288E-01 -1.3167740937435E-01
    14  1.3000000000000E-01  3.4668332564029E-01 -1.5186174613375E-01
    15  1.4000000000000E-01  3.9805570946569E-01 -1.7271145795938E-01
    16  1.5000000000000E-01  4.5196780294229E-01 -1.9398791532299E-01
    17  1.6000000000000E-01  5.0814010433419E-01 -2.1543255633073E-01
    18  1.7000000000000E-01  5.6627427979938E-01 -2.3676847347158E-01
    19  1.8000000000000E-01  6.2605451567904E-01 -2.5770258856972E-01
    20  1.9000000000000E-01  6.8714922173905E-01 -2.7792841982921E-01
    21  2.0000000000000E-01  7.4921308289569E-01 -2.9712942475002E-01
    22  2.1000000000000E-01  8.1188944641062E-01 -3.1498288213966E-01
    23  2.2000000000000E-01  8.7481302094880E-01 -3.3116425610086E-01
    24  2.3000000000000E-01  9.3761285358216E-01 -3.4535196541493E-01
    25  2.4000000000000E-01  9.9991554111610E-01 -3.5723246381877E-01
    26  2.5000000000000E-01  1.0613486233238E+00 -3.6650552091725E-01
    27  2.6000000000000E-01  1.1215440980887E+00 -3.7288958045824E-01
    28  2.7000000000000E-01  1.1801419923321E+00 -3.7612706292631E-01
    29  2.8000000000000E-01  1.2367939181710E+00 -3.7598947330529E-01
    30  2.9000000000000E-01  1.2911665411728E+00 -3.7228217273431E-01
    31  3.0000000000000E-01  1.3429448869929E+00 -3.6484867484245E-01
    32  3.1000000000000E-01  1.3918354141460E+00 -3.5357433387852E-01
    33  3.2000000000000E-01  1.4375687842014E+00 -3.3838930231102E-01
    34  3.3000000000000E-01  1.4799022662451E+00 -3.1927065019096E-01
    35  3.4000000000000E-01  1.5186217199136E+00 -2.9624355694873E-01
    36  3.5000000000000E-01  1.5535431105118E+00 -2.6938150802415E-01
    37  3.6000000000000E-01  1.5845135204528E+00 -2.3880545327491E-01
    38  3.7000000000000E-01  1.6114116332444E+00 -2.0468191085510E-01
    39  3.8000000000000E-01  1.6341476791707E+00 -1.6722002849167E-01
    40  3.9000000000000E-01  1.6526628453547E+00 -1.2666764304735E-01
    41  4.0000000000000E-01  1.6669281666487E+00 -8.3306408129318E-02
    42  4.1000000000000E-01  1.6769429274217E+00 -3.7446087453169E-02
    43  4.2000000000000E-01  1.6827326173995E+00  1.0581862129212E-02
    44  4.3000000000000E-01  1.6843464968877E+00  6.0431270383869E-02
    45  4.4000000000000E-01  1.6818548376134E+00  1.1174862833860E-01
    46  4.5000000000000E-01  1.6753459147174E+00  1.6418067357291E-01
    47  4.6000000000000E-01  1.6649228328259E+00  2.1738199013454E-01
    48  4.7000000000000E-01  1.6507002743805E+00  2.7102242033530E-01
    49  4.8000000000000E-01  1.6328012613095E+00  3.2479408434897E-01
    50  4.9000000000000E-01  1.6113540215567E+00  3.7841780780286E-01
    51  5.0000000000000E-01  1.5864890498718E+00  4.3164876748126E-01
    52  5.1000000000000E-01  1.5583364476208E+00  4.8428118074057E-01
    53  5.2000000000000E-01  1.5270236192594E+00  5.3615188501500E-01
    54  5.3000000000000E-01  1.4926733936768E+00  5.8714267945929E-01
    55  5.4000000000000E-01  1.4554026270691E+00  6.3718133077361E-01
    56  5.5000000000000E-01  1.4153213306093E+00  6.8624117889484E-01
    57  5.6000000000000E-01  1.3725323512849E+00  7.3433931471059E-01
    58  5.7000000000000E-01  1.3271316182344E+00  7.8153334034834E-01
    59  5.8000000000000E-01  1.2792089501654E+00  8.2791676192721E-01
    60  5.9000000000000E-01  1.2288494024120E+00  8.7361310389782E-01
    61  6.0000000000000E-01  1.1761351153564E+00  9.1876887217350E-01
    62  6.1000000000000E-01  1.1211476097631E+00  9.6354552911521E-01
    63  6.2000000000000E-01  1.0639704595165E+00  1.0081106760441E+00
    64  6.3000000000000E-01  1.0046922587511E+00  1.0526286673516E+00
    65  6.4000000000000E-01  9.4340978882625E-01  1.0972509035780E+00
    66  6.5000000000000E-01  8.8023128138328E-01  1.1421060682637E+00
    67  6.6000000000000E-01  8.1527966715082E-01  1.1872905843150E+00
    68  6.7000000000000E-01  7.4869569646242E-01  1.2328595695899E+00
    69  6.8000000000000E-01  6.8064081680719E-01  1.2788185680890E+00
    70  6.9000000000000E-01  6.1129969523329E-01  1.3251163224212E+00
    71  7.0000000000000E-01  5.4088227908385E-01  1.3716388351624E+00
    72  7.1000000000000E-01  4.6962529729235E-01  1.4182049416139E+00
    73  7.2000000000000E-01  3.9779311614609E-01  1.4645635847368E+00
    74  7.3000000000000E-01  3.2567787780560E-01  1.5103929453495E+00
    75  7.4000000000000E-01  2.5359886663407E-01  1.5553015378124E+00
    76  7.5000000000000E-01  1.8190106716196E-01  1.5988313343747E+00
    77  7.6000000000000E-01  1.1095289784361E-01  1.6404629312078E+00
    78  7.7000000000000E-01  4.1143126165444E-02  1.6796227170983E+00
    79  7.8000000000000E-01 -2.7123007397111E-02  1.7156919531129E+00
    80  7.9000000000000E-01 -9.3428407158666E-02  1.7480176195950E+00
    81  8.0000000000000E-01 -1.5734941099490E-01  1.7759248369527E+00
    82  8.1000000000000E-01 -2.1846165918898E-01  1.7987306201718E+00
    83  8.2000000000000E-01 -2.7634643396600E-01  1.8157586850928E+00
    84  8.3000000000000E-01 -3.3059734407744E-01  1.8263549884113E+00
    85  8.4000000000000E-01 -3.8082721523498E-01  1.8299036541460E+00
    86  8.5000000000000E-01 -4.2667503672894E-01  1.8258429178753E+00
    87  8.6000000000000E-01 -4.6781280754154E-01  1.8136807070996E+00
    88  8.7000000000000E-01 -5.0395212193710E-01  1.7930094721786E+00
    89  8.8000000000000E-01 -5.3485033505167E-01  1.7635198877316E+00
    90  8.9000000000000E-01 -5.6031615348797E-01  1.7250130592706E+00
    91  9.0000000000000E-01 -5.8021450432665E-01  1.6774108940100E+00
    92  9.1000000000000E-01 -5.9447054817006E-01  1.6207643278984E+00
    93  9.2000000000000E-01 -6.0307271761968E-01  1.5552591423194E+00
    94  9.3000000000000E-01 -6.0607468164175E-01  1.4812191528096E+00
    95  9.4000000000000E-01 -6.0359615819696E-01  1.3991066075009E+00
    96  9.5000000000000E-01 -5.9582252181869E-01  1.3095196936088E+00
    97  9.6000000000000E-01 -5.8300317897629E-01  1.2131871148110E+00
    98  9.7000000000000E-01 -5.6544871145294E-01  1.1109597693039E+00
    99  9.8000000000000E-01 -5.4352681595203E-01  1.0037996261164E+00
   100  9.9000000000000E-01 -5.1765709607411E-01  8.9276596433166E-01
   101  1.0000000000000E+00 -4.8830478997606E-01  7.7899920453105E-01
   102  1.0100000000000E+00 -4.5597354278119E-01  6.6370262248469E-01
   103  1.0200000000000E+00 -4.2119735651014E-01  5.4812229033490E-01
   104  1.0300000000000E+00 -3.8453187134388E-01  4.3352563884735E-01
   105  1.0400000000000E+00 -3.4654514984904E-01  3.2117907442827E-01
   106  1.0500000000000E+00 -3.0780814994449E-01  2.1232511549925E-01
   107  1.0600000000000E+00 -2.6888508245154E-01  1.0815953354340E-01
   108  1.0700000000000E+00 -2.3032385475438E-01  9.8089940533764E-03
   109  1.0800000000000E+00 -1.9264680321694E-01 -8.1690308671060E-02
   110  1.0900000000000E+00 -1.5634191344975E-01 -1.6541254158509E-01
   111  1.1000000000000E+00 -1.2185471935375E-01 -2.4056019035764E-01
   112  1.1100000000000E+00 -8.9581059158700E-02 -3.0647966152972E-01
   113  1.1200000000000E+00 -5.9860849791678E-02 -3.6267415139947E-01
   114  1.1300000000000E+00 -3.2973020004593E-02 -4.0881345795889E-01
   115  1.1400000000000E+00 -9.1317185089365E-03 -4.4474047416839E-01
   116  1.1500000000000E+00  1.1516113950608E-02 -4.7047417014519E-01
   117  1.1600000000000E+00  2.8891749005179E-02 -4.8620894571009E-01
   118  1.1700000000000E+00  4.2984223239585E-02 -4.9231031289808E-01
   119  1.1800000000000E+00  5.3848442513818E-02 -4.8930694730535E-01
   120  1.1900000000000E+00  6.1601873828902E-02 -4.7787922676602E-01
   121  1.2000000000000E+00  6.6419892710990E-02 -4.5884445564930E-01
   122  1.2100000000000E+00  6.8529880612729E-02 -4.3313903429627E-01
   123  1.2200000000000E+00  6.8204556310837E-02 -4.0179913265337E-01
   124  1.2300000000000E+00  6.5755791085699E-02 -3.6594389395466E-01
   125  1.2400000000000E+00  6.1527116166287E-02 -3.2675476113535E-01
   126  1.2500000000000E+00  5.5884776255565E-02 -2.8545045106218E-01
   127  1.2600000000000E+00  4.9208380228495E-02 -2.4326107977075E-01
   128  1.2700000000000E+00  4.1881377123566E-02 -2.0140202827341E-01
   129  1.2800000000000E+00  3.4281560315305E-02 -1.6104809071986E-01
   130  1.2900000000000E+00  2.6772282840555E-02 -1.2330923429751E-01
   131  1.3000000000000E+00  1.9695040654092E-02 -8.9209428443061E-02
   132  1.3100000000000E+00  1.3357166053676E-02 -5.9657788331775E-02
   133  1.3200000000000E+00  8.0264257852962E-03 -3.5432040504189E-02
   134  1.3300000000000E+00  3.9260099298229E-03 -1.7165768811520E-02
   135  1.3400000000000E+00  1.2194714232221E-03 -5.2915510819117E-03
   136  1.3500000000000E+00  7.2735910580291E-05 -3.1358440348299E-04
   137  1.3600000000000E+00 -3.8030299696594E-06  1.6342774418750E-05
   138  1.3700000000000E+00 -7.1507538532095E-07  3.0937023274167E-06
   139  1.38  0. -0.
   140  1.39  0.  0.
   141  1.40  0.  0.
   142  1.41  0.  0.
   143  1.42  0.  0.
   144  1.43  0.  0.
   145  1.44  0.  0.
   146  1.45  0.  0.
   147  1.46  0.  0.
   148  1.47  0.  0.
   149  1.48  0.  0.
   150  1.49  0.  0.
   151  1.50  0.  0.
   152  1.51  0.  0.
   153  1.52  0.  0.
   154  1.53  0.  0.
   155  1.54  0.  0.
   156  1.55  0.  0.
   157  1.56  0.  0.
   158  1.57  0.  0.
   159  1.58  0.  0.
   160  1.59  0.  0.
   161  1.60  0.  0.
   162  1.61  0.  0.
   163  1.62  0.  0.
   164  1.63  0.  0.
   165  1.64  0.  0.
   166  1.65  0.  0.
   167  1.66  0.  0.
   168  1.67  0.  0.
   169  1.68  0.  0.
   170  1.69  0.  0.
   171  1.70  0.  0.
   172  1.71  0.  0.
   173  1.72  0.  0.
   174  1.73  0.  0.
   175  1.74  0.  0.
   176  1.75  0.  0.
   177  1.76  0.  0.
   178  1.77  0.  0.
   179  1.78  0.  0.
   180  1.79  0.  0.
   181  1.80  0.  0.
   182  1.81  0.  0.
   183  1.82  0.  0.
   184  1.83  0.  0.
   185  1.84  0.  0.
   186  1.85  0.  0.
   187  1.86  0.  0.
   188  1.87  0.  0.
   189  1.88  0.  0.
   190  1.89  0.  0.
   191  1.90  0.  0.
   192  1.91  0.  0.
   193  1.92  0.  0.
   194  1.93  0.  0.
   195  1.94  0.  0.
   196  1.95  0.  0.
   197  1.96  0.  0.