N     ONCVPSP-4.0.1  r_core=   1.20444   1.35752
      7.0000      5.0000      250217    zatom,zion,pspd
     8       2   1     4   600     0    pspcod,pspxc,lmax,lloc,mmax,r2well
  5.99000000  4.00000000  0.00000000    rchrg fchrg qchrg
     2     2     0     0    nproj
     3     1           extension_switch
     3     0     0    nprojso
   0                         7.4911582677463E+00  6.5443324045987E-01
     1  0.0000000000000E+00 -1.2505622537518E-08  5.4309854946588E-08
     2  1.0000000000000E-02  9.9214365642483E-02 -7.6956650368343E-02
     3  2.0000000000000E-02  1.9796311954904E-01 -1.5273021523757E-01
     4  3.0000000000000E-02  2.9578673064489E-01 -2.2616177138432E-01
     5  4.0000000000000E-02  3.9223769558044E-01 -2.9614014161792E-01
     6  5.0000000000000E-02  4.8688622194012E-01 -3.6162433598909E-01
     7  6.0000000000000E-02  5.7932552392953E-01 -4.2166431502860E-01
     8  7.0000000000000E-02  6.6917661654816E-01 -4.7541958158970E-01
     9  8.0000000000000E-02  7.5609250676064E-01 -5.2217516217824E-01
    10  9.0000000000000E-02  8.3976169519373E-01 -5.6135460389152E-01
    11  1.0000000000000E-01  9.1991091902164E-01 -5.9252968758773E-01
    12  1.1000000000000E-01  9.9630708551658E-01 -6.1542663977080E-01
    13  1.2000000000000E-01  1.0687583657495E+00 -6.2992871281755E-01
    14  1.3000000000000E-01  1.1371144386142E+00 -6.3607509337715E-01
    15  1.4000000000000E-01  1.2012658961822E+00 -6.3405618974751E-01
    16  1.5000000000000E-01  1.2611428418479E+00 -6.2420543847357E-01
    17  1.6000000000000E-01  1.3167127322626E+00 -6.0698785605720E-01
    18  1.7000000000000E-01  1.3679775321941E+00 -5.8298564135967E-01
    19  1.8000000000000E-01  1.4149702677172E+00 -5.5288120601480E-01
    20  1.9000000000000E-01  1.4577510771385E+00 -5.1743807216282E-01
    21  2.0000000000000E-01  1.4964028704306E+00 -4.7748012752535E-01
    22  2.1000000000000E-01  1.5310267164172E+00 -4.3386976602635E-01
    23  2.2000000000000E-01  1.5617370823168E+00 -3.8748546690678E-01
    24  2.3000000000000E-01  1.5886570523790E+00 -3.3919937600572E-01
    25  2.4000000000000E-01  1.6119136512217E+00 -2.8985544938171E-01
    26  2.5000000000000E-01  1.6316333931171E+00 -2.4024870187357E-01
    27  2.6000000000000E-01  1.6479381710417E+00 -1.9110607206488E-01
    28  2.7000000000000E-01  1.6609415889842E+00 -1.4306937127493E-01
    29  2.8000000000000E-01  1.6707458280971E+00 -9.6680728828140E-02
    30  2.9000000000000E-01  1.6774391221256E+00 -5.2370880417192E-02
    31  3.0000000000000E-01  1.6810939005597E+00 -1.0450572588229E-02
    32  3.1000000000000E-01  1.6817656395823E+00  2.8894723846255E-02
    33  3.2000000000000E-01  1.6794924416179E+00  6.5606683246796E-02
    34  3.3000000000000E-01  1.6742953446224E+00  9.9752556000075E-02
    35  3.4000000000000E-01  1.6661793427112E+00  1.3152022611250E-01
    36  3.5000000000000E-01  1.6551350808099E+00  1.6121004542449E-01
    37  3.6000000000000E-01  1.6411411682038E+00  1.8922367454278E-01
    38  3.7000000000000E-01  1.6241670396308E+00  2.1605023447160E-01
    39  3.8000000000000E-01  1.6041762783008E+00  2.4225013864965E-01
    40  3.9000000000000E-01  1.5811303032978E+00  2.6843703107110E-01
    41  4.0000000000000E-01  1.5549923145197E+00  2.9525830104658E-01
    42  4.1000000000000E-01  1.5257313818504E+00  3.2337467789981E-01
    43  4.2000000000000E-01  1.4933265617949E+00  3.5343942877511E-01
    44  4.3000000000000E-01  1.4577709243931E+00  3.8607768935537E-01
    45  4.4000000000000E-01  1.4190753758583E+00  4.2186645061573E-01
    46  4.5000000000000E-01  1.3772721679652E+00  4.6131570505153E-01
    47  4.6000000000000E-01  1.3324179935636E+00  5.0485122374172E-01
    48  4.7000000000000E-01  1.2845965784878E+00  5.5279939207099E-01
    49  4.8000000000000E-01  1.2339206932534E+00  6.0537447814479E-01
    50  4.9000000000000E-01  1.1805335229286E+00  6.6266864535273E-01
    51  5.0000000000000E-01  1.1246093500297E+00  7.2464495083461E-01
    52  5.1000000000000E-01  1.0663535227797E+00  7.9113349660794E-01
    53  5.2000000000000E-01  1.0060016991261E+00  8.6183082177048E-01
    54  5.3000000000000E-01  9.4381837506508E-01  9.3630254449795E-01
    55  5.4000000000000E-01  8.8009472359940E-01  1.0139891835285E+00
    56  5.5000000000000E-01  8.1514578761274E-01  1.0942150124327E+00
    57  5.6000000000000E-01  7.4930708564761E-01  1.1761997280811E+00
    58  5.7000000000000E-01  6.8293070364090E-01  1.2590726490773E+00
    59  5.8000000000000E-01  6.1638095776130E-01  1.3418891020766E+00
    60  5.9000000000000E-01  5.5002972332204E-01  1.4236486051716E+00
    61  6.0000000000000E-01  4.8425153209133E-01  1.5033144189951E+00
    62  6.1000000000000E-01  4.1941854503872E-01  1.5798340086362E+00
    63  6.2000000000000E-01  3.5589550955756E-01  1.6521599434231E+00
    64  6.3000000000000E-01  2.9403480948348E-01  1.7192707572709E+00
    65  6.4000000000000E-01  2.3417171284811E-01  1.7801912995499E+00
    66  6.5000000000000E-01  1.7661991639830E-01  1.8340121248871E+00
    67  6.6000000000000E-01  1.2166747766875E-01  1.8799074993210E+00
    68  6.7000000000000E-01  6.9573215073190E-02  1.9171516388431E+00
    69  6.8000000000000E-01  2.0563644380527E-02  1.9451328434358E+00
    70  6.9000000000000E-01 -2.5169493590635E-02  1.9633652439170E+00
    71  7.0000000000000E-01 -6.7471073814407E-02  1.9714979387086E+00
    72  7.1000000000000E-01 -1.0622377144500E-01  1.9693213614854E+00
    73  7.2000000000000E-01 -1.4134858026466E-01  1.9567707868210E+00
    74  7.3000000000000E-01 -1.7280467107138E-01  1.9339269477669E+00
    75  7.4000000000000E-01 -2.0058861071229E-01  1.9010138051004E+00
    76  7.5000000000000E-01 -2.2473297639139E-01  1.8583935711414E+00
    77  7.6000000000000E-01 -2.4530441256665E-01  1.8065591501111E+00
    78  7.7000000000000E-01 -2.6240118890562E-01  1.7461242106022E+00
    79  7.8000000000000E-01 -2.7615032714659E-01  1.6778111527185E+00
    80  7.9000000000000E-01 -2.8670437212308E-01  1.6024372718295E+00
    81  8.0000000000000E-01 -2.9423788751825E-01  1.5208994519608E+00
    82  8.1000000000000E-01 -2.9894376005175E-01  1.4341577440811E+00
    83  8.2000000000000E-01 -3.0102939674978E-01  1.3432181977085E+00
    84  8.3000000000000E-01 -3.0071289875973E-01  1.2491153183287E+00
    85  8.4000000000000E-01 -2.9821929194654E-01  1.1528945183195E+00
    86  8.5000000000000E-01 -2.9377688940588E-01  1.0555949158572E+00
    87  8.6000000000000E-01 -2.8761385425410E-01  9.5823281530122E-01
    88  8.7000000000000E-01 -2.7995502284849E-01  8.6178617463871E-01
    89  8.8000000000000E-01 -2.7101903923003E-01  7.6718033171237E-01
    90  8.9000000000000E-01 -2.6101584136161E-01  6.7527522224584E-01
    91  9.0000000000000E-01 -2.5014452896978E-01  5.8685428031622E-01
    92  9.1000000000000E-01 -2.3859163180363E-01  5.0261516712808E-01
    93  9.2000000000000E-01 -2.2652978621135E-01  4.2316242796405E-01
    94  9.3000000000000E-01 -2.1411681740003E-01  3.4900213124202E-01
    95  9.4000000000000E-01 -2.0149521486376E-01  2.8053849885746E-01
    96  9.5000000000000E-01 -1.8879197948345E-01  2.1807249450879E-01
    97  9.6000000000000E-01 -1.7611881292632E-01  1.6180229742943E-01
    98  9.7000000000000E-01 -1.6357261337641E-01  1.1182555372618E-01
    99  9.8000000000000E-01 -1.5123623642773E-01  6.8143266980300E-02
   100  9.9000000000000E-01 -1.3917947624755E-01  3.0665164414197E-02
   101  1.0000000000000E+00 -1.2746021989464E-01 -7.8364494351854E-04
   102  1.0100000000000E+00 -1.1612572693790E-01 -2.6454917897311E-02
   103  1.0200000000000E+00 -1.0521398719841E-01 -4.6668636979606E-02
   104  1.0300000000000E+00 -9.4755111424921E-02 -6.1803692318861E-02
   105  1.0400000000000E+00 -8.4772712869900E-02 -7.2288093424860E-02
   106  1.0500000000000E+00 -7.5285241879452E-02 -7.8588912508693E-02
   107  1.0600000000000E+00 -6.6307240549256E-02 -8.1202150673364E-02
   108  1.0700000000000E+00 -5.7850490022101E-02 -8.0642704709635E-02
   109  1.0800000000000E+00 -4.9925028861614E-02 -7.7434596112455E-02
   110  1.0900000000000E+00 -4.2540026939855E-02 -7.2101605946632E-02
   111  1.1000000000000E+00 -3.5704505163741E-02 -6.5158440206345E-02
   112  1.1100000000000E+00 -2.9427896960028E-02 -5.7102530973329E-02
   113  1.1200000000000E+00 -2.3720452537314E-02 -4.8406559703246E-02
   114  1.1300000000000E+00 -1.8593482428663E-02 -3.9511813339913E-02
   115  1.1400000000000E+00 -1.4059525215800E-02 -3.0822069007449E-02
   116  1.1500000000000E+00 -1.0129391762836E-02 -2.2712777868555E-02
   117  1.1600000000000E+00 -6.8096305323360E-03 -1.5539724152433E-02
   118  1.1700000000000E+00 -4.1232616516629E-03 -9.5337951613118E-03
   119  1.1800000000000E+00 -2.0921077659573E-03 -4.8805003755443E-03
   120  1.1900000000000E+00 -7.3547912020950E-04 -1.7239167700865E-03
   121  1.2000000000000E+00 -7.7005142001979E-05 -1.8068482293271E-04
   122  1.2100000000000E+00  4.4731496387047E-06  1.0484501374498E-05
   123  1.2200000000000E+00  2.4108709250380E-07  5.6507518624810E-07
   124  1.23  0.  0.
   125  1.24  0.  0.
   126  1.25  0.  0.
   127  1.26  0.  0.
   128  1.27  0.  0.
   129  1.28  0.  0.
   130  1.29  0.  0.
   131  1.30  0.  0.
   132  1.31  0.  0.
   133  1.32  0.  0.
   134  1.33  0.  0.
   135  1.34  0.  0.
   136  1.35  0.  0.
   137  1.36  0.  0.
   138  1.37  0.  0.
   139  1.38  0.  0.
   140  1.39  0.  0.
   141  1.40  0.  0.
   142  1.41  0.  0.
   143  1.42  0.  0.
   144  1.43  0.  0.
   145  1.44  0.  0.
   146  1.45  0.  0.
   147  1.46  0.  0.
   148  1.47  0.  0.
   149  1.48  0.  0.
   150  1.49  0.  0.
   151  1.50  0.  0.
   152  1.51  0.  0.
   153  1.52  0.  0.
   154  1.53  0.  0.
   155  1.54  0.  0.
   156  1.55  0.  0.
   157  1.56  0.  0.
   158  1.57  0.  0.
   159  1.58  0.  0.
   160  1.59  0.  0.
   161  1.60  0.  0.
   162  1.61  0.  0.
   163  1.62  0.  0.
   164  1.63  0.  0.
   165  1.64  0.  0.
   166  1.65  0.  0.
   167  1.66  0.  0.
   168  1.67  0.  0.
   169  1.68  0.  0.
   170  1.69  0.  0.
   171  1.70  0.  0.
   172  1.71  0.  0.
   173  1.72  0.  0.
   174  1.73  0.  0.
   175  1.74  0.  0.
   176  1.75  0.  0.
   177  1.76  0.  0.
   178  1.77  0.  0.
   179  1.78  0.  0.
   180  1.79  0.  0.
   181  1.80  0.  0.
   182  1.81  0.  0.
   183  1.82  0.  0.
   184  1.83  0.  0.
   185  1.84  0.  0.
   186  1.85  0.  0.
   187  1.86  0.  0.
   188  1.87  0.  0.
   189  1.88  0.  0.
   190  1.89  0.  0.
   191  1.90  0.  0.
   192  1.91  0.  0.
   193  1.92  0.  0.
   194  1.93  0.  0.
   195  1.94  0.  0.
   196  1.95  0.  0.
   197  1.96  0.  0.
   198  1.97  0.  0.
   199  1.98  0.  0.
   200  1.99  0.  0.
   201  2.00  0.  0.
   202  2.01  0.  0.
   203  2.02  0.  0.
   204  2.03  0.  0.
   205  2.04  0.  0.
   206  2.05  0.  0.
   207  2.06  0.  0.
   208  2.07  0.  0.
   209  2.08  0.  0.
   210  2.09  0.  0.
   211  2.10  0.  0.
   212  2.11  0.  0.
   213  2.12  0.  0.
   214  2.13  0.  0.
   215  2.14  0.  0.
   216  2.15  0.  0.
   217  2.16  0.  0.
   218  2.17  0.  0.
   219  2.18  0.  0.
   220  2.19  0.  0.
   221  2.20  0.  0.
   222  2.21  0.  0.
   223  2.22  0.  0.
   224  2.23  0.  0.
   225  2.24  0.  0.
   226  2.25  0.  0.
   227  2.26  0.  0.
   228  2.27  0.  0.
   229  2.28  0.  0.
   230  2.29  0.  0.
   231  2.30  0.  0.
   232  2.31  0.  0.
   233  2.32  0.  0.
   234  2.33  0.  0.
   235  2.34  0.  0.
   236  2.35  0.  0.
   237  2.36  0.  0.
   238  2.37  0.  0.
   239  2.38  0.  0.
   240  2.39  0.  0.
   241  2.40  0.  0.
   242  2.41  0.  0.
   243  2.42  0.  0.
   244  2.43  0.  0.
   245  2.44  0.  0.
   246  2.45  0.  0.
   247  2.46  0.  0.
   248  2.47  0.  0.
   249  2.48  0.  0.
   250  2.49  0.  0.
   251  2.50  0.  0.
   252  2.51  0.  0.
   253  2.52  0.  0.
   254  2.53  0.  0.
   255  2.54  0.  0.
   256  2.55  0.  0.
   257  2.56  0.  0.
   258  2.57  0.  0.
   259  2.58  0.  0.
   260  2.59  0.  0.
   261  2.60  0.  0.
   262  2.61  0.  0.
   263  2.62  0.  0.
   264  2.63  0.  0.
   265  2.64  0.  0.
   266  2.65  0.  0.
   267  2.66  0.  0.
   268  2.67  0.  0.
   269  2.68  0.  0.
   270  2.69  0.  0.
   271  2.70  0.  0.
   272  2.71  0.  0.
   273  2.72  0.  0.
   274  2.73  0.  0.
   275  2.74  0.  0.
   276  2.75  0.  0.
   277  2.76  0.  0.
   278  2.77  0.  0.
   279  2.78  0.  0.
   280  2.79  0.  0.
   281  2.80  0.  0.
   282  2.81  0.  0.
   283  2.82  0.  0.
   284  2.83  0.  0.
   285  2.84  0.  0.
   286  2.85  0.  0.
   287  2.86  0.  0.
   288  2.87  0.  0.
   289  2.88  0.  0.
   290  2.89  0.  0.
   291  2.90  0.  0.
   292  2.91  0.  0.
   293  2.92  0.  0.
   294  2.93  0.  0.
   295  2.94  0.  0.
   296  2.95  0.  0.
   297  2.96  0.  0.
   298  2.97  0.  0.
   299  2.98  0.  0.
   300  2.99  0.  0.
   301  3.00  0.  0.
   302  3.01  0.  0.
   303  3.02  0.  0.
   304  3.03  0.  0.
   305  3.04  0.  0.
   306  3.05  0.  0.
   307  3.06  0.  0.
   308  3.07  0.  0.
   309  3.08  0.  0.
   310  3.09  0.  0.
   311  3.10  0.  0.
   312  3.11  0.  0.
   313  3.12  0.  0.
   314  3.13  0.  0.
   315  3.14  0.  0.
   316  3.15  0.  0.
   317  3.16  0.  0.
   318  3.17  0.  0.
   319  3.18  0.  0.
   320  3.19  0.  0.
   321  3.20  0.  0.
   322  3.21  0.  0.
   323  3.22  0.  0.
   324  3.23  0.  0.
   325  3.24  0.  0.
   326  3.25  0.  0.
   327  3.26  0.  0.
   328  3.27  0.  0.
   329  3.28  0.  0.
   330  3.29  0.  0.
   331  3.30  0.  0.
   332  3.31  0.  0.
   333  3.32  0.  0.
   334  3.33  0.  0.
   335  3.34  0.  0.
   336  3.35  0.  0.
   337  3.36  0.  0.
   338  3.37  0.  0.
   339  3.38  0.  0.
   340  3.39  0.  0.
   341  3.40  0.  0.
   342  3.41  0.  0.
   343  3.42  0.  0.
   344  3.43  0.  0.
   345  3.44  0.  0.
   346  3.45  0.  0.
   347  3.46  0.  0.
   348  3.47  0.  0.
   349  3.48  0.  0.
   350  3.49  0.  0.
   351  3.50  0.  0.
   352  3.51  0.  0.
   353  3.52  0.  0.
   354  3.53  0.  0.
   355  3.54  0.  0.
   356  3.55  0.  0.
   357  3.56  0.  0.
   358  3.57  0.  0.
   359  3.58  0.  0.
   360  3.59  0.  0.
   361  3.60  0.  0.
   362  3.61  0.  0.
   363  3.62  0.  0.
   364  3.63  0.  0.
   365  3.64  0.  0.
   366  3.65  0.  0.
   367  3.66  0.  0.
   368  3.67  0.  0.
   369  3.68  0.  0.
   370  3.69  0.  0.
   371  3.70  0.  0.
   372  3.71  0.  0.
   373  3.72  0.  0.
   374  3.73  0.  0.
   375  3.74  0.  0.
   376  3.75  0.  0.
   377  3.76  0.  0.
   378  3.77  0.  0.
   379  3.78  0.  0.
   380  3.79  0.  0.
   381  3.80  0.  0.
   382  3.81  0.  0.
   383  3.82  0.  0.
   384  3.83  0.  0.
   385  3.84  0.  0.
   386  3.85  0.  0.
   387  3.86  0.  0.
   388  3.87  0.  0.
   389  3.88  0.  0.
   390  3.89  0.  0.
   391  3.90  0.  0.
   392  3.91  0.  0.
   393  3.92  0.  0.
   394  3.93  0.  0.
   395  3.94  0.  0.
   396  3.95  0.  0.
   397  3.96  0.  0.
   398  3.97  0.  0.
   399  3.98  0.  0.
   400  3.99  0.  0.
   401  4.00  0.  0.
   402  4.01  0.  0.
   403  4.02  0.  0.
   404  4.03  0.  0.
   405  4.04  0.  0.
   406  4.05  0.  0.
   407  4.06  0.  0.
   408  4.07  0.  0.
   409  4.08  0.  0.
   410  4.09  0.  0.
   411  4.10  0.  0.
   412  4.11  0.  0.
   413  4.12  0.  0.
   414  4.13  0.  0.
   415  4.14  0.  0.
   416  4.15  0.  0.
   417  4.16  0.  0.
   418  4.17  0.  0.
   419  4.18  0.  0.
   420  4.19  0.  0.
   421  4.20  0.  0.
   422  4.21  0.  0.
   423  4.22  0.  0.
   424  4.23  0.  0.
   425  4.24  0.  0.
   426  4.25  0.  0.
   427  4.26  0.  0.
   428  4.27  0.  0.
   429  4.28  0.  0.
   430  4.29  0.  0.
   431  4.30  0.  0.
   432  4.31  0.  0.
   433  4.32  0.  0.
   434  4.33  0.  0.
   435  4.34  0.  0.
   436  4.35  0.  0.
   437  4.36  0.  0.
   438  4.37  0.  0.
   439  4.38  0.  0.
   440  4.39  0.  0.
   441  4.40  0.  0.
   442  4.41  0.  0.
   443  4.42  0.  0.
   444  4.43  0.  0.
   445  4.44  0.  0.
   446  4.45  0.  0.
   447  4.46  0.  0.
   448  4.47  0.  0.
   449  4.48  0.  0.
   450  4.49  0.  0.
   451  4.50  0.  0.
   452  4.51  0.  0.
   453  4.52  0.  0.
   454  4.53  0.  0.
   455  4.54  0.  0.
   456  4.55  0.  0.
   457  4.56  0.  0.
   458  4.57  0.  0.
   459  4.58  0.  0.
   460  4.59  0.  0.
   461  4.60  0.  0.
   462  4.61  0.  0.
   463  4.62  0.  0.
   464  4.63  0.  0.
   465  4.64  0.  0.
   466  4.65  0.  0.
   467  4.66  0.  0.
   468  4.67  0.  0.
   469  4.68  0.  0.
   470  4.69  0.  0.
   471  4.70  0.  0.
   472  4.71  0.  0.
   473  4.72  0.  0.
   474  4.73  0.  0.
   475  4.74  0.  0.
   476  4.75  0.  0.
   477  4.76  0.  0.
   478  4.77  0.  0.
   479  4.78  0.  0.
   480  4.79  0.  0.
   481  4.80  0.  0.
   482  4.81  0.  0.
   483  4.82  0.  0.
   484  4.83  0.  0.
   485  4.84  0.  0.
   486  4.85  0.  0.
   487  4.86  0.  0.
   488  4.87  0.  0.
   489  4.88  0.  0.
   490  4.89  0.  0.
   491  4.90  0.  0.
   492  4.91  0.  0.
   493  4.92  0.  0.
   494  4.93  0.  0.
   495  4.94  0.  0.
   496  4.95  0.  0.
   497  4.96  0.  0.
   498  4.97  0.  0.
   499  4.98  0.  0.
   500  4.99  0.  0.
   501  5.00  0.  0.
   502  5.01  0.  0.
   503  5.02  0.  0.
   504  5.03  0.  0.
   505  5.04  0.  0.
   506  5.05  0.  0.
   507  5.06  0.  0.
   508  5.07  0.  0.
   509  5.08  0.  0.
   510  5.09  0.  0.
   511  5.10  0.  0.
   512  5.11  0.  0.
   513  5.12  0.  0.
   514  5.13  0.  0.
   515  5.14  0.  0.
   516  5.15  0.  0.
   517  5.16  0.  0.
   518  5.17  0.  0.
   519  5.18  0.  0.
   520  5.19  0.  0.
   521  5.20  0.  0.
   522  5.21  0.  0.
   523  5.22  0.  0.
   524  5.23  0.  0.
   525  5.24  0.  0.
   526  5.25  0.  0.
   527  5.26  0.  0.
   528  5.27  0.  0.
   529  5.28  0.  0.
   530  5.29  0.  0.
   531  5.30  0.  0.
   532  5.31  0.  0.
   533  5.32  0.  0.
   534  5.33  0.  0.
   535  5.34  0.  0.
   536  5.35  0.  0.
   537  5.36  0.  0.
   538  5.37  0.  0.
   539  5.38  0.  0.
   540  5.39  0.  0.
   541  5.40  0.  0.
   542  5.41  0.  0.
   543  5.42  0.  0.
   544  5.43  0.  0.
   545  5.44  0.  0.
   546  5.45  0.  0.
   547  5.46  0.  0.
   548  5.47  0.  0.
   549  5.48  0.  0.
   550  5.49  0.  0.
   551  5.50  0.  0.
   552  5.51  0.  0.
   553  5.52  0.  0.
   554  5.53  0.  0.
   555  5.54  0.  0.
   556  5.55  0.  0.
   557  5.56  0.  0.
   558  5.57  0.  0.
   559  5.58  0.  0.
   560  5.59  0.  0.
   561  5.60  0.  0.
   562  5.61  0.  0.
   563  5.62  0.  0.
   564  5.63  0.  0.
   565  5.64  0.  0.
   566  5.65  0.  0.
   567  5.66  0.  0.
   568  5.67  0.  0.
   569  5.68  0.  0.
   570  5.69  0.  0.
   571  5.70  0.  0.
   572  5.71  0.  0.
   573  5.72  0.  0.
   574  5.73  0.  0.
   575  5.74  0.  0.
   576  5.75  0.  0.
   577  5.76  0.  0.
   578  5.77  0.  0.
   579  5.78  0.  0.
   580  5.79  0.  0.
   581  5.80  0.  0.
   582  5.81  0.  0.
   583  5.82  0.  0.
   584  5.83  0.  0.
   585  5.84  0.  0.
   586  5.85  0.  0.
   587  5.86  0.  0.
   588  5.87  0.  0.
   589  5.88  0.  0.
   590  5.89  0.  0.
   591  5.90  0.  0.
   592  5.91  0.  0.
   593  5.92  0.  0.
   594  5.93  0.  0.
   595  5.94  0.  0.
   596  5.95  0.  0.
   597  5.96  0.  0.
   598  5.97  0.  0.
   599  5.98  0.  0.
   600  5.99  0.  0.
   1                        -4.3040003686300E+00 -9.8077247407556E-01
     1  0.0000000000000E+00 -6.4897324736357E-09  1.2225444837033E-08
     2  1.0000000000000E-02  2.1563998161666E-03 -9.7353659672376E-04
     3  2.0000000000000E-02  8.6173951594432E-03 -3.8883134908872E-03
     4  3.0000000000000E-02  1.9358298901292E-02 -8.7266789123941E-03
     5  4.0000000000000E-02  3.4337720828467E-02 -1.5458711374647E-02
     6  5.0000000000000E-02  5.3497215317008E-02 -2.4041495983523E-02
     7  6.0000000000000E-02  7.6760817896314E-02 -3.4418168434680E-02
     8  7.0000000000000E-02  1.0403449931543E-01 -4.6516781417550E-02
     9  8.0000000000000E-02  1.3520557221348E-01 -6.0249060369812E-02
    10  9.0000000000000E-02  1.7014209079195E-01 -7.5509125342535E-02
    11  1.0000000000000E-01  2.0869228779879E-01 -9.2172262767200E-02
    12  1.1000000000000E-01  2.5068409551490E-01 -1.1009383487273E-01
    13  1.2000000000000E-01  2.9592479818113E-01 -1.2910841519252E-01
    14  1.3000000000000E-01  3.4420086236642E-01 -1.4902923593949E-01
    15  1.4000000000000E-01  3.9527798915622E-01 -1.6964802703540E-01
    16  1.5000000000000E-01  4.4890142778528E-01 -1.9073531738302E-01
    17  1.6000000000000E-01  5.0479658455549E-01 -2.1204125680560E-01
    18  1.7000000000000E-01  5.6266995371696E-01 -2.3329700227636E-01
    19  1.8000000000000E-01  6.2221038864658E-01 -2.5421669504777E-01
    20  1.9000000000000E-01  6.8309072236628E-01 -2.7450003656823E-01
    21  2.0000000000000E-01  7.4496973647072E-01 -2.9383545120709E-01
    22  2.1000000000000E-01  8.0749446717339E-01 -3.1190380341455E-01
    23  2.2000000000000E-01  8.7030282673956E-01 -3.2838261666276E-01
    24  2.3000000000000E-01  9.3302650837011E-01 -3.4295072200446E-01
    25  2.4000000000000E-01  9.9529413294828E-01 -3.5529324599261E-01
    26  2.5000000000000E-01  1.0567345872645E+00 -3.6510683164436E-01
    27  2.6000000000000E-01  1.1169804956791E+00 -3.7210497267770E-01
    28  2.7000000000000E-01  1.1756717609230E+00 -3.7602333090256E-01
    29  2.8000000000000E-01  1.2324591050972E+00 -3.7662489983292E-01
    30  2.9000000000000E-01  1.2870075390826E+00 -3.7370487463009E-01
    31  3.0000000000000E-01  1.3389996876522E+00 -3.6709508960764E-01
    32  3.1000000000000E-01  1.3881388986505E+00 -3.5666788982931E-01
    33  3.2000000000000E-01  1.4341520677014E+00 -3.4233931279224E-01
    34  3.3000000000000E-01  1.4767921149783E+00 -3.2407146966757E-01
    35  3.4000000000000E-01  1.5158400575249E+00 -3.0187403280131E-01
    36  3.5000000000000E-01  1.5511066293055E+00 -2.7580475677972E-01
    37  3.6000000000000E-01  1.5824334113761E+00 -2.4596898384207E-01
    38  3.7000000000000E-01  1.6096934460562E+00 -2.1251811019117E-01
    39  3.8000000000000E-01  1.6327913214515E+00 -1.7564701713788E-01
    40  3.9000000000000E-01  1.6516627258041E+00 -1.3559049928277E-01
    41  4.0000000000000E-01  1.6662734845715E+00 -9.2618750305005E-02
    42  4.1000000000000E-01  1.6766181064988E+00 -4.7031994589752E-02
    43  4.2000000000000E-01  1.6827178778727E+00  8.4562092749660E-04
    44  4.3000000000000E-01  1.6846185562600E+00  5.0672736475259E-02
    45  4.4000000000000E-01  1.6823877259891E+00  1.0209793169286E-01
    46  4.5000000000000E-01  1.6761118870989E+00  1.5476714430444E-01
    47  4.6000000000000E-01  1.6658933571602E+00  2.0833116635034E-01
    48  4.7000000000000E-01  1.6518470710220E+00  2.6245302114395E-01
    49  4.8000000000000E-01  1.6340973669528E+00  3.1681502132868E-01
    50  4.9000000000000E-01  1.6127748486838E+00  3.7112531101935E-01
    51  5.0000000000000E-01  1.5880134114495E+00  4.2512370311369E-01
    52  5.1000000000000E-01  1.5599475162403E+00  4.7858663639473E-01
    53  5.2000000000000E-01  1.5287097901915E+00  5.3133109580313E-01
    54  5.3000000000000E-01  1.4944290224487E+00  5.8321736287980E-01
    55  5.4000000000000E-01  1.4572286141661E+00  6.3415049136391E-01
    56  5.5000000000000E-01  1.4172255287555E+00  6.8408043464258E-01
    57  5.6000000000000E-01  1.3745297744112E+00  7.3300078643707E-01
    58  5.7000000000000E-01  1.3292444356540E+00  7.8094613291961E-01
    59  5.8000000000000E-01  1.2814662545422E+00  8.2798805245642E-01
    60  5.9000000000000E-01  1.2312867457287E+00  8.7422983737217E-01
    61  6.0000000000000E-01  1.1787938131308E+00  9.1980004951226E-01
    62  6.1000000000000E-01  1.1240738200820E+00  9.6484505691307E-01
    63  6.2000000000000E-01  1.0672140498880E+00  1.0095207315765E+00
    64  6.3000000000000E-01  1.0083054801613E+00  1.0539835172283E+00
    65  6.4000000000000E-01  9.4744578253098E-01  1.0983811001471E+00
    66  6.5000000000000E-01  8.8474244971681E-01  1.1428429349011E+00
    67  6.6000000000000E-01  8.2031594479300E-01  1.1874708894815E+00
    68  6.7000000000000E-01  7.5430276303390E-01  1.2323302803594E+00
    69  6.8000000000000E-01  6.8685829519261E-01  1.2774415670767E+00
    70  6.9000000000000E-01  6.1815938254304E-01  1.3227729679409E+00
    71  7.0000000000000E-01  5.4840645854368E-01  1.3682342432364E+00
    72  7.1000000000000E-01  4.7782517951646E-01  1.4136718702860E+00
    73  7.2000000000000E-01  4.0666745715010E-01  1.4588658060866E+00
    74  7.3000000000000E-01  3.3521181873186E-01  1.5035279986510E+00
    75  7.4000000000000E-01  2.6376303650636E-01  1.5473027683490E+00
    76  7.5000000000000E-01  1.9265098510606E-01  1.5897691363460E+00
    77  7.6000000000000E-01  1.2222870519106E-01  1.6304451296786E+00
    78  7.7000000000000E-01  5.2869671810923E-02  1.6687940427423E+00
    79  7.8000000000000E-01 -1.5035712938483E-02  1.7042325841769E+00
    80  7.9000000000000E-01 -8.1084362176027E-02  1.7361407876101E+00
    81  8.0000000000000E-01 -1.4486541980160E-01  1.7638735157244E+00
    82  8.1000000000000E-01 -2.0596576786666E-01  1.7867733409472E+00
    83  8.2000000000000E-01 -2.6397602582736E-01  1.8041845439438E+00
    84  8.3000000000000E-01 -3.1849692531475E-01  1.8154679342017E+00
    85  8.4000000000000E-01 -3.6914593005475E-01  1.8200161663654E+00
    86  8.5000000000000E-01 -4.1556395942610E-01  1.8172692025599E+00
    87  8.6000000000000E-01 -4.5742206620674E-01  1.8067295554687E+00
    88  8.7000000000000E-01 -4.9442791460425E-01  1.7879769400043E+00
    89  8.8000000000000E-01 -5.2633190388660E-01  1.7606819633929E+00
    90  8.9000000000000E-01 -5.5293278593117E-01  1.7246184945661E+00
    91  9.0000000000000E-01 -5.7408263180243E-01  1.6796743738394E+00
    92  9.1000000000000E-01 -5.8969101297039E-01  1.6258601526962E+00
    93  9.2000000000000E-01 -5.9972827681315E-01  1.5633155905635E+00
    94  9.3000000000000E-01 -6.0422781334048E-01  1.4923136800635E+00
    95  9.4000000000000E-01 -6.0328723027563E-01  1.4132620234257E+00
    96  9.5000000000000E-01 -5.9706837630237E-01  1.3267014394474E+00
    97  9.6000000000000E-01 -5.8579617693114E-01  1.2333017413708E+00
    98  9.7000000000000E-01 -5.6975627348931E-01  1.1338546898874E+00
    99  9.8000000000000E-01 -5.4929148260561E-01  1.0292641907460E+00
   100  9.9000000000000E-01 -5.2479712058771E-01  9.2053387155884E-01
   101  1.0000000000000E+00 -4.9671526365912E-01  8.0875223585806E-01
   102  1.0100000000000E+00 -4.6552804046093E-01  6.9507565266955E-01
   103  1.0200000000000E+00 -4.3175007691323E-01  5.8070949536433E-01
   104  1.0300000000000E+00 -3.9592023487392E-01  4.6688779291421E-01
   105  1.0400000000000E+00 -3.5859280449598E-01  3.5485179867515E-01
   106  1.0500000000000E+00 -3.2032832524849E-01  2.4582791524871E-01
   107  1.0600000000000E+00 -2.8168422186393E-01  1.4100543799460E-01
   108  1.0700000000000E+00 -2.4320544865198E-01  4.1514593590650E-02
   109  1.0800000000000E+00 -2.0541533846277E-01 -5.1594646781819E-02
   110  1.0900000000000E+00 -1.6880685095979E-01 -1.3737250777992E-01
   111  1.1000000000000E+00 -1.3383440875831E-01 -2.1498765051723E-01
   112  1.1100000000000E+00 -1.0090649948733E-01 -2.8374328940638E-01
   113  1.1200000000000E+00 -7.0379207115955E-02 -3.4309080048930E-01
   114  1.1300000000000E+00 -4.2550817303804E-02 -3.9264048502818E-01
   115  1.1400000000000E+00 -1.7657619375032E-02 -4.3216920910652E-01
   116  1.1500000000000E+00  4.1289975798563E-03 -4.6162470380655E-01
   117  1.1600000000000E+00  2.2704084645577E-02 -4.8112638031401E-01
   118  1.1700000000000E+00  3.8029268649552E-02 -4.9096258795063E-01
   119  1.1800000000000E+00  5.0131473610747E-02 -4.9158431949564E-01
   120  1.1900000000000E+00  5.9100249424912E-02 -4.8359544517105E-01
   121  1.2000000000000E+00  6.5083761939069E-02 -4.6773963946814E-01
   122  1.2100000000000E+00  6.8283523305225E-02 -4.4488422038282E-01
   123  1.2200000000000E+00  6.8948691402450E-02 -4.1600365661864E-01
   124  1.2300000000000E+00  6.7370589992288E-02 -3.8216469283838E-01
   125  1.2400000000000E+00  6.3875364063420E-02 -3.4450573359588E-01
   126  1.2500000000000E+00  5.8815453738736E-02 -3.0421288753657E-01
   127  1.2600000000000E+00  5.2560603977436E-02 -2.6249501611100E-01
   128  1.2700000000000E+00  4.5488606264044E-02 -2.2055828359611E-01
   129  1.2800000000000E+00  3.7975989165133E-02 -1.7958076057510E-01
   130  1.2900000000000E+00  3.0388871333041E-02 -1.4068761780314E-01
   131  1.3000000000000E+00  2.3075780549432E-02 -1.0493023123717E-01
   132  1.3100000000000E+00  1.6357296922321E-02 -7.3260600084448E-02
   133  1.3200000000000E+00  1.0517002596134E-02 -4.6508388685696E-02
   134  1.3300000000000E+00  5.7968722730685E-03 -2.5366688466022E-02
   135  1.3400000000000E+00  2.3925836723376E-03 -1.0380669329250E-02
   136  1.3500000000000E+00  4.4961822261462E-04 -1.9375799226967E-03
   137  1.3600000000000E+00 -2.4779519285737E-05  1.0634658994583E-04
   138  1.3700000000000E+00  7.5394393303947E-06 -3.2388317340568E-05
   139  1.38  0.  0.
   140  1.39  0.  0.
   141  1.40  0.  0.
   142  1.41  0.  0.
   143  1.42  0.  0.
   144  1.43  0.  0.
   145  1.44  0.  0.
   146  1.45  0.  0.
   147  1.46  0.  0.
   148  1.47  0.  0.
   149  1.48  0.  0.
   150  1.49  0.  0.
   151  1.50  0.  0.
   152  1.51  0.  0.
   153  1.52  0.  0.
   154  1.53  0.  0.
   155  1.54  0.  0.
   156  1.55  0.  0.
   157  1.56  0.  0.
   158  1.57  0.  0.
   159  1.58  0.  0.
   160  1.59  0.  0.
   161  1.60  0.  0.
   162  1.61  0.  0.
   163  1.62  0.  0.
   164  1.63  0.  0.
   165  1.64  0.  0.
   166  1.65  0.  0.
   167  1.66  0.  0.
   168  1.67  0.  0.
   169  1.68  0.  0.
   170  1.69  0.  0.
   171  1.70  0.  0.
   172  1.71  0.  0.
   173  1.72  0.  0.
   174  1.73  0.  0.
   175  1.74  0.  0.
   176  1.75  0.  0.
   177  1.76  0.  0.
   178  1.77  0.  0.
   179  1.78  0.  0.
   180  1.79  0.  0.
   181  1.80  0.  0.
   182  1.81  0.  0.
   183  1.82  0.  0.
   184  1.83  0.  0.
   185  1.84  0.  0.
   186  1.85  0.  0.
   187  1.86  0.  0.
   188  1.87  0.  0.
   189  1.88  0.  0.
   190  1.89  0.  0.
   191  1.90  0.  0.
   192  1.91  0.  0.
   193  1.92  0.  0.
   194  1.93  0.  0.
   195  1.94  0.  0.
   196  1.95  0.  0.