N     ONCVPSP-4.0.1  r_core=   1.20444   1.35752
      7.0000      5.0000      250925    zatom,zion,pspd
     8   -1012   1     4   600     0    pspcod,pspxc,lmax,lloc,mmax,r2well
  5.99000000  4.00000000  0.00000000    rchrg fchrg qchrg
     2     2     0     0    nproj
     3     1           extension_switch
     3     0     0    nprojso
   0                         7.4918508826656E+00  6.5461600088290E-01
     1  0.0000000000000E+00 -1.2494848711242E-08  5.4249445269328E-08
     2  1.0000000000000E-02  9.9202674817606E-02 -7.6920425252106E-02
     3  2.0000000000000E-02  1.9793994060625E-01 -1.5265876001989E-01
     4  3.0000000000000E-02  2.9575246451051E-01 -2.2605705116718E-01
     5  4.0000000000000E-02  3.9219293253664E-01 -2.9600504236561E-01
     6  5.0000000000000E-02  4.8683172860621E-01 -3.6146259225034E-01
     7  6.0000000000000E-02  5.7926222641190E-01 -4.2148041643228E-01
     8  7.0000000000000E-02  6.6910558017743E-01 -4.7521866047628E-01
     9  8.0000000000000E-02  7.5601491291874E-01 -5.2196286520370E-01
    10  9.0000000000000E-02  8.3967881580450E-01 -5.6113695084327E-01
    11  1.0000000000000E-01  9.1982408933499E-01 -5.9231292097112E-01
    12  1.1000000000000E-01  9.9621767585602E-01 -6.1521706895381E-01
    13  1.2000000000000E-01  1.0686677529161E+00 -6.2973255665288E-01
    14  1.3000000000000E-01  1.1370239776442E+00 -6.3589832525308E-01
    15  1.4000000000000E-01  1.2011768931444E+00 -6.3390438895061E-01
    16  1.5000000000000E-01  1.2610565283343E+00 -6.2408365157893E-01
    17  1.6000000000000E-01  1.3166302421811E+00 -6.0690047180097E-01
    18  1.7000000000000E-01  1.3678998814079E+00 -5.8293628210027E-01
    19  1.8000000000000E-01  1.4148983370013E+00 -5.5287263846262E-01
    20  1.9000000000000E-01  1.4576855988348E+00 -5.1747213956497E-01
    21  2.0000000000000E-01  1.4963444190854E+00 -4.7755770494411E-01
    22  2.1000000000000E-01  1.5309757035835E+00 -4.3399073976331E-01
    23  2.2000000000000E-01  1.5616937555929E+00 -3.8764873851073E-01
    24  2.3000000000000E-01  1.5886214986482E+00 -3.3940289068276E-01
    25  2.4000000000000E-01  1.6118858039471E+00 -2.9009624800968E-01
    26  2.5000000000000E-01  1.6316130434466E+00 -2.4052299523170E-01
    27  2.6000000000000E-01  1.6479249823775E+00 -1.9140933533475E-01
    28  2.7000000000000E-01  1.6609351145868E+00 -1.4339645636543E-01
    29  2.8000000000000E-01  1.6707455312189E+00 -9.7025991638075E-02
    30  2.9000000000000E-01  1.6774443981058E+00 -5.2728319785770E-02
    31  3.0000000000000E-01  1.6811041002675E+00 -1.0813977403147E-02
    32  3.1000000000000E-01  1.6817800935654E+00  2.8531623102827E-02
    33  3.2000000000000E-01  1.6795104842978E+00  6.5250062327672E-02
    34  3.3000000000000E-01  1.6743163378849E+00  9.9408347909364E-02
    35  3.4000000000000E-01  1.6662026982596E+00  1.3119397902089E-01
    36  3.5000000000000E-01  1.6551602806854E+00  1.6090679100387E-01
    37  3.6000000000000E-01  1.6411677829313E+00  1.8894780996020E-01
    38  3.7000000000000E-01  1.6241947435135E+00  2.1580542092341E-01
    39  3.8000000000000E-01  1.6042048614654E+00  2.4203921888594E-01
    40  3.9000000000000E-01  1.5811596801802E+00  2.6826196787164E-01
    41  4.0000000000000E-01  1.5550225285762E+00  2.9512013807405E-01
    42  4.1000000000000E-01  1.5257626063803E+00  3.2327352378881E-01
    43  4.2000000000000E-01  1.4933590968618E+00  3.5337446473055E-01
    44  4.3000000000000E-01  1.4578051899361E+00  3.8604719994610E-01
    45  4.4000000000000E-01  1.4191119011822E+00  4.2186787687441E-01
    46  4.5000000000000E-01  1.3773115778924E+00  4.6134571844309E-01
    47  4.6000000000000E-01  1.3324609916161E+00  5.0490581905511E-01
    48  4.7000000000000E-01  1.2846439275439E+00  5.5287399683370E-01
    49  4.8000000000000E-01  1.2339731941846E+00  6.0546407576870E-01
    50  4.9000000000000E-01  1.1805919917747E+00  6.6276790890162E-01
    51  5.0000000000000E-01  1.1246745943035E+00  7.2474838406613E-01
    52  5.1000000000000E-01  1.0664263175123E+00  7.9123557879116E-01
    53  5.2000000000000E-01  1.0060827632684E+00  8.6192615271555E-01
    54  5.3000000000000E-01  9.4390834884727E-01  9.3638598626093E-01
    55  5.4000000000000E-01  8.8019414742486E-01  1.0140559953660E+00
    56  5.5000000000000E-01  8.1525508301970E-01  1.0942609757782E+00
    57  5.6000000000000E-01  7.4942653881688E-01  1.1762212585861E+00
    58  5.7000000000000E-01  6.8306045186190E-01  1.2590668931074E+00
    59  5.8000000000000E-01  6.1652097919192E-01  1.3418540154506E+00
    60  5.9000000000000E-01  5.5017983029397E-01  1.4235830123890E+00
    61  6.0000000000000E-01  4.8441136812302E-01  1.5032180516814E+00
    62  6.1000000000000E-01  4.1958758562559E-01  1.5797075224530E+00
    63  6.2000000000000E-01  3.5607306671623E-01  1.6520049132123E+00
    64  6.3000000000000E-01  2.9422003993548E-01  1.7190896507245E+00
    65  6.4000000000000E-01  2.3436362964114E-01  1.7799874302030E+00
    66  6.5000000000000E-01  1.7681740368265E-01  1.8337895857146E+00
    67  6.6000000000000E-01  1.2186930827352E-01  1.8796710786533E+00
    68  6.7000000000000E-01  6.9778070464693E-02  1.9169067207117E+00
    69  6.8000000000000E-01  2.0770136533653E-02  1.9448852947907E+00
    70  6.9000000000000E-01 -2.4962798915634E-02  1.9631212914247E+00
    71  7.0000000000000E-01 -6.7265632922949E-02  1.9712640380401E+00
    72  7.1000000000000E-01 -1.0602103823173E-01  1.9691040621233E+00
    73  7.2000000000000E-01 -1.4114998195254E-01  1.9565765954655E+00
    74  7.3000000000000E-01 -1.7261158469386E-01  1.9337621933947E+00
    75  7.4000000000000E-01 -2.0040234083825E-01  1.9008845086293E+00
    76  7.5000000000000E-01 -2.2455473455263E-01  1.8583053224901E+00
    77  7.6000000000000E-01 -2.4513529879813E-01  1.8065169952120E+00
    78  7.7000000000000E-01 -2.6224217574931E-01  1.7461325506442E+00
    79  7.8000000000000E-01 -2.7600224640434E-01  1.6778736575651E+00
    80  7.9000000000000E-01 -2.8656790457215E-01  1.6025568091919E+00
    81  8.0000000000000E-01 -2.9411355572942E-01  1.5210780335128E+00
    82  8.1000000000000E-01 -2.9883192437368E-01  1.4343964892925E+00
    83  8.2000000000000E-01 -3.0093025444881E-01  1.3435173157596E+00
    84  8.3000000000000E-01 -3.0062648623196E-01  1.2494741080601E+00
    85  8.4000000000000E-01 -2.9814548985141E-01  1.1533113857745E+00
    86  8.5000000000000E-01 -2.9371543050860E-01  1.0560674086046E+00
    87  8.6000000000000E-01 -2.8756433371059E-01  9.5875767239046E-01
    88  8.7000000000000E-01 -2.7991691062051E-01  8.6235939073813E-01
    89  8.8000000000000E-01 -2.7099169428255E-01  7.6779723372964E-01
    90  8.9000000000000E-01 -2.6099852726846E-01  6.7593055652800E-01
    91  9.0000000000000E-01 -2.5013643053825E-01  5.8754230837480E-01
    92  9.1000000000000E-01 -2.3859187232367E-01  5.0332976773967E-01
    93  9.2000000000000E-01 -2.2653744493985E-01  4.2389720345449E-01
    94  9.3000000000000E-01 -2.1413094690571E-01  3.4975051577264E-01
    95  9.4000000000000E-01 -2.0151485788088E-01  2.8129386659182E-01
    96  9.5000000000000E-01 -1.8881618495395E-01  2.1882826564300E-01
    97  9.6000000000000E-01 -1.7614665094726E-01  1.6255204021557E-01
    98  9.7000000000000E-01 -1.6360318881194E-01  1.1256308079678E-01
    99  9.8000000000000E-01 -1.5126870099104E-01  6.8862724489803E-02
   100  9.9000000000000E-01 -1.3921303890670E-01  3.1361112740770E-02
   101  1.0000000000000E+00 -1.2749415550470E-01 -1.1615995185713E-04
   102  1.0100000000000E+00 -1.1615938305042E-01 -2.5820303900483E-02
   103  1.0200000000000E+00 -1.0524678904504E-01 -4.6070704869607E-02
   104  1.0300000000000E+00 -9.4786565114690E-02 -6.1245616973429E-02
   105  1.0400000000000E+00 -8.4802406878054E-02 -7.1772385547378E-02
   106  1.0500000000000E+00 -7.5312846938484E-02 -7.8117401403391E-02
   107  1.0600000000000E+00 -6.6332508080029E-02 -8.0775977618351E-02
   108  1.0700000000000E+00 -5.7873249263501E-02 -8.0262326429357E-02
   109  1.0800000000000E+00 -4.9945182871267E-02 -7.7099797717526E-02
   110  1.0900000000000E+00 -4.2557547646069E-02 -7.1811522602977E-02
   111  1.1000000000000E+00 -3.5719427650106E-02 -6.4911586717994E-02
   112  1.1100000000000E+00 -2.9440313159642E-02 -5.6896838412272E-02
   113  1.1200000000000E+00 -2.3730504504035E-02 -4.8239418193786E-02
   114  1.1300000000000E+00 -1.8601355347028E-02 -3.9380120059654E-02
   115  1.1400000000000E+00 -1.4065440226628E-02 -3.0722280826964E-02
   116  1.1500000000000E+00 -1.0133601734898E-02 -2.2640952907415E-02
   117  1.1600000000000E+00 -6.8124194917286E-03 -1.5491550021692E-02
   118  1.1700000000000E+00 -4.1249222479977E-03 -9.5047268743849E-03
   119  1.1800000000000E+00 -2.0929345796769E-03 -4.8658198048253E-03
   120  1.1900000000000E+00 -7.3576376082343E-04 -1.7187857497365E-03
   121  1.2000000000000E+00 -7.7034271096369E-05 -1.8015131759123E-04
   122  1.2100000000000E+00  4.4748083385793E-06  1.0453689722251E-05
   123  1.2200000000000E+00  2.4117850050947E-07  5.6340329377027E-07
   124  1.23  0.  0.
   125  1.24  0.  0.
   126  1.25  0.  0.
   127  1.26  0.  0.
   128  1.27  0.  0.
   129  1.28  0.  0.
   130  1.29  0.  0.
   131  1.30  0.  0.
   132  1.31  0.  0.
   133  1.32  0.  0.
   134  1.33  0.  0.
   135  1.34  0.  0.
   136  1.35  0.  0.
   137  1.36  0.  0.
   138  1.37  0.  0.
   139  1.38  0.  0.
   140  1.39  0.  0.
   141  1.40  0.  0.
   142  1.41  0.  0.
   143  1.42  0.  0.
   144  1.43  0.  0.
   145  1.44  0.  0.
   146  1.45  0.  0.
   147  1.46  0.  0.
   148  1.47  0.  0.
   149  1.48  0.  0.
   150  1.49  0.  0.
   151  1.50  0.  0.
   152  1.51  0.  0.
   153  1.52  0.  0.
   154  1.53  0.  0.
   155  1.54  0.  0.
   156  1.55  0.  0.
   157  1.56  0.  0.
   158  1.57  0.  0.
   159  1.58  0.  0.
   160  1.59  0.  0.
   161  1.60  0.  0.
   162  1.61  0.  0.
   163  1.62  0.  0.
   164  1.63  0.  0.
   165  1.64  0.  0.
   166  1.65  0.  0.
   167  1.66  0.  0.
   168  1.67  0.  0.
   169  1.68  0.  0.
   170  1.69  0.  0.
   171  1.70  0.  0.
   172  1.71  0.  0.
   173  1.72  0.  0.
   174  1.73  0.  0.
   175  1.74  0.  0.
   176  1.75  0.  0.
   177  1.76  0.  0.
   178  1.77  0.  0.
   179  1.78  0.  0.
   180  1.79  0.  0.
   181  1.80  0.  0.
   182  1.81  0.  0.
   183  1.82  0.  0.
   184  1.83  0.  0.
   185  1.84  0.  0.
   186  1.85  0.  0.
   187  1.86  0.  0.
   188  1.87  0.  0.
   189  1.88  0.  0.
   190  1.89  0.  0.
   191  1.90  0.  0.
   192  1.91  0.  0.
   193  1.92  0.  0.
   194  1.93  0.  0.
   195  1.94  0.  0.
   196  1.95  0.  0.
   197  1.96  0.  0.
   198  1.97  0.  0.
   199  1.98  0.  0.
   200  1.99  0.  0.
   201  2.00  0.  0.
   202  2.01  0.  0.
   203  2.02  0.  0.
   204  2.03  0.  0.
   205  2.04  0.  0.
   206  2.05  0.  0.
   207  2.06  0.  0.
   208  2.07  0.  0.
   209  2.08  0.  0.
   210  2.09  0.  0.
   211  2.10  0.  0.
   212  2.11  0.  0.
   213  2.12  0.  0.
   214  2.13  0.  0.
   215  2.14  0.  0.
   216  2.15  0.  0.
   217  2.16  0.  0.
   218  2.17  0.  0.
   219  2.18  0.  0.
   220  2.19  0.  0.
   221  2.20  0.  0.
   222  2.21  0.  0.
   223  2.22  0.  0.
   224  2.23  0.  0.
   225  2.24  0.  0.
   226  2.25  0.  0.
   227  2.26  0.  0.
   228  2.27  0.  0.
   229  2.28  0.  0.
   230  2.29  0.  0.
   231  2.30  0.  0.
   232  2.31  0.  0.
   233  2.32  0.  0.
   234  2.33  0.  0.
   235  2.34  0.  0.
   236  2.35  0.  0.
   237  2.36  0.  0.
   238  2.37  0.  0.
   239  2.38  0.  0.
   240  2.39  0.  0.
   241  2.40  0.  0.
   242  2.41  0.  0.
   243  2.42  0.  0.
   244  2.43  0.  0.
   245  2.44  0.  0.
   246  2.45  0.  0.
   247  2.46  0.  0.
   248  2.47  0.  0.
   249  2.48  0.  0.
   250  2.49  0.  0.
   251  2.50  0.  0.
   252  2.51  0.  0.
   253  2.52  0.  0.
   254  2.53  0.  0.
   255  2.54  0.  0.
   256  2.55  0.  0.
   257  2.56  0.  0.
   258  2.57  0.  0.
   259  2.58  0.  0.
   260  2.59  0.  0.
   261  2.60  0.  0.
   262  2.61  0.  0.
   263  2.62  0.  0.
   264  2.63  0.  0.
   265  2.64  0.  0.
   266  2.65  0.  0.
   267  2.66  0.  0.
   268  2.67  0.  0.
   269  2.68  0.  0.
   270  2.69  0.  0.
   271  2.70  0.  0.
   272  2.71  0.  0.
   273  2.72  0.  0.
   274  2.73  0.  0.
   275  2.74  0.  0.
   276  2.75  0.  0.
   277  2.76  0.  0.
   278  2.77  0.  0.
   279  2.78  0.  0.
   280  2.79  0.  0.
   281  2.80  0.  0.
   282  2.81  0.  0.
   283  2.82  0.  0.
   284  2.83  0.  0.
   285  2.84  0.  0.
   286  2.85  0.  0.
   287  2.86  0.  0.
   288  2.87  0.  0.
   289  2.88  0.  0.
   290  2.89  0.  0.
   291  2.90  0.  0.
   292  2.91  0.  0.
   293  2.92  0.  0.
   294  2.93  0.  0.
   295  2.94  0.  0.
   296  2.95  0.  0.
   297  2.96  0.  0.
   298  2.97  0.  0.
   299  2.98  0.  0.
   300  2.99  0.  0.
   301  3.00  0.  0.
   302  3.01  0.  0.
   303  3.02  0.  0.
   304  3.03  0.  0.
   305  3.04  0.  0.
   306  3.05  0.  0.
   307  3.06  0.  0.
   308  3.07  0.  0.
   309  3.08  0.  0.
   310  3.09  0.  0.
   311  3.10  0.  0.
   312  3.11  0.  0.
   313  3.12  0.  0.
   314  3.13  0.  0.
   315  3.14  0.  0.
   316  3.15  0.  0.
   317  3.16  0.  0.
   318  3.17  0.  0.
   319  3.18  0.  0.
   320  3.19  0.  0.
   321  3.20  0.  0.
   322  3.21  0.  0.
   323  3.22  0.  0.
   324  3.23  0.  0.
   325  3.24  0.  0.
   326  3.25  0.  0.
   327  3.26  0.  0.
   328  3.27  0.  0.
   329  3.28  0.  0.
   330  3.29  0.  0.
   331  3.30  0.  0.
   332  3.31  0.  0.
   333  3.32  0.  0.
   334  3.33  0.  0.
   335  3.34  0.  0.
   336  3.35  0.  0.
   337  3.36  0.  0.
   338  3.37  0.  0.
   339  3.38  0.  0.
   340  3.39  0.  0.
   341  3.40  0.  0.
   342  3.41  0.  0.
   343  3.42  0.  0.
   344  3.43  0.  0.
   345  3.44  0.  0.
   346  3.45  0.  0.
   347  3.46  0.  0.
   348  3.47  0.  0.
   349  3.48  0.  0.
   350  3.49  0.  0.
   351  3.50  0.  0.
   352  3.51  0.  0.
   353  3.52  0.  0.
   354  3.53  0.  0.
   355  3.54  0.  0.
   356  3.55  0.  0.
   357  3.56  0.  0.
   358  3.57  0.  0.
   359  3.58  0.  0.
   360  3.59  0.  0.
   361  3.60  0.  0.
   362  3.61  0.  0.
   363  3.62  0.  0.
   364  3.63  0.  0.
   365  3.64  0.  0.
   366  3.65  0.  0.
   367  3.66  0.  0.
   368  3.67  0.  0.
   369  3.68  0.  0.
   370  3.69  0.  0.
   371  3.70  0.  0.
   372  3.71  0.  0.
   373  3.72  0.  0.
   374  3.73  0.  0.
   375  3.74  0.  0.
   376  3.75  0.  0.
   377  3.76  0.  0.
   378  3.77  0.  0.
   379  3.78  0.  0.
   380  3.79  0.  0.
   381  3.80  0.  0.
   382  3.81  0.  0.
   383  3.82  0.  0.
   384  3.83  0.  0.
   385  3.84  0.  0.
   386  3.85  0.  0.
   387  3.86  0.  0.
   388  3.87  0.  0.
   389  3.88  0.  0.
   390  3.89  0.  0.
   391  3.90  0.  0.
   392  3.91  0.  0.
   393  3.92  0.  0.
   394  3.93  0.  0.
   395  3.94  0.  0.
   396  3.95  0.  0.
   397  3.96  0.  0.
   398  3.97  0.  0.
   399  3.98  0.  0.
   400  3.99  0.  0.
   401  4.00  0.  0.
   402  4.01  0.  0.
   403  4.02  0.  0.
   404  4.03  0.  0.
   405  4.04  0.  0.
   406  4.05  0.  0.
   407  4.06  0.  0.
   408  4.07  0.  0.
   409  4.08  0.  0.
   410  4.09  0.  0.
   411  4.10  0.  0.
   412  4.11  0.  0.
   413  4.12  0.  0.
   414  4.13  0.  0.
   415  4.14  0.  0.
   416  4.15  0.  0.
   417  4.16  0.  0.
   418  4.17  0.  0.
   419  4.18  0.  0.
   420  4.19  0.  0.
   421  4.20  0.  0.
   422  4.21  0.  0.
   423  4.22  0.  0.
   424  4.23  0.  0.
   425  4.24  0.  0.
   426  4.25  0.  0.
   427  4.26  0.  0.
   428  4.27  0.  0.
   429  4.28  0.  0.
   430  4.29  0.  0.
   431  4.30  0.  0.
   432  4.31  0.  0.
   433  4.32  0.  0.
   434  4.33  0.  0.
   435  4.34  0.  0.
   436  4.35  0.  0.
   437  4.36  0.  0.
   438  4.37  0.  0.
   439  4.38  0.  0.
   440  4.39  0.  0.
   441  4.40  0.  0.
   442  4.41  0.  0.
   443  4.42  0.  0.
   444  4.43  0.  0.
   445  4.44  0.  0.
   446  4.45  0.  0.
   447  4.46  0.  0.
   448  4.47  0.  0.
   449  4.48  0.  0.
   450  4.49  0.  0.
   451  4.50  0.  0.
   452  4.51  0.  0.
   453  4.52  0.  0.
   454  4.53  0.  0.
   455  4.54  0.  0.
   456  4.55  0.  0.
   457  4.56  0.  0.
   458  4.57  0.  0.
   459  4.58  0.  0.
   460  4.59  0.  0.
   461  4.60  0.  0.
   462  4.61  0.  0.
   463  4.62  0.  0.
   464  4.63  0.  0.
   465  4.64  0.  0.
   466  4.65  0.  0.
   467  4.66  0.  0.
   468  4.67  0.  0.
   469  4.68  0.  0.
   470  4.69  0.  0.
   471  4.70  0.  0.
   472  4.71  0.  0.
   473  4.72  0.  0.
   474  4.73  0.  0.
   475  4.74  0.  0.
   476  4.75  0.  0.
   477  4.76  0.  0.
   478  4.77  0.  0.
   479  4.78  0.  0.
   480  4.79  0.  0.
   481  4.80  0.  0.
   482  4.81  0.  0.
   483  4.82  0.  0.
   484  4.83  0.  0.
   485  4.84  0.  0.
   486  4.85  0.  0.
   487  4.86  0.  0.
   488  4.87  0.  0.
   489  4.88  0.  0.
   490  4.89  0.  0.
   491  4.90  0.  0.
   492  4.91  0.  0.
   493  4.92  0.  0.
   494  4.93  0.  0.
   495  4.94  0.  0.
   496  4.95  0.  0.
   497  4.96  0.  0.
   498  4.97  0.  0.
   499  4.98  0.  0.
   500  4.99  0.  0.
   501  5.00  0.  0.
   502  5.01  0.  0.
   503  5.02  0.  0.
   504  5.03  0.  0.
   505  5.04  0.  0.
   506  5.05  0.  0.
   507  5.06  0.  0.
   508  5.07  0.  0.
   509  5.08  0.  0.
   510  5.09  0.  0.
   511  5.10  0.  0.
   512  5.11  0.  0.
   513  5.12  0.  0.
   514  5.13  0.  0.
   515  5.14  0.  0.
   516  5.15  0.  0.
   517  5.16  0.  0.
   518  5.17  0.  0.
   519  5.18  0.  0.
   520  5.19  0.  0.
   521  5.20  0.  0.
   522  5.21  0.  0.
   523  5.22  0.  0.
   524  5.23  0.  0.
   525  5.24  0.  0.
   526  5.25  0.  0.
   527  5.26  0.  0.
   528  5.27  0.  0.
   529  5.28  0.  0.
   530  5.29  0.  0.
   531  5.30  0.  0.
   532  5.31  0.  0.
   533  5.32  0.  0.
   534  5.33  0.  0.
   535  5.34  0.  0.
   536  5.35  0.  0.
   537  5.36  0.  0.
   538  5.37  0.  0.
   539  5.38  0.  0.
   540  5.39  0.  0.
   541  5.40  0.  0.
   542  5.41  0.  0.
   543  5.42  0.  0.
   544  5.43  0.  0.
   545  5.44  0.  0.
   546  5.45  0.  0.
   547  5.46  0.  0.
   548  5.47  0.  0.
   549  5.48  0.  0.
   550  5.49  0.  0.
   551  5.50  0.  0.
   552  5.51  0.  0.
   553  5.52  0.  0.
   554  5.53  0.  0.
   555  5.54  0.  0.
   556  5.55  0.  0.
   557  5.56  0.  0.
   558  5.57  0.  0.
   559  5.58  0.  0.
   560  5.59  0.  0.
   561  5.60  0.  0.
   562  5.61  0.  0.
   563  5.62  0.  0.
   564  5.63  0.  0.
   565  5.64  0.  0.
   566  5.65  0.  0.
   567  5.66  0.  0.
   568  5.67  0.  0.
   569  5.68  0.  0.
   570  5.69  0.  0.
   571  5.70  0.  0.
   572  5.71  0.  0.
   573  5.72  0.  0.
   574  5.73  0.  0.
   575  5.74  0.  0.
   576  5.75  0.  0.
   577  5.76  0.  0.
   578  5.77  0.  0.
   579  5.78  0.  0.
   580  5.79  0.  0.
   581  5.80  0.  0.
   582  5.81  0.  0.
   583  5.82  0.  0.
   584  5.83  0.  0.
   585  5.84  0.  0.
   586  5.85  0.  0.
   587  5.86  0.  0.
   588  5.87  0.  0.
   589  5.88  0.  0.
   590  5.89  0.  0.
   591  5.90  0.  0.
   592  5.91  0.  0.
   593  5.92  0.  0.
   594  5.93  0.  0.
   595  5.94  0.  0.
   596  5.95  0.  0.
   597  5.96  0.  0.
   598  5.97  0.  0.
   599  5.98  0.  0.
   600  5.99  0.  0.
   1                        -4.3029442939695E+00 -9.8049531901946E-01
     1  0.0000000000000E+00 -6.4901768126457E-09  1.2224763527857E-08
     2  1.0000000000000E-02  2.1564566912467E-03 -9.7352412781309E-04
     3  2.0000000000000E-02  8.6176217519603E-03 -3.8882611764488E-03
     4  3.0000000000000E-02  1.9358805338522E-02 -8.7265521155480E-03
     5  4.0000000000000E-02  3.4338612740043E-02 -1.5458463543402E-02
     6  5.0000000000000E-02  5.3498592093913E-02 -2.4041064270773E-02
     7  6.0000000000000E-02  7.6762771008773E-02 -3.4417469697136E-02
     8  7.0000000000000E-02  1.0403711070742E-01 -4.6515708691113E-02
     9  8.0000000000000E-02  1.3520891279232E-01 -6.0247479911645E-02
    10  9.0000000000000E-02  1.7014621903201E-01 -7.5506874320653E-02
    11  1.0000000000000E-01  2.0869724847869E-01 -9.2169147667567E-02
    12  1.1000000000000E-01  2.5068991860813E-01 -1.1008963068222E-01
    13  1.2000000000000E-01  2.9593149791966E-01 -1.2910286540206E-01
    14  1.3000000000000E-01  3.4420843649688E-01 -1.4902205339829E-01
    15  1.4000000000000E-01  3.9528641840699E-01 -1.6963889567082E-01
    16  1.5000000000000E-01  4.4891067556200E-01 -1.9072389478610E-01
    17  1.6000000000000E-01  5.0480659687992E-01 -2.1202717766429E-01
    18  1.7000000000000E-01  5.6268065942206E-01 -2.3327988262304E-01
    19  1.8000000000000E-01  6.2222169983729E-01 -2.5419613727054E-01
    20  1.9000000000000E-01  6.8310253515150E-01 -2.7447563511906E-01
    21  2.0000000000000E-01  7.4498193196776E-01 -2.9380679892426E-01
    22  2.1000000000000E-01  8.0750691278102E-01 -3.1187049836206E-01
    23  2.2000000000000E-01  8.7031537767021E-01 -3.2834426937505E-01
    24  2.3000000000000E-01  9.3303900942626E-01 -3.4290696301342E-01
    25  2.4000000000000E-01  9.9530642052153E-01 -3.5524373350237E-01
    26  2.5000000000000E-01  1.0567464915302E+00 -3.6505125921152E-01
    27  2.6000000000000E-01  1.1169918429526E+00 -3.7204307674802E-01
    28  2.7000000000000E-01  1.1756823761392E+00 -3.7595489805161E-01
    29  2.8000000000000E-01  1.2324688143674E+00 -3.7654977355710E-01
    30  2.9000000000000E-01  1.2870161722807E+00 -3.7362296153626E-01
    31  3.0000000000000E-01  1.3390070809760E+00 -3.6700636485461E-01
    32  3.1000000000000E-01  1.3881448971032E+00 -3.5657240168204E-01
    33  3.2000000000000E-01  1.4341565274346E+00 -3.4223718616083E-01
    34  3.3000000000000E-01  1.4767949054385E+00 -3.2396290851685E-01
    35  3.4000000000000E-01  1.5158410633473E+00 -3.0175932133376E-01
    36  3.5000000000000E-01  1.5511057519001E+00 -2.7568425931391E-01
    37  3.6000000000000E-01  1.5824305701548E+00 -2.4584314333056E-01
    38  3.7000000000000E-01  1.6096885792575E+00 -2.1238744534616E-01
    39  3.8000000000000E-01  1.6327843865239E+00 -1.7551211815842E-01
    40  3.9000000000000E-01  1.6516536993198E+00 -1.3545202220437E-01
    41  4.0000000000000E-01  1.6662623616497E+00 -9.2477410020462E-02
    42  4.1000000000000E-01  1.6766048997315E+00 -4.6888556618131E-02
    43  4.2000000000000E-01  1.6827026157547E+00  9.9034981898470E-04
    44  4.3000000000000E-01  1.6846012811393E+00  5.0817918664948E-02
    45  4.4000000000000E-01  1.6823684915665E+00  1.0224270995664E-01
    46  4.5000000000000E-01  1.6760907555169E+00  1.5491065374570E-01
    47  4.6000000000000E-01  1.6658703957350E+00  2.0847254680661E-01
    48  4.7000000000000E-01  1.6518223486854E+00  2.6259142985170E-01
    49  4.8000000000000E-01  1.6340709504794E+00  3.1694964561392E-01
    50  4.9000000000000E-01  1.6127467987898E+00  3.7125538077228E-01
    51  5.0000000000000E-01  1.5879837788579E+00  4.2524850280066E-01
    52  5.1000000000000E-01  1.5599163378135E+00  4.7870551636083E-01
    53  5.2000000000000E-01  1.5286770852353E+00  5.3144348262381E-01
    54  5.3000000000000E-01  1.4943947892941E+00  5.8332276853031E-01
    55  5.4000000000000E-01  1.4571928271353E+00  6.3424852099086E-01
    56  5.5000000000000E-01  1.4171881356132E+00  6.8417079274258E-01
    57  5.6000000000000E-01  1.3744906943984E+00  7.3308328127293E-01
    58  5.7000000000000E-01  1.3292035581905E+00  7.8102067903487E-01
    59  5.8000000000000E-01  1.2814234386744E+00  8.2805467118263E-01
    60  5.9000000000000E-01  1.2312418203847E+00  8.7428865526176E-01
    61  6.0000000000000E-01  1.1787465782290E+00  9.1985129466929E-01
    62  6.1000000000000E-01  1.1240240485208E+00  9.6488905323756E-01
    63  6.2000000000000E-01  1.0671614904271E+00  1.0095578909812E+00
    64  6.3000000000000E-01  1.0082498611807E+00  1.0540143299311E+00
    65  6.4000000000000E-01  9.4738681663669E-01  1.0984061231853E+00
    66  6.5000000000000E-01  8.8467983913646E-01  1.1428627790565E+00
    67  6.6000000000000E-01  8.2024938748752E-01  1.1874862048433E+00
    68  6.7000000000000E-01  7.5423195942737E-01  1.2323417407885E+00
    69  6.8000000000000E-01  6.8678295540523E-01  1.2774498538661E+00
    70  6.9000000000000E-01  6.1807923399421E-01  1.3227787529940E+00
    71  7.0000000000000E-01  5.4832125377713E-01  1.3682381721032E+00
    72  7.1000000000000E-01  4.7773470408718E-01  1.4136745454124E+00
    73  7.2000000000000E-01  4.0657153740371E-01  1.4588677706388E+00
    74  7.3000000000000E-01  3.3511032930140E-01  1.5035297212731E+00
    75  7.4000000000000E-01  2.6365590734961E-01  1.5473046292078E+00
    76  7.5000000000000E-01  1.9253820790876E-01  1.5897714147949E+00
    77  7.6000000000000E-01  1.2211033896729E-01  1.6304479938530E+00
    78  7.7000000000000E-01  5.2745847542300E-02  1.6687975413639E+00
    79  7.8000000000000E-01 -1.5164788769022E-02  1.7042366408075E+00
    80  7.9000000000000E-01 -8.1218405282267E-02  1.7361451975491E+00
    81  8.0000000000000E-01 -1.4500406712876E-01  1.7638779456960E+00
    82  8.1000000000000E-01 -2.0610857804326E-01  1.7867773316647E+00
    83  8.2000000000000E-01 -2.6412248108740E-01  1.8041875155835E+00
    84  8.3000000000000E-01 -3.1864643491418E-01  1.8154691947553E+00
    85  8.4000000000000E-01 -3.6929783517541E-01  1.8200149227792E+00
    86  8.5000000000000E-01 -4.1571753952851E-01  1.8172645745067E+00
    87  8.6000000000000E-01 -4.5757654676152E-01  1.8067205915379E+00
    88  8.7000000000000E-01 -4.9458247610037E-01  1.7879626360384E+00
    89  8.8000000000000E-01 -5.2648569198502E-01  1.7606612826470E+00
    90  8.9000000000000E-01 -5.5308492260401E-01  1.7245903893169E+00
    91  9.0000000000000E-01 -5.7423222727282E-01  1.6796378080321E+00
    92  9.1000000000000E-01 -5.8983717824588E-01  1.6258141251818E+00
    93  9.2000000000000E-01 -5.9987013658751E-01  1.5632591584578E+00
    94  9.3000000000000E-01 -6.0436451902511E-01  1.4922459817423E+00
    95  9.4000000000000E-01 -6.0341797291262E-01  1.4131823006653E+00
    96  9.5000000000000E-01 -5.9719239910780E-01  1.3266090582270E+00
    97  9.6000000000000E-01 -5.8591278721858E-01  1.2331962108670E+00
    98  9.7000000000000E-01 -5.6986485373068E-01  1.1337356792197E+00
    99  9.8000000000000E-01 -5.4939150039869E-01  1.0291315430662E+00
   100  9.9000000000000E-01 -5.2488813731773E-01  9.2038761512546E-01
   101  1.0000000000000E+00 -4.9679694166392E-01  8.0859259178858E-01
   102  1.0100000000000E+00 -4.6560014853700E-01  6.9490303912942E-01
   103  1.0200000000000E+00 -4.3181249403055E-01  5.8052452801715E-01
   104  1.0300000000000E+00 -3.9597295200276E-01  4.6669128153373E-01
   105  1.0400000000000E+00 -3.5863592448599E-01  3.5464473989690E-01
   106  1.0500000000000E+00 -3.2036206073972E-01  2.4561148151933E-01
   107  1.0600000000000E+00 -2.8170889125025E-01  1.4078096285767E-01
   108  1.0700000000000E+00 -2.4322147015785E-01  4.1283553526922E-02
   109  1.0800000000000E+00 -2.0542322243464E-01 -5.1830653665224E-02
   110  1.0900000000000E+00 -1.6880719051193E-01 -1.3761178584495E-01
   111  1.1000000000000E+00 -1.3382786894919E-01 -2.1522843304309E-01
   112  1.1100000000000E+00 -1.0089380523555E-01 -2.8398376690054E-01
   113  1.1200000000000E+00 -7.0361130093672E-02 -3.4332915032268E-01
   114  1.1300000000000E+00 -4.2528162070240E-02 -3.9287490181714E-01
   115  1.1400000000000E+00 -1.7631209031148E-02 -4.3239793523712E-01
   116  1.1500000000000E+00  4.1583359206554E-03 -4.6184605948103E-01
   117  1.1600000000000E+00  2.2735534268978E-02 -4.8133879249645E-01
   118  1.1700000000000E+00  3.8062037231431E-02 -4.9116461759875E-01
   119  1.1800000000000E+00  5.0164806490671E-02 -4.9177468648794E-01
   120  1.1900000000000E+00  5.9133441876883E-02 -4.8377305037322E-01
   121  1.2000000000000E+00  6.5116170173120E-02 -4.6790358343142E-01
   122  1.2100000000000E+00  6.8314573955998E-02 -4.4503381822078E-01
   123  1.2200000000000E+00  6.8977889587840E-02 -4.1613844942607E-01
   124  1.2300000000000E+00  6.7397526258817E-02 -3.8228445654535E-01
   125  1.2400000000000E+00  6.3899719633687E-02 -3.4461048383966E-01
   126  1.2500000000000E+00  5.8837003743397E-02 -3.0430287984952E-01
   127  1.2600000000000E+00  5.2579218618555E-02 -2.6257074138671E-01
   128  1.2700000000000E+00  4.5504249897010E-02 -2.2062045887906E-01
   129  1.2800000000000E+00  3.7988717343140E-02 -1.7963031533165E-01
   130  1.2900000000000E+00  3.0398825946188E-02 -1.4072567599308E-01
   131  1.3000000000000E+00  2.3083187646414E-02 -1.0495809651022E-01
   132  1.3100000000000E+00  1.6362455376511E-02 -7.3279725596432E-02
   133  1.3200000000000E+00  1.0520268441969E-02 -4.6520339442866E-02
   134  1.3300000000000E+00  5.7986483434789E-03 -2.5373111446335E-02
   135  1.3400000000000E+00  2.3933082388160E-03 -1.0383261998832E-02
   136  1.3500000000000E+00  4.4975306168684E-04 -1.9380577895750E-03
   137  1.3600000000000E+00 -2.4786850410584E-05  1.0637243596726E-04
   138  1.3700000000000E+00  7.5416819474005E-06 -3.2396233345982E-05
   139  1.38  0.  0.
   140  1.39  0.  0.
   141  1.40  0.  0.
   142  1.41  0.  0.
   143  1.42  0.  0.
   144  1.43  0.  0.
   145  1.44  0.  0.
   146  1.45  0.  0.
   147  1.46  0.  0.
   148  1.47  0.  0.
   149  1.48  0.  0.
   150  1.49  0.  0.
   151  1.50  0.  0.
   152  1.51  0.  0.
   153  1.52  0.  0.
   154  1.53  0.  0.
   155  1.54  0.  0.
   156  1.55  0.  0.
   157  1.56  0.  0.
   158  1.57  0.  0.
   159  1.58  0.  0.
   160  1.59  0.  0.
   161  1.60  0.  0.
   162  1.61  0.  0.
   163  1.62  0.  0.
   164  1.63  0.  0.
   165  1.64  0.  0.
   166  1.65  0.  0.
   167  1.66  0.  0.
   168  1.67  0.  0.
   169  1.68  0.  0.
   170  1.69  0.  0.
   171  1.70  0.  0.
   172  1.71  0.  0.
   173  1.72  0.  0.
   174  1.73  0.  0.
   175  1.74  0.  0.
   176  1.75  0.  0.
   177  1.76  0.  0.
   178  1.77  0.  0.
   179  1.78  0.  0.
   180  1.79  0.  0.
   181  1.80  0.  0.
   182  1.81  0.  0.
   183  1.82  0.  0.
   184  1.83  0.  0.
   185  1.84  0.  0.
   186  1.85  0.  0.
   187  1.86  0.  0.
   188  1.87  0.  0.
   189  1.88  0.  0.
   190  1.89  0.  0.
   191  1.90  0.  0.
   192  1.91  0.  0.
   193  1.92  0.  0.
   194  1.93  0.  0.
   195  1.94  0.  0.
   196  1.95  0.  0.