Sr    ONCVPSP-4.0.1  r_core=   1.65586   1.30348   1.50472
     38.0000     10.0000      250217    zatom,zion,pspd
     8       2   2     4   600     0    pspcod,pspxc,lmax,lloc,mmax,r2well
  5.99000000  6.00000000  0.00000000    rchrg fchrg qchrg
     2     3     2     0    nproj
     3     1           extension_switch
     4     4     0    nprojso
   0                         1.0092012320356E+01  1.0286242264995E+00
     1  0.0000000000000E+00  1.4920431556931E-10 -4.1783490556391E-10
     2  1.0000000000000E-02  4.1034505957666E-02 -2.0231820828062E-02
     3  2.0000000000000E-02  8.2052848190873E-02 -4.0434240053352E-02
     4  3.0000000000000E-02  1.2303865057859E-01 -6.0577582485470E-02
     5  4.0000000000000E-02  1.6397511500436E-01 -8.0631631712829E-02
     6  5.0000000000000E-02  2.0484481731410E-01 -1.0056537426805E-01
     7  6.0000000000000E-02  2.4562951151261E-01 -1.2034676122072E-01
     8  7.0000000000000E-02  2.8630994476685E-01 -1.3994249250600E-01
     9  8.0000000000000E-02  3.2686568563482E-01 -1.5931782887980E-01
    10  9.0000000000000E-02  3.6727496775691E-01 -1.7843643588271E-01
    11  1.0000000000000E-01  4.0751455103372E-01 -1.9726026360529E-01
    12  1.1000000000000E-01  4.4755960207546E-01 -2.1574946538571E-01
    13  1.2000000000000E-01  4.8738359544473E-01 -2.3386235785071E-01
    14  1.3000000000000E-01  5.2695823693284E-01 -2.5155542394293E-01
    15  1.4000000000000E-01  5.6625340981224E-01 -2.6878335977774E-01
    16  1.5000000000000E-01  6.0523714470001E-01 -2.8549916535329E-01
    17  1.6000000000000E-01  6.4387561335370E-01 -3.0165427831466E-01
    18  1.7000000000000E-01  6.8213314640608E-01 -3.1719874916052E-01
    19  1.8000000000000E-01  7.1997227473386E-01 -3.3208145549458E-01
    20  1.9000000000000E-01  7.5735379385321E-01 -3.4625035217748E-01
    21  2.0000000000000E-01  7.9423685044422E-01 -3.5965275354283E-01
    22  2.1000000000000E-01  8.3057904983446E-01 -3.7223564321596E-01
    23  2.2000000000000E-01  8.6633658301989E-01 -3.8394600652797E-01
    24  2.3000000000000E-01  9.0146437157539E-01 -3.9473118006149E-01
    25  2.4000000000000E-01  9.3591622860920E-01 -4.0453921250779E-01
    26  2.5000000000000E-01  9.6964503374872E-01 -4.1331923076400E-01
    27  2.6000000000000E-01  1.0026029200124E+00 -4.2102180506165E-01
    28  2.7000000000000E-01  1.0347414703244E+00 -4.2759930689603E-01
    29  2.8000000000000E-01  1.0660119213691E+00 -4.3300625362209E-01
    30  2.9000000000000E-01  1.0963653724557E+00 -4.3719963379752E-01
    31  3.0000000000000E-01  1.1257529970828E+00 -4.4013920768334E-01
    32  3.1000000000000E-01  1.1541262549365E+00 -4.4178777775399E-01
    33  3.2000000000000E-01  1.1814371021472E+00 -4.4211142461505E-01
    34  3.3000000000000E-01  1.2076381977480E+00 -4.4107970436895E-01
    35  3.4000000000000E-01  1.2326831044294E+00 -4.3866580419818E-01
    36  3.5000000000000E-01  1.2565264818653E+00 -4.3484665373791E-01
    37  3.6000000000000E-01  1.2791242710895E+00 -4.2960299067380E-01
    38  3.7000000000000E-01  1.3004338686315E+00 -4.2291937990939E-01
    39  3.8000000000000E-01  1.3204142893605E+00 -4.1478418658733E-01
    40  3.9000000000000E-01  1.3390263172459E+00 -4.0518950419986E-01
    41  4.0000000000000E-01  1.3562326435051E+00 -3.9413103997253E-01
    42  4.1000000000000E-01  1.3719979918794E+00 -3.8160796063000E-01
    43  4.2000000000000E-01  1.3862892310412E+00 -3.6762270253925E-01
    44  4.3000000000000E-01  1.3990754743964E+00 -3.5218075105373E-01
    45  4.4000000000000E-01  1.4103281677932E+00 -3.3529039463731E-01
    46  4.5000000000000E-01  1.4200211658754E+00 -3.1696246001126E-01
    47  4.6000000000000E-01  1.4281307980310E+00 -2.9721003512884E-01
    48  4.7000000000000E-01  1.4346359250689E+00 -2.7604818722361E-01
    49  4.8000000000000E-01  1.4395179879102E+00 -2.5349368349244E-01
    50  4.9000000000000E-01  1.4427610497051E+00 -2.2956472214790E-01
    51  5.0000000000000E-01  1.4443518328727E+00 -2.0428068160406E-01
    52  5.1000000000000E-01  1.4442797526111E+00 -1.7766189543687E-01
    53  5.2000000000000E-01  1.4425369484369E+00 -1.4972946048454E-01
    54  5.3000000000000E-01  1.4391183152852E+00 -1.2050508502361E-01
    55  5.4000000000000E-01  1.4340215356341E+00 -9.0010983375925E-02
    56  5.5000000000000E-01  1.4272471140097E+00 -5.8269822576421E-02
    57  5.6000000000000E-01  1.4187984150849E+00 -2.5304725868263E-02
    58  5.7000000000000E-01  1.4086817064033E+00  8.8606631971528E-03
    59  5.8000000000000E-01  1.3969062065492E+00  4.4202053380897E-02
    60  5.9000000000000E-01  1.3834841393376E+00  8.0694313623505E-02
    61  6.0000000000000E-01  1.3684307943360E+00  1.1831121596493E-01
    62  6.1000000000000E-01  1.3517645937345E+00  1.5702511466492E-01
    63  6.2000000000000E-01  1.3335071652789E+00  1.9680656405164E-01
    64  6.3000000000000E-01  1.3136834206663E+00  2.3762387902336E-01
    65  6.4000000000000E-01  1.2923216384801E+00  2.7944264351857E-01
    66  6.5000000000000E-01  1.2694535504232E+00  3.2222517362842E-01
    67  6.6000000000000E-01  1.2451144292994E+00  3.6592994333002E-01
    68  6.7000000000000E-01  1.2193431768918E+00  4.1051098204204E-01
    69  6.8000000000000E-01  1.1921824096120E+00  4.5591725432537E-01
    70  6.9000000000000E-01  1.1636785395446E+00  5.0209203304498E-01
    71  7.0000000000000E-01  1.1338818482879E+00  5.4897227815587E-01
    72  7.1000000000000E-01  1.1028465508156E+00  5.9648803395415E-01
    73  7.2000000000000E-01  1.0706308464408E+00  6.4456185812770E-01
    74  7.3000000000000E-01  1.0372969538730E+00  6.9310829623409E-01
    75  7.4000000000000E-01  1.0029111273175E+00  7.4203341531235E-01
    76  7.5000000000000E-01  9.6754365057594E-01  7.9123441019359E-01
    77  7.6000000000000E-01  9.3126880617536E-01  8.4059929570334E-01
    78  7.7000000000000E-01  8.9416481667717E-01  8.9000669734616E-01
    79  7.8000000000000E-01  8.5631375549773E-01  9.3932575222964E-01
    80  7.9000000000000E-01  8.1780142481177E-01  9.8841613092609E-01
    81  8.0000000000000E-01  7.7871719840313E-01  1.0371281896925E+00
    82  8.1000000000000E-01  7.3915382767415E-01  1.0853032609866E+00
    83  8.2000000000000E-01  6.9920720942175E-01  1.1327740885446E+00
    84  8.3000000000000E-01  6.5897611443010E-01  1.1793654114389E+00
    85  8.4000000000000E-01  6.1856187641211E-01  1.2248946995427E+00
    86  8.5000000000000E-01  5.7806804134876E-01  1.2691730407084E+00
    87  8.6000000000000E-01  5.3759997781968E-01  1.3120061777528E+00
    88  8.7000000000000E-01  4.9726444948324E-01  1.3531956910598E+00
    89  8.8000000000000E-01  4.5716915144208E-01  1.3925403202992E+00
    90  8.9000000000000E-01  4.1742221281159E-01  1.4298374164390E+00
    91  9.0000000000000E-01  3.7813166838658E-01  1.4648845129517E+00
    92  9.1000000000000E-01  3.3940490286562E-01  1.4974810028952E+00
    93  9.2000000000000E-01  3.0134807163531E-01  1.5274299064409E+00
    94  9.3000000000000E-01  2.6406550262822E-01  1.5545397114465E+00
    95  9.4000000000000E-01  2.2765908424144E-01  1.5786262678646E+00
    96  9.5000000000000E-01  1.9222764472722E-01  1.5995147151794E+00
    97  9.6000000000000E-01  1.5786632883787E-01  1.6170414206856E+00
    98  9.7000000000000E-01  1.2466597781510E-01  1.6310559053141E+00
    99  9.8000000000000E-01  9.2712519052837E-02  1.6414227328684E+00
   100  9.9000000000000E-01  6.2086371929090E-02  1.6480233380021E+00
   101  1.0000000000000E+00  3.2861876388961E-02  1.6507577680470E+00
   102  1.0100000000000E+00  5.1067508663352E-03  1.6495463139082E+00
   103  1.0200000000000E+00 -2.1118413946929E-02  1.6443310056792E+00
   104  1.0300000000000E+00 -4.5760619139795E-02  1.6350769494115E+00
   105  1.0400000000000E+00 -6.8774873333847E-02  1.6217734825752E+00
   106  1.0500000000000E+00 -9.0124554385992E-02  1.6044351271870E+00
   107  1.0600000000000E+00 -1.0978171169489E-01  1.5831023213233E+00
   108  1.0700000000000E+00 -1.2772730425569E-01  1.5578419117837E+00
   109  1.0800000000000E+00 -1.4395137017158E-01  1.5287473929784E+00
   110  1.0900000000000E+00 -1.5845312396212E-01  1.4959388796835E+00
   111  1.1000000000000E+00 -1.7124097869590E-01  1.4595628040757E+00
   112  1.1100000000000E+00 -1.8233249071720E-01  1.4197913304293E+00
   113  1.1200000000000E+00 -1.9175422551525E-01  1.3768214839515E+00
   114  1.1300000000000E+00 -1.9954154410006E-01  1.3308739934492E+00
   115  1.1400000000000E+00 -2.0573831008030E-01  1.2821918507838E+00
   116  1.1500000000000E+00 -2.1039651848515E-01  1.2310385933624E+00
   117  1.1600000000000E+00 -2.1357584821181E-01  1.1776963191679E+00
   118  1.1700000000000E+00 -2.1534314081360E-01  1.1224634470250E+00
   119  1.1800000000000E+00 -2.1577180914520E-01  1.0656522378544E+00
   120  1.1900000000000E+00 -2.1494118015592E-01  1.0075860955912E+00
   121  1.2000000000000E+00 -2.1293577684115E-01  9.4859666912413E-01
   122  1.2100000000000E+00 -2.0984454503255E-01  8.8902077908713E-01
   123  1.2200000000000E+00 -2.0576003130520E-01  8.2919719549819E-01
   124  1.2300000000000E+00 -2.0077751880536E-01  7.6946329410274E-01
   125  1.2400000000000E+00 -1.9499412824428E-01  7.1015162079580E-01
   126  1.2500000000000E+00 -1.8850789165326E-01  6.5158639463739E-01
   127  1.2600000000000E+00 -1.8141680675148E-01  5.9407998073446E-01
   128  1.2700000000000E+00 -1.7381787993257E-01  5.3792936460952E-01
   129  1.2800000000000E+00 -1.6580616592828E-01  4.8341265961666E-01
   130  1.2900000000000E+00 -1.5747381186984E-01  4.3078567653493E-01
   131  1.3000000000000E+00 -1.4890911722440E-01  3.8027861082402E-01
   132  1.3100000000000E+00 -1.4019561140588E-01  3.3209283683174E-01
   133  1.3200000000000E+00 -1.3141165309075E-01  2.8640130052939E-01
   134  1.3300000000000E+00 -1.2263070165569E-01  2.4335301138002E-01
   135  1.3400000000000E+00 -1.1392110376381E-01  2.0307333766736E-01
   136  1.3500000000000E+00 -1.0534571747872E-01  1.6566289525983E-01
   137  1.3600000000000E+00 -9.6961604723850E-02  1.3119674316979E-01
   138  1.3700000000000E+00 -8.8819789123388E-02  9.9723851582379E-02
   139  1.3800000000000E+00 -8.0965082714026E-02  7.1266857758993E-02
   140  1.3900000000000E+00 -7.3435983242642E-02  4.5822114888829E-02
   141  1.4000000000000E+00 -6.6264642914187E-02  2.3360035535560E-02
   142  1.4100000000000E+00 -5.9476908566631E-02  3.8257276901686E-03
   143  1.4200000000000E+00 -5.3092432353035E-02 -1.2860082220730E-02
   144  1.4300000000000E+00 -4.7124794211726E-02 -2.6800165051093E-02
   145  1.4400000000000E+00 -4.1582497426124E-02 -3.8115148049155E-02
   146  1.4500000000000E+00 -3.6464731564349E-02 -4.6967116786444E-02
   147  1.4600000000000E+00 -3.1799330947417E-02 -5.3348466127613E-02
   148  1.4700000000000E+00 -2.7540517024076E-02 -5.7653512483728E-02
   149  1.4800000000000E+00 -2.3687530995202E-02 -6.0013093806457E-02
   150  1.4900000000000E+00 -2.0225181391663E-02 -6.0629480007392E-02
   151  1.5000000000000E+00 -1.7135194707994E-02 -5.9712967986844E-02
   152  1.5100000000000E+00 -1.4396487962731E-02 -5.7480843507389E-02
   153  1.5200000000000E+00 -1.1985997883699E-02 -5.4153259405035E-02
   154  1.5300000000000E+00 -9.8792559266951E-03 -4.9950577782021E-02
   155  1.5400000000000E+00 -8.0509909318407E-03 -4.5090581642199E-02
   156  1.5500000000000E+00 -6.4757267101820E-03 -3.9785727514065E-02
   157  1.5600000000000E+00 -5.1283689049966E-03 -3.4240467248315E-02
   158  1.5700000000000E+00 -3.9847567943370E-03 -2.8648712405741E-02
   159  1.5800000000000E+00 -3.0232834585462E-03 -2.3188961332652E-02
   160  1.5900000000000E+00 -2.2257876021436E-03 -1.8020863298114E-02
   161  1.6000000000000E+00 -1.5728904957667E-03 -1.3294808680222E-02
   162  1.6100000000000E+00 -1.0479604191692E-03 -9.1426029873637E-03
   163  1.6200000000000E+00 -6.3766166852116E-04 -5.6753483540172E-03
   164  1.6300000000000E+00 -3.3241301075858E-04 -2.9827981900073E-03
   165  1.6400000000000E+00 -1.2551079153783E-04 -1.1223500368295E-03
   166  1.6500000000000E+00 -1.9484668153429E-05 -1.7151114265474E-04
   167  1.6600000000000E+00  2.4690333304676E-06  2.1578966824894E-05
   168  1.6700000000000E+00 -7.4091653334873E-07 -6.5321368331317E-06
   169  1.68  0.  0.
   170  1.69  0.  0.
   171  1.70  0.  0.
   172  1.71  0.  0.
   173  1.72  0.  0.
   174  1.73  0.  0.
   175  1.74  0.  0.
   176  1.75  0.  0.
   177  1.76  0.  0.
   178  1.77  0.  0.
   179  1.78  0.  0.
   180  1.79  0.  0.
   181  1.80  0.  0.
   182  1.81  0.  0.
   183  1.82  0.  0.
   184  1.83  0.  0.
   185  1.84  0.  0.
   186  1.85  0.  0.
   187  1.86  0.  0.
   188  1.87  0.  0.
   189  1.88  0.  0.
   190  1.89  0.  0.
   191  1.90  0.  0.
   192  1.91  0.  0.
   193  1.92  0.  0.
   194  1.93  0.  0.
   195  1.94  0.  0.
   196  1.95  0.  0.
   197  1.96  0.  0.
   198  1.97  0.  0.
   199  1.98  0.  0.
   200  1.99  0.  0.
   201  2.00  0.  0.
   202  2.01  0.  0.
   203  2.02  0.  0.
   204  2.03  0.  0.
   205  2.04  0.  0.
   206  2.05  0.  0.
   207  2.06  0.  0.
   208  2.07  0.  0.
   209  2.08  0.  0.
   210  2.09  0.  0.
   211  2.10  0.  0.
   212  2.11  0.  0.
   213  2.12  0.  0.
   214  2.13  0.  0.
   215  2.14  0.  0.
   216  2.15  0.  0.
   217  2.16  0.  0.
   218  2.17  0.  0.
   219  2.18  0.  0.
   220  2.19  0.  0.
   221  2.20  0.  0.
   222  2.21  0.  0.
   223  2.22  0.  0.
   224  2.23  0.  0.
   225  2.24  0.  0.
   226  2.25  0.  0.
   227  2.26  0.  0.
   228  2.27  0.  0.
   229  2.28  0.  0.
   230  2.29  0.  0.
   231  2.30  0.  0.
   232  2.31  0.  0.
   233  2.32  0.  0.
   234  2.33  0.  0.
   235  2.34  0.  0.
   236  2.35  0.  0.
   237  2.36  0.  0.
   238  2.37  0.  0.
   239  2.38  0.  0.
   240  2.39  0.  0.
   241  2.40  0.  0.
   242  2.41  0.  0.
   243  2.42  0.  0.
   244  2.43  0.  0.
   245  2.44  0.  0.
   246  2.45  0.  0.
   247  2.46  0.  0.
   248  2.47  0.  0.
   249  2.48  0.  0.
   250  2.49  0.  0.
   251  2.50  0.  0.
   252  2.51  0.  0.
   253  2.52  0.  0.
   254  2.53  0.  0.
   255  2.54  0.  0.
   256  2.55  0.  0.
   257  2.56  0.  0.
   258  2.57  0.  0.
   259  2.58  0.  0.
   260  2.59  0.  0.
   261  2.60  0.  0.
   262  2.61  0.  0.
   263  2.62  0.  0.
   264  2.63  0.  0.
   265  2.64  0.  0.
   266  2.65  0.  0.
   267  2.66  0.  0.
   268  2.67  0.  0.
   269  2.68  0.  0.
   270  2.69  0.  0.
   271  2.70  0.  0.
   272  2.71  0.  0.
   273  2.72  0.  0.
   274  2.73  0.  0.
   275  2.74  0.  0.
   276  2.75  0.  0.
   277  2.76  0.  0.
   278  2.77  0.  0.
   279  2.78  0.  0.
   280  2.79  0.  0.
   281  2.80  0.  0.
   282  2.81  0.  0.
   283  2.82  0.  0.
   284  2.83  0.  0.
   285  2.84  0.  0.
   286  2.85  0.  0.
   287  2.86  0.  0.
   288  2.87  0.  0.
   289  2.88  0.  0.
   290  2.89  0.  0.
   291  2.90  0.  0.
   292  2.91  0.  0.
   293  2.92  0.  0.
   294  2.93  0.  0.
   295  2.94  0.  0.
   296  2.95  0.  0.
   297  2.96  0.  0.
   298  2.97  0.  0.
   299  2.98  0.  0.
   300  2.99  0.  0.
   301  3.00  0.  0.
   302  3.01  0.  0.
   303  3.02  0.  0.
   304  3.03  0.  0.
   305  3.04  0.  0.
   306  3.05  0.  0.
   307  3.06  0.  0.
   308  3.07  0.  0.
   309  3.08  0.  0.
   310  3.09  0.  0.
   311  3.10  0.  0.
   312  3.11  0.  0.
   313  3.12  0.  0.
   314  3.13  0.  0.
   315  3.14  0.  0.
   316  3.15  0.  0.
   317  3.16  0.  0.
   318  3.17  0.  0.
   319  3.18  0.  0.
   320  3.19  0.  0.
   321  3.20  0.  0.
   322  3.21  0.  0.
   323  3.22  0.  0.
   324  3.23  0.  0.
   325  3.24  0.  0.
   326  3.25  0.  0.
   327  3.26  0.  0.
   328  3.27  0.  0.
   329  3.28  0.  0.
   330  3.29  0.  0.
   331  3.30  0.  0.
   332  3.31  0.  0.
   333  3.32  0.  0.
   334  3.33  0.  0.
   335  3.34  0.  0.
   336  3.35  0.  0.
   337  3.36  0.  0.
   338  3.37  0.  0.
   339  3.38  0.  0.
   340  3.39  0.  0.
   341  3.40  0.  0.
   342  3.41  0.  0.
   343  3.42  0.  0.
   344  3.43  0.  0.
   345  3.44  0.  0.
   346  3.45  0.  0.
   347  3.46  0.  0.
   348  3.47  0.  0.
   349  3.48  0.  0.
   350  3.49  0.  0.
   351  3.50  0.  0.
   352  3.51  0.  0.
   353  3.52  0.  0.
   354  3.53  0.  0.
   355  3.54  0.  0.
   356  3.55  0.  0.
   357  3.56  0.  0.
   358  3.57  0.  0.
   359  3.58  0.  0.
   360  3.59  0.  0.
   361  3.60  0.  0.
   362  3.61  0.  0.
   363  3.62  0.  0.
   364  3.63  0.  0.
   365  3.64  0.  0.
   366  3.65  0.  0.
   367  3.66  0.  0.
   368  3.67  0.  0.
   369  3.68  0.  0.
   370  3.69  0.  0.
   371  3.70  0.  0.
   372  3.71  0.  0.
   373  3.72  0.  0.
   374  3.73  0.  0.
   375  3.74  0.  0.
   376  3.75  0.  0.
   377  3.76  0.  0.
   378  3.77  0.  0.
   379  3.78  0.  0.
   380  3.79  0.  0.
   381  3.80  0.  0.
   382  3.81  0.  0.
   383  3.82  0.  0.
   384  3.83  0.  0.
   385  3.84  0.  0.
   386  3.85  0.  0.
   387  3.86  0.  0.
   388  3.87  0.  0.
   389  3.88  0.  0.
   390  3.89  0.  0.
   391  3.90  0.  0.
   392  3.91  0.  0.
   393  3.92  0.  0.
   394  3.93  0.  0.
   395  3.94  0.  0.
   396  3.95  0.  0.
   397  3.96  0.  0.
   398  3.97  0.  0.
   399  3.98  0.  0.
   400  3.99  0.  0.
   401  4.00  0.  0.
   402  4.01  0.  0.
   403  4.02  0.  0.
   404  4.03  0.  0.
   405  4.04  0.  0.
   406  4.05  0.  0.
   407  4.06  0.  0.
   408  4.07  0.  0.
   409  4.08  0.  0.
   410  4.09  0.  0.
   411  4.10  0.  0.
   412  4.11  0.  0.
   413  4.12  0.  0.
   414  4.13  0.  0.
   415  4.14  0.  0.
   416  4.15  0.  0.
   417  4.16  0.  0.
   418  4.17  0.  0.
   419  4.18  0.  0.
   420  4.19  0.  0.
   421  4.20  0.  0.
   422  4.21  0.  0.
   423  4.22  0.  0.
   424  4.23  0.  0.
   425  4.24  0.  0.
   426  4.25  0.  0.
   427  4.26  0.  0.
   428  4.27  0.  0.
   429  4.28  0.  0.
   430  4.29  0.  0.
   431  4.30  0.  0.
   432  4.31  0.  0.
   433  4.32  0.  0.
   434  4.33  0.  0.
   435  4.34  0.  0.
   436  4.35  0.  0.
   437  4.36  0.  0.
   438  4.37  0.  0.
   439  4.38  0.  0.
   440  4.39  0.  0.
   441  4.40  0.  0.
   442  4.41  0.  0.
   443  4.42  0.  0.
   444  4.43  0.  0.
   445  4.44  0.  0.
   446  4.45  0.  0.
   447  4.46  0.  0.
   448  4.47  0.  0.
   449  4.48  0.  0.
   450  4.49  0.  0.
   451  4.50  0.  0.
   452  4.51  0.  0.
   453  4.52  0.  0.
   454  4.53  0.  0.
   455  4.54  0.  0.
   456  4.55  0.  0.
   457  4.56  0.  0.
   458  4.57  0.  0.
   459  4.58  0.  0.
   460  4.59  0.  0.
   461  4.60  0.  0.
   462  4.61  0.  0.
   463  4.62  0.  0.
   464  4.63  0.  0.
   465  4.64  0.  0.
   466  4.65  0.  0.
   467  4.66  0.  0.
   468  4.67  0.  0.
   469  4.68  0.  0.
   470  4.69  0.  0.
   471  4.70  0.  0.
   472  4.71  0.  0.
   473  4.72  0.  0.
   474  4.73  0.  0.
   475  4.74  0.  0.
   476  4.75  0.  0.
   477  4.76  0.  0.
   478  4.77  0.  0.
   479  4.78  0.  0.
   480  4.79  0.  0.
   481  4.80  0.  0.
   482  4.81  0.  0.
   483  4.82  0.  0.
   484  4.83  0.  0.
   485  4.84  0.  0.
   486  4.85  0.  0.
   487  4.86  0.  0.
   488  4.87  0.  0.
   489  4.88  0.  0.
   490  4.89  0.  0.
   491  4.90  0.  0.
   492  4.91  0.  0.
   493  4.92  0.  0.
   494  4.93  0.  0.
   495  4.94  0.  0.
   496  4.95  0.  0.
   497  4.96  0.  0.
   498  4.97  0.  0.
   499  4.98  0.  0.
   500  4.99  0.  0.
   501  5.00  0.  0.
   502  5.01  0.  0.
   503  5.02  0.  0.
   504  5.03  0.  0.
   505  5.04  0.  0.
   506  5.05  0.  0.
   507  5.06  0.  0.
   508  5.07  0.  0.
   509  5.08  0.  0.
   510  5.09  0.  0.
   511  5.10  0.  0.
   512  5.11  0.  0.
   513  5.12  0.  0.
   514  5.13  0.  0.
   515  5.14  0.  0.
   516  5.15  0.  0.
   517  5.16  0.  0.
   518  5.17  0.  0.
   519  5.18  0.  0.
   520  5.19  0.  0.
   521  5.20  0.  0.
   522  5.21  0.  0.
   523  5.22  0.  0.
   524  5.23  0.  0.
   525  5.24  0.  0.
   526  5.25  0.  0.
   527  5.26  0.  0.
   528  5.27  0.  0.
   529  5.28  0.  0.
   530  5.29  0.  0.
   531  5.30  0.  0.
   532  5.31  0.  0.
   533  5.32  0.  0.
   534  5.33  0.  0.
   535  5.34  0.  0.
   536  5.35  0.  0.
   537  5.36  0.  0.
   538  5.37  0.  0.
   539  5.38  0.  0.
   540  5.39  0.  0.
   541  5.40  0.  0.
   542  5.41  0.  0.
   543  5.42  0.  0.
   544  5.43  0.  0.
   545  5.44  0.  0.
   546  5.45  0.  0.
   547  5.46  0.  0.
   548  5.47  0.  0.
   549  5.48  0.  0.
   550  5.49  0.  0.
   551  5.50  0.  0.
   552  5.51  0.  0.
   553  5.52  0.  0.
   554  5.53  0.  0.
   555  5.54  0.  0.
   556  5.55  0.  0.
   557  5.56  0.  0.
   558  5.57  0.  0.
   559  5.58  0.  0.
   560  5.59  0.  0.
   561  5.60  0.  0.
   562  5.61  0.  0.
   563  5.62  0.  0.
   564  5.63  0.  0.
   565  5.64  0.  0.
   566  5.65  0.  0.
   567  5.66  0.  0.
   568  5.67  0.  0.
   569  5.68  0.  0.
   570  5.69  0.  0.
   571  5.70  0.  0.
   572  5.71  0.  0.
   573  5.72  0.  0.
   574  5.73  0.  0.
   575  5.74  0.  0.
   576  5.75  0.  0.
   577  5.76  0.  0.
   578  5.77  0.  0.
   579  5.78  0.  0.
   580  5.79  0.  0.
   581  5.80  0.  0.
   582  5.81  0.  0.
   583  5.82  0.  0.
   584  5.83  0.  0.
   585  5.84  0.  0.
   586  5.85  0.  0.
   587  5.86  0.  0.
   588  5.87  0.  0.
   589  5.88  0.  0.
   590  5.89  0.  0.
   591  5.90  0.  0.
   592  5.91  0.  0.
   593  5.92  0.  0.
   594  5.93  0.  0.
   595  5.94  0.  0.
   596  5.95  0.  0.
   597  5.96  0.  0.
   598  5.97  0.  0.
   599  5.98  0.  0.
   600  5.99  0.  0.
   1                         7.4480934919435E+00  1.5601211175030E+00  1.6814985131631E-02
     1  0.0000000000000E+00  1.1487989159953E-07 -2.3396828377487E-07  5.2100356348617E-08
     2  1.0000000000000E-02  2.7592844743881E-03 -3.6019808630853E-03 -8.1810913115637E-04
     3  2.0000000000000E-02  1.0961244399104E-02 -1.4258781128639E-02 -3.2951023757615E-03
     4  3.0000000000000E-02  2.4380620857609E-02 -3.1527886518840E-02 -7.4979477055438E-03
     5  4.0000000000000E-02  4.2649979603136E-02 -5.4687996751320E-02 -1.3534860655026E-02
     6  5.0000000000000E-02  6.5271447941690E-02 -8.2762832912402E-02 -2.1550326294481E-02
     7  6.0000000000000E-02  9.1632636260695E-02 -1.1455342826014E-01 -3.1718363422223E-02
     8  7.0000000000000E-02  1.2102625245236E-01 -1.4867790042952E-01 -4.4234255724438E-02
     9  8.0000000000000E-02  1.5267280260097E-01 -1.8361746904385E-01 -5.9305026751154E-02
    10  9.0000000000000E-02  1.8574567460145E-01 -2.1776728589043E-01 -7.7138979073031E-02
    11  1.0000000000000E-01  2.1939782577722E-01 -2.4949049106199E-01 -9.7934651543505E-02
    12  1.1000000000000E-01  2.5278924337355E-01 -2.7717380250165E-01 -1.2186957112151E-01
    13  1.2000000000000E-01  2.8511431963776E-01 -2.9928289151397E-01 -1.4908918646960E-01
    14  1.3000000000000E-01  3.1562828194169E-01 -3.1441579481143E-01 -1.7969636913943E-01
    15  1.4000000000000E-01  3.4367184317499E-01 -3.2135266478664E-01 -2.1374185457038E-01
    16  1.5000000000000E-01  3.6869328779179E-01 -3.1910026259619E-01 -2.5121596969968E-01
    17  1.6000000000000E-01  3.9026728302675E-01 -3.0692975043805E-01 -2.9204195742095E-01
    18  1.7000000000000E-01  4.0810980079804E-01 -2.8440653576887E-01 -3.3607116147390E-01
    19  1.8000000000000E-01  4.2208865091628E-01 -2.5141115547434E-01 -3.8308027995881E-01
    20  1.9000000000000E-01  4.3222925708014E-01 -2.0815045533498E-01 -4.3277083317139E-01
    21  2.0000000000000E-01  4.3871544994004E-01 -1.5515861170486E-01 -4.8477092369767E-01
    22  2.1000000000000E-01  4.4188520206129E-01 -9.3287849570238E-02 -5.3863929572248E-01
    23  2.2000000000000E-01  4.4222138347836E-01 -2.3689025003906E-02 -5.9387162842116E-01
    24  2.3000000000000E-01  4.4033776914364E-01  5.2217448839330E-02 -6.4990892731309E-01
    25  2.4000000000000E-01  4.3696067639009E-01  1.3277955392044E-01 -7.0614780972727E-01
    26  2.5000000000000E-01  4.3290674714587E-01  2.1615944131915E-01 -7.6195241816020E-01
    27  2.6000000000000E-01  4.2905751193202E-01  3.0038572195463E-01 -8.1666764024554E-01
    28  2.7000000000000E-01  4.2633147691017E-01  3.8341075727060E-01 -8.6963326805724E-01
    29  2.8000000000000E-01  4.2565455820022E-01  4.6317126506991E-01 -9.2019869403033E-01
    30  2.9000000000000E-01  4.2792974673751E-01  5.3765043655797E-01 -9.6773771710595E-01
    31  3.0000000000000E-01  4.3400692014646E-01  6.0493969439502E-01 -1.0116630216499E+00
    32  3.1000000000000E-01  4.4465372428096E-01  6.6329821056949E-01 -1.0514398937500E+00
    33  3.2000000000000E-01  4.6052842581096E-01  7.1120834798827E-01 -1.0865987547782E+00
    34  3.3000000000000E-01  4.8215558891102E-01  7.4742528999574E-01 -1.1167461203238E+00
    35  3.4000000000000E-01  5.0990535491824E-01  7.7101927511506E-01 -1.1415736330990E+00
    36  3.5000000000000E-01  5.4397700572472E-01  7.8140905612152E-01 -1.1608648701400E+00
    37  3.6000000000000E-01  5.8438737232332E-01  7.7838544761466E-01 -1.1744996861981E+00
    38  3.7000000000000E-01  6.3096451264371E-01  7.6212410775003E-01 -1.1824559249332E+00
    39  3.8000000000000E-01  6.8334693146145E-01  7.3318700979251E-01 -1.1848084054368E+00
    40  3.9000000000000E-01  7.4098845404132E-01  6.9251238883038E-01 -1.1817251715565E+00
    41  4.0000000000000E-01  8.0316869891579E-01  6.4139328885630E-01 -1.1734610731565E+00
    42  4.1000000000000E-01  8.6900892861854E-01  5.8144517560746E-01 -1.1603488294418E+00
    43  4.2000000000000E-01  9.3749289516468E-01  5.1456341109296E-01 -1.1427878023844E+00
    44  4.3000000000000E-01  1.0074921443770E+00  4.4287169683483E-01 -1.1212307807784E+00
    45  4.4000000000000E-01  1.0777951043602E+00  3.6866287519931E-01 -1.0961691402900E+00
    46  4.5000000000000E-01  1.1471391627201E+00  2.9433372322760E-01 -1.0681168000324E+00
    47  4.6000000000000E-01  1.2142448382242E+00  2.2231557352310E-01 -1.0375934399021E+00
    48  4.7000000000000E-01  1.2778510786241E+00  1.5500274567315E-01 -1.0051074737043E+00
    49  4.8000000000000E-01  1.3367506697315E+00  9.4680864458829E-02 -9.7113928984689E-01
    50  4.9000000000000E-01  1.3898247232190E+00  4.3457174393063E-02 -9.3612527337591E-01
    51  5.0000000000000E-01  1.4360752228392E+00  3.1949322704365E-03 -9.0044311006306E-01
    52  5.1000000000000E-01  1.4746546508069E+00 -2.4546129491470E-02 -8.6439884524837E-01
    53  5.2000000000000E-01  1.5048917870885E+00 -3.8561424028471E-02 -8.2821612776434E-01
    54  5.3000000000000E-01  1.5263128725633E+00 -3.8043574715521E-02 -7.9202801349551E-01
    55  5.4000000000000E-01  1.5386574499536E+00 -2.2613536396680E-02 -7.5587163534868E-01
    56  5.5000000000000E-01  1.5418883407799E+00  7.6603161431738E-03 -7.1968596837164E-01
    57  5.6000000000000E-01  1.5361953784901E+00  5.2255888557172E-02 -6.8331283253892E-01
    58  5.7000000000000E-01  1.5219926928703E+00  1.1020425268118E-01 -6.4650118365868E-01
    59  5.8000000000000E-01  1.4999095239819E+00  1.8010973825701E-01 -6.0891464748908E-01
    60  5.9000000000000E-01  1.4707747300362E+00  2.6018286963859E-01 -5.7014215616461E-01
    61  6.0000000000000E-01  1.4355953374795E+00  3.4828541007240E-01 -5.2971145215597E-01
    62  6.1000000000000E-01  1.3955296578364E+00  4.4198641580004E-01 -4.8710513594576E-01
    63  6.2000000000000E-01  1.3518556593978E+00  5.3862786849015E-01 -4.4177885201524E-01
    64  6.3000000000000E-01  1.3059354278088E+00  6.3539815725911E-01 -3.9318113606452E-01
    65  6.4000000000000E-01  1.2591766736309E+00  7.2941142974603E-01 -3.4077438683496E-01
    66  6.5000000000000E-01  1.2129923432203E+00  8.1779063312078E-01 -2.8405638037683E-01
    67  6.6000000000000E-01  1.1687594586651E+00  8.9775192685911E-01 -2.2258171463883E-01
    68  6.7000000000000E-01  1.1277783507405E+00  9.6668807431362E-01 -1.5598255897247E-01
    69  6.8000000000000E-01  1.0912334544150E+00  1.0222484124676E+00 -8.3988087210098E-02
    70  6.9000000000000E-01  1.0601568088228E+00  1.0624130598287E+00 -6.4419945859771E-03
    71  7.0000000000000E-01  1.0353953432073E+00  1.0855591503142E+00  7.6682462381781E-02
    72  7.1000000000000E-01  1.0175829384575E+00  1.0905170733990E+00  1.6527040862088E-01
    73  7.2000000000000E-01  1.0071181327401E+00  1.0766149530758E+00  2.5905671091162E-01
    74  7.3000000000000E-01  1.0041481924738E+00  1.0437099038765E+00  3.5762110703976E-01
    75  7.4000000000000E-01  1.0085601003403E+00  9.9220495337460E-01  4.6038735936559E-01
    76  7.5000000000000E-01  1.0199788247282E+00  9.2305090778561E-01  5.6662658415449E-01
    77  7.6000000000000E-01  1.0377730350479E+00  8.3773285005987E-01  6.7546479748406E-01
    78  7.7000000000000E-01  1.0610682202063E+00  7.3824138688131E-01  7.8589460475900E-01
    79  7.8000000000000E-01  1.0887669589823E+00  6.2702919034932E-01  8.9679084692289E-01
    80  7.9000000000000E-01  1.1195758869210E+00  5.0695379982363E-01  1.0069299054708E+00
    81  8.0000000000000E-01  1.1520387104809E+00  3.8120804749651E-01  1.1150122634471E+00
    82  8.1000000000000E-01  1.1845744410586E+00  2.5323983635076E-01  1.2196878237183E+00
    83  8.2000000000000E-01  1.2155198643863E+00  1.2666332057878E-01  1.3195834017090E+00
    84  8.3000000000000E-01  1.2431751292616E+00  5.1638068265802E-03  1.4133317399625E+00
    85  8.4000000000000E-01  1.2658512375978E+00 -1.0760109835172E-01  1.4996013384362E+00
    86  8.5000000000000E-01  1.2819181485561E+00 -2.0810143015569E-01  1.5771263590786E+00
    87  8.6000000000000E-01  1.2898521753133E+00 -2.9303316473480E-01  1.6447358471734E+00
    88  8.7000000000000E-01  1.2882813551698E+00 -3.5941215246770E-01  1.7013815158805E+00
    89  8.8000000000000E-01  1.2760275125205E+00 -4.0466104563220E-01  1.7461633645386E+00
    90  8.9000000000000E-01  1.2521438090064E+00 -4.2668673864038E-01  1.7783524452225E+00
    91  9.0000000000000E-01  1.2159466842109E+00 -4.2394606737990E-01  1.7974101548626E+00
    92  9.1000000000000E-01  1.1670412308852E+00 -3.9549780746048E-01  1.8030035104751E+00
    93  9.2000000000000E-01  1.1053392172785E+00 -3.4103936185014E-01  1.7950159607804E+00
    94  9.3000000000000E-01  1.0310691613077E+00 -2.6092692733173E-01  1.7735533963187E+00
    95  9.4000000000000E-01  9.4477807192000E-01 -1.5617836586173E-01  1.7389451393386E+00