Sr    ONCVPSP-4.0.1  r_core=   1.65586   1.30348   1.50472
     38.0000     10.0000      250925    zatom,zion,pspd
     8   -1012   2     4   600     0    pspcod,pspxc,lmax,lloc,mmax,r2well
  5.99000000  6.00000000  0.00000000    rchrg fchrg qchrg
     2     3     2     0    nproj
     3     1           extension_switch
     4     4     0    nprojso
   0                         1.0092559080578E+01  1.0286000328576E+00
     1  0.0000000000000E+00  1.4951706539534E-10 -4.1902573078012E-10
     2  1.0000000000000E-02  4.1033505655691E-02 -2.0230920919472E-02
     3  2.0000000000000E-02  8.2050872562752E-02 -4.0432521037940E-02
     4  3.0000000000000E-02  1.2303574920478E-01 -6.0575204614638E-02
     5  4.0000000000000E-02  1.6397136133280E-01 -8.0628832003034E-02
     6  5.0000000000000E-02  2.0484030756742E-01 -1.0056246252287E-01
     7  6.0000000000000E-02  2.4562436325518E-01 -1.2034411481747E-01
     8  7.0000000000000E-02  2.8630429515170E-01 -1.3994055002298E-01
     9  8.0000000000000E-02  3.2685968935526E-01 -1.5931708265684E-01
    10  9.0000000000000E-02  3.6726879473154E-01 -1.7843742362386E-01
    11  1.0000000000000E-01  4.0750838385745E-01 -1.9726355914596E-01
    12  1.1000000000000E-01  4.4755363327239E-01 -2.1575566875947E-01
    13  1.2000000000000E-01  4.8737802456157E-01 -2.3387208480087E-01
    14  1.3000000000000E-01  5.2695326751371E-01 -2.5156929503278E-01
    15  1.4000000000000E-01  5.6624924629740E-01 -2.6880198925914E-01
    16  1.5000000000000E-01  6.0523398929212E-01 -2.8552314995753E-01
    17  1.6000000000000E-01  6.4387366289571E-01 -3.0168418613059E-01
    18  1.7000000000000E-01  6.8213258931452E-01 -3.1723510876464E-01
    19  1.8000000000000E-01  7.1997328803076E-01 -3.3212474549416E-01
    20  1.9000000000000E-01  7.5735654033818E-01 -3.4630099132256E-01
    21  2.0000000000000E-01  7.9424147604654E-01 -3.5971109155525E-01
    22  2.1000000000000E-01  8.3058568118217E-01 -3.7230195247352E-01
    23  2.2000000000000E-01  8.6634532526012E-01 -3.8402047473029E-01
    24  2.3000000000000E-01  9.0147530647637E-01 -3.9481390399026E-01
    25  2.4000000000000E-01  9.3592941297054E-01 -4.0463019297909E-01
    26  2.5000000000000E-01  9.6966049814218E-01 -4.1341836885349E-01
    27  2.6000000000000E-01  1.0026206678707E+00 -4.2112889966581E-01
    28  2.7000000000000E-01  1.0347614773911E+00 -4.2771405367361E-01
    29  2.8000000000000E-01  1.0660341355160E+00 -4.3312824534095E-01
    30  2.9000000000000E-01  1.0963897138721E+00 -4.3732836209177E-01
    31  3.0000000000000E-01  1.1257793588320E+00 -4.4027406620638E-01
    32  3.1000000000000E-01  1.1541545038726E+00 -4.4192806669292E-01
    33  3.2000000000000E-01  1.1814670801797E+00 -4.4225635651298E-01
    34  3.3000000000000E-01  1.2076697234351E+00 -4.4122841118337E-01
    35  3.4000000000000E-01  1.2327159748792E+00 -4.3881734550591E-01
    36  3.5000000000000E-01  1.2565604749171E+00 -4.3500002598131E-01
    37  3.6000000000000E-01  1.2791591477459E+00 -4.2975713732792E-01
    38  3.7000000000000E-01  1.3004693757072E+00 -4.2307320243718E-01
    39  3.8000000000000E-01  1.3204501623107E+00 -4.1493655603869E-01
    40  3.9000000000000E-01  1.3390622831356E+00 -4.0533927330170E-01
    41  4.0000000000000E-01  1.3562684240793E+00 -3.9427705554965E-01
    42  4.1000000000000E-01  1.3720333066908E+00 -3.8174907619286E-01
    43  4.2000000000000E-01  1.3863238005936E+00 -3.6775779087194E-01
    44  4.3000000000000E-01  1.3991090232620E+00 -3.5230871663586E-01
    45  4.4000000000000E-01  1.4103604276600E+00 -3.3541018573645E-01
    46  4.5000000000000E-01  1.4200518784861E+00 -3.1707308028707E-01
    47  4.6000000000000E-01  1.4281597179736E+00 -2.9731055459739E-01
    48  4.7000000000000E-01  1.4346628223827E+00 -2.7613775244017E-01
    49  4.8000000000000E-01  1.4395426504740E+00 -2.5357152682167E-01
    50  4.9000000000000E-01  1.4427832853776E+00 -2.2963017000431E-01
    51  5.0000000000000E-01  1.4443714713589E+00 -2.0433316156004E-01
    52  5.1000000000000E-01  1.4442966470325E+00 -1.7770094211229E-01
    53  5.2000000000000E-01  1.4425509765885E+00 -1.4975472014911E-01
    54  5.3000000000000E-01  1.4391293805659E+00 -1.2051631886181E-01
    55  5.4000000000000E-01  1.4340295676435E+00 -9.0008069383517E-02
    56  5.5000000000000E-01  1.4272520688078E+00 -5.8252756076844E-02
    57  5.6000000000000E-01  1.4188002751173E+00 -2.5273618656779E-02
    58  5.7000000000000E-01  1.4086804800986E+00  8.9055850541845E-03
    59  5.8000000000000E-01  1.3969019276009E+00  4.4260453045484E-02
    60  5.9000000000000E-01  1.3834768656870E+00  8.0765748220219E-02
    61  6.0000000000000E-01  1.3684206068764E+00  1.1839514246856E-01
    62  6.1000000000000E-01  1.3517515947620E+00  1.5712089684476E-01
    63  6.2000000000000E-01  1.3334914767180E+00  1.9691348036139E-01
    64  6.3000000000000E-01  1.3136651821016E+00  2.3774113131343E-01
    65  6.4000000000000E-01  1.2923010050278E+00  2.7956936643682E-01
    66  6.5000000000000E-01  1.2694306904794E+00  3.2236044456728E-01
    67  6.6000000000000E-01  1.2450895222008E+00  3.6607279277171E-01
    68  6.7000000000000E-01  1.2193164105287E+00  4.1066040414984E-01
    69  6.8000000000000E-01  1.1921539780317E+00  4.5607221762731E-01
    70  6.9000000000000E-01  1.1636486405827E+00  5.0225149105771E-01
    71  7.0000000000000E-01  1.1338506812649E+00  5.4913517979903E-01
    72  7.1000000000000E-01  1.1028143143344E+00  5.9665333361177E-01
    73  7.2000000000000E-01  1.0705977363179E+00  6.4472852522102E-01
    74  7.3000000000000E-01  1.0372631612348E+00  6.9327532417937E-01
    75  7.4000000000000E-01  1.0028768368877E+00  7.4219982975023E-01
    76  7.5000000000000E-01  9.6750903917915E-01  7.9139927638896E-01
    77  7.6000000000000E-01  9.3123404147559E-01  8.4076172503066E-01
    78  7.7000000000000E-01  8.9413005616693E-01  8.9016585279107E-01
    79  7.8000000000000E-01  8.5627914574829E-01  9.3948085285550E-01
    80  7.9000000000000E-01  8.1776710099077E-01  9.8856645527146E-01
    81  8.0000000000000E-01  7.7868328406029E-01  1.0372730780853E+00
    82  8.1000000000000E-01  7.3912043479163E-01  1.0854421167786E+00
    83  8.2000000000000E-01  6.9917443872031E-01  1.1329063782880E+00
    84  8.3000000000000E-01  6.5894405591799E-01  1.1794906640466E+00
    85  8.4000000000000E-01  6.1853061015880E-01  1.2250125044896E+00
    86  8.5000000000000E-01  5.7803763846185E-01  1.2692830453479E+00
    87  8.6000000000000E-01  5.3757050159910E-01  1.3121080838376E+00
    88  8.7000000000000E-01  4.9723595672395E-01  1.3532892505710E+00
    89  8.8000000000000E-01  4.5714169385315E-01  1.3926253306962E+00
    90  8.9000000000000E-01  4.1739583851762E-01  1.4299137154565E+00
    91  9.0000000000000E-01  3.7810642347527E-01  1.4649519730745E+00
    92  9.1000000000000E-01  3.3938083294444E-01  1.4975395256484E+00
    93  9.2000000000000E-01  3.0132522335950E-01  1.5274794166362E+00
    94  9.3000000000000E-01  2.6404392516259E-01  1.5545801515256E+00
    95  9.4000000000000E-01  2.2763883061906E-01  1.5786575924784E+00
    96  9.5000000000000E-01  1.9220877306959E-01  1.5995368861385E+00
    97  9.6000000000000E-01  1.5784890340332E-01  1.6170544024112E+00
    98  9.7000000000000E-01  1.2465006984431E-01  1.6310596609078E+00
    99  9.8000000000000E-01  9.2698207384120E-02  1.6414172209110E+00
   100  9.9000000000000E-01  6.2073743359308E-02  1.6480085101770E+00
   101  1.0000000000000E+00  3.2851025760266E-02  1.6507335676703E+00
   102  1.0100000000000E+00  5.0977808633717E-03  1.6495126754294E+00
   103  1.0200000000000E+00 -2.1125393299918E-02  1.6442878552037E+00
   104  1.0300000000000E+00 -4.5765491287416E-02  1.6350242062715E+00
   105  1.0400000000000E+00 -6.8777516303885E-02  1.6217110619630E+00
   106  1.0500000000000E+00 -9.0124842204484E-02  1.6043629438402E+00
   107  1.0600000000000E+00 -1.0977951609181E-01  1.5830202942357E+00
   108  1.0700000000000E+00 -1.2772249664555E-01  1.5577499698943E+00
   109  1.0800000000000E+00 -1.4394382388863E-01  1.5286454817740E+00
   110  1.0900000000000E+00 -1.5844271672474E-01  1.4958269686308E+00
   111  1.1000000000000E+00 -1.7122759527059E-01  1.4594408947848E+00
   112  1.1100000000000E+00 -1.8231602574844E-01  1.4196594654337E+00
   113  1.1200000000000E+00 -1.9173458648412E-01  1.3766797559759E+00
   114  1.1300000000000E+00 -1.9951865437130E-01  1.3307225550281E+00
   115  1.1400000000000E+00 -2.0571211199542E-01  1.2820309240800E+00
   116  1.1500000000000E+00 -2.1036697645705E-01  1.2308684800324E+00
   117  1.1600000000000E+00 -2.1354295177569E-01  1.1775174101124E+00
   118  1.1700000000000E+00 -2.1530690758822E-01  1.1222762318638E+00
   119  1.1800000000000E+00 -2.1573228765908E-01  1.0654573139647E+00
   120  1.1900000000000E+00 -2.1489845249381E-01  1.0073841765492E+00
   121  1.2000000000000E+00 -2.1288996106820E-01  9.4838859239934E-01
   122  1.2100000000000E+00 -2.0979579735556E-01  8.8880751284447E-01
   123  1.2200000000000E+00 -2.0570854793362E-01  8.2897984437317E-01
   124  1.2300000000000E+00 -2.0072353747823E-01  7.6924310382937E-01
   125  1.2400000000000E+00 -1.9493792939345E-01  7.0992998158057E-01
   126  1.2500000000000E+00 -1.8844979917788E-01  6.5136484318919E-01
   127  1.2600000000000E+00 -1.8135718838385E-01  5.9386020087886E-01
   128  1.2700000000000E+00 -1.7375714718085E-01  5.3771318643504E-01
   129  1.2800000000000E+00 -1.6574477358714E-01  4.8320205712079E-01
   130  1.2900000000000E+00 -1.5741225709608E-01  4.3058276375930E-01
   131  1.3000000000000E+00 -1.4884793818073E-01  3.8008563649021E-01
   132  1.3100000000000E+00 -1.4013538548151E-01  3.3191217750906E-01
   133  1.3200000000000E+00 -1.3135299474482E-01  2.8623545256795E-01
   134  1.3300000000000E+00 -1.2257425993992E-01  2.4320458187958E-01
   135  1.3400000000000E+00 -1.1386755950995E-01  2.0294503432779E-01
   136  1.3500000000000E+00 -1.0529578016417E-01  1.6555751512139E-01
   137  1.3600000000000E+00 -9.6916009047899E-02  1.3111716035628E-01
   138  1.3700000000000E+00 -8.8779291330171E-02  9.9673004171557E-02
   139  1.3800000000000E+00 -8.0930456701212E-02  7.1247733917244E-02
   140  1.3900000000000E+00 -7.3408016497837E-02  4.5837738416612E-02
   141  1.4000000000000E+00 -6.6244132322975E-02  2.3413450978446E-02
   142  1.4100000000000E+00 -5.9464656137542E-02  3.9199851750187E-03
   143  1.4200000000000E+00 -5.3089240905765E-02 -1.2721942260177E-02
   144  1.4300000000000E+00 -4.7131519989414E-02 -2.6614810663312E-02
   145  1.4400000000000E+00 -4.1599352613858E-02 -3.7882829583904E-02
   146  1.4500000000000E+00 -3.6495131890960E-02 -4.6670224008553E-02
   147  1.4600000000000E+00 -3.1816151086580E-02 -5.3139290038340E-02
   148  1.4700000000000E+00 -2.7555023075463E-02 -5.7468243377058E-02
   149  1.4800000000000E+00 -2.3700147243775E-02 -5.9848885707107E-02
   150  1.4900000000000E+00 -2.0236217491463E-02 -6.0484116438739E-02
   151  1.5000000000000E+00 -1.7144764455703E-02 -5.9585319405497E-02
   152  1.5100000000000E+00 -1.4404724636809E-02 -5.7369655789099E-02
   153  1.5200000000000E+00 -1.1993028761337E-02 -5.4057295882917E-02
   154  1.5300000000000E+00 -9.8852014696627E-03 -4.9868623220885E-02
   155  1.5400000000000E+00 -8.0559642709341E-03 -4.5021445093516E-02
   156  1.5500000000000E+00 -6.4798334214503E-03 -3.9728244089825E-02
   157  1.5600000000000E+00 -5.1317070789945E-03 -3.4193498806244E-02
   158  1.5700000000000E+00 -3.9874173756853E-03 -2.8611147213068E-02
   159  1.5800000000000E+00 -3.0253521184511E-03 -2.3159709251048E-02
   160  1.5900000000000E+00 -2.2273471623492E-03 -1.7998849163762E-02
   161  1.6000000000000E+00 -1.5740176703743E-03 -1.3278981051492E-02
   162  1.6100000000000E+00 -1.0487271813698E-03 -9.1319300451251E-03
   163  1.6200000000000E+00 -6.3813697392550E-04 -5.6688126341762E-03
   164  1.6300000000000E+00 -3.3266477419181E-04 -2.9793896565123E-03
   165  1.6400000000000E+00 -1.2560707431626E-04 -1.1210700782158E-03
   166  1.6500000000000E+00 -1.9499739074470E-05 -1.7131489834679E-04
   167  1.6600000000000E+00  2.4709830450513E-06  2.1554160302934E-05
   168  1.6700000000000E+00 -7.4149701377628E-07 -6.5246579819575E-06
   169  1.68  0.  0.
   170  1.69  0.  0.
   171  1.70  0.  0.
   172  1.71  0.  0.
   173  1.72  0.  0.
   174  1.73  0.  0.
   175  1.74  0.  0.
   176  1.75  0.  0.
   177  1.76  0.  0.
   178  1.77  0.  0.
   179  1.78  0.  0.
   180  1.79  0.  0.
   181  1.80  0.  0.
   182  1.81  0.  0.
   183  1.82  0.  0.
   184  1.83  0.  0.
   185  1.84  0.  0.
   186  1.85  0.  0.
   187  1.86  0.  0.
   188  1.87  0.  0.
   189  1.88  0.  0.
   190  1.89  0.  0.
   191  1.90  0.  0.
   192  1.91  0.  0.
   193  1.92  0.  0.
   194  1.93  0.  0.
   195  1.94  0.  0.
   196  1.95  0.  0.
   197  1.96  0.  0.
   198  1.97  0.  0.
   199  1.98  0.  0.
   200  1.99  0.  0.
   201  2.00  0.  0.
   202  2.01  0.  0.
   203  2.02  0.  0.
   204  2.03  0.  0.
   205  2.04  0.  0.
   206  2.05  0.  0.
   207  2.06  0.  0.
   208  2.07  0.  0.
   209  2.08  0.  0.
   210  2.09  0.  0.
   211  2.10  0.  0.
   212  2.11  0.  0.
   213  2.12  0.  0.
   214  2.13  0.  0.
   215  2.14  0.  0.
   216  2.15  0.  0.
   217  2.16  0.  0.
   218  2.17  0.  0.
   219  2.18  0.  0.
   220  2.19  0.  0.
   221  2.20  0.  0.
   222  2.21  0.  0.
   223  2.22  0.  0.
   224  2.23  0.  0.
   225  2.24  0.  0.
   226  2.25  0.  0.
   227  2.26  0.  0.
   228  2.27  0.  0.
   229  2.28  0.  0.
   230  2.29  0.  0.
   231  2.30  0.  0.
   232  2.31  0.  0.
   233  2.32  0.  0.
   234  2.33  0.  0.
   235  2.34  0.  0.
   236  2.35  0.  0.
   237  2.36  0.  0.
   238  2.37  0.  0.
   239  2.38  0.  0.
   240  2.39  0.  0.
   241  2.40  0.  0.
   242  2.41  0.  0.
   243  2.42  0.  0.
   244  2.43  0.  0.
   245  2.44  0.  0.
   246  2.45  0.  0.
   247  2.46  0.  0.
   248  2.47  0.  0.
   249  2.48  0.  0.
   250  2.49  0.  0.
   251  2.50  0.  0.
   252  2.51  0.  0.
   253  2.52  0.  0.
   254  2.53  0.  0.
   255  2.54  0.  0.
   256  2.55  0.  0.
   257  2.56  0.  0.
   258  2.57  0.  0.
   259  2.58  0.  0.
   260  2.59  0.  0.
   261  2.60  0.  0.
   262  2.61  0.  0.
   263  2.62  0.  0.
   264  2.63  0.  0.
   265  2.64  0.  0.
   266  2.65  0.  0.
   267  2.66  0.  0.
   268  2.67  0.  0.
   269  2.68  0.  0.
   270  2.69  0.  0.
   271  2.70  0.  0.
   272  2.71  0.  0.
   273  2.72  0.  0.
   274  2.73  0.  0.
   275  2.74  0.  0.
   276  2.75  0.  0.
   277  2.76  0.  0.
   278  2.77  0.  0.
   279  2.78  0.  0.
   280  2.79  0.  0.
   281  2.80  0.  0.
   282  2.81  0.  0.
   283  2.82  0.  0.
   284  2.83  0.  0.
   285  2.84  0.  0.
   286  2.85  0.  0.
   287  2.86  0.  0.
   288  2.87  0.  0.
   289  2.88  0.  0.
   290  2.89  0.  0.
   291  2.90  0.  0.
   292  2.91  0.  0.
   293  2.92  0.  0.
   294  2.93  0.  0.
   295  2.94  0.  0.
   296  2.95  0.  0.
   297  2.96  0.  0.
   298  2.97  0.  0.
   299  2.98  0.  0.
   300  2.99  0.  0.
   301  3.00  0.  0.
   302  3.01  0.  0.
   303  3.02  0.  0.
   304  3.03  0.  0.
   305  3.04  0.  0.
   306  3.05  0.  0.
   307  3.06  0.  0.
   308  3.07  0.  0.
   309  3.08  0.  0.
   310  3.09  0.  0.
   311  3.10  0.  0.
   312  3.11  0.  0.
   313  3.12  0.  0.
   314  3.13  0.  0.
   315  3.14  0.  0.
   316  3.15  0.  0.
   317  3.16  0.  0.
   318  3.17  0.  0.
   319  3.18  0.  0.
   320  3.19  0.  0.
   321  3.20  0.  0.
   322  3.21  0.  0.
   323  3.22  0.  0.
   324  3.23  0.  0.
   325  3.24  0.  0.
   326  3.25  0.  0.
   327  3.26  0.  0.
   328  3.27  0.  0.
   329  3.28  0.  0.
   330  3.29  0.  0.
   331  3.30  0.  0.
   332  3.31  0.  0.
   333  3.32  0.  0.
   334  3.33  0.  0.
   335  3.34  0.  0.
   336  3.35  0.  0.
   337  3.36  0.  0.
   338  3.37  0.  0.
   339  3.38  0.  0.
   340  3.39  0.  0.
   341  3.40  0.  0.
   342  3.41  0.  0.
   343  3.42  0.  0.
   344  3.43  0.  0.
   345  3.44  0.  0.
   346  3.45  0.  0.
   347  3.46  0.  0.
   348  3.47  0.  0.
   349  3.48  0.  0.
   350  3.49  0.  0.
   351  3.50  0.  0.
   352  3.51  0.  0.
   353  3.52  0.  0.
   354  3.53  0.  0.
   355  3.54  0.  0.
   356  3.55  0.  0.
   357  3.56  0.  0.
   358  3.57  0.  0.
   359  3.58  0.  0.
   360  3.59  0.  0.
   361  3.60  0.  0.
   362  3.61  0.  0.
   363  3.62  0.  0.
   364  3.63  0.  0.
   365  3.64  0.  0.
   366  3.65  0.  0.
   367  3.66  0.  0.
   368  3.67  0.  0.
   369  3.68  0.  0.
   370  3.69  0.  0.
   371  3.70  0.  0.
   372  3.71  0.  0.
   373  3.72  0.  0.
   374  3.73  0.  0.
   375  3.74  0.  0.
   376  3.75  0.  0.
   377  3.76  0.  0.
   378  3.77  0.  0.
   379  3.78  0.  0.
   380  3.79  0.  0.
   381  3.80  0.  0.
   382  3.81  0.  0.
   383  3.82  0.  0.
   384  3.83  0.  0.
   385  3.84  0.  0.
   386  3.85  0.  0.
   387  3.86  0.  0.
   388  3.87  0.  0.
   389  3.88  0.  0.
   390  3.89  0.  0.
   391  3.90  0.  0.
   392  3.91  0.  0.
   393  3.92  0.  0.
   394  3.93  0.  0.
   395  3.94  0.  0.
   396  3.95  0.  0.
   397  3.96  0.  0.
   398  3.97  0.  0.
   399  3.98  0.  0.
   400  3.99  0.  0.
   401  4.00  0.  0.
   402  4.01  0.  0.
   403  4.02  0.  0.
   404  4.03  0.  0.
   405  4.04  0.  0.
   406  4.05  0.  0.
   407  4.06  0.  0.
   408  4.07  0.  0.
   409  4.08  0.  0.
   410  4.09  0.  0.
   411  4.10  0.  0.
   412  4.11  0.  0.
   413  4.12  0.  0.
   414  4.13  0.  0.
   415  4.14  0.  0.
   416  4.15  0.  0.
   417  4.16  0.  0.
   418  4.17  0.  0.
   419  4.18  0.  0.
   420  4.19  0.  0.
   421  4.20  0.  0.
   422  4.21  0.  0.
   423  4.22  0.  0.
   424  4.23  0.  0.
   425  4.24  0.  0.
   426  4.25  0.  0.
   427  4.26  0.  0.
   428  4.27  0.  0.
   429  4.28  0.  0.
   430  4.29  0.  0.
   431  4.30  0.  0.
   432  4.31  0.  0.
   433  4.32  0.  0.
   434  4.33  0.  0.
   435  4.34  0.  0.
   436  4.35  0.  0.
   437  4.36  0.  0.
   438  4.37  0.  0.
   439  4.38  0.  0.
   440  4.39  0.  0.
   441  4.40  0.  0.
   442  4.41  0.  0.
   443  4.42  0.  0.
   444  4.43  0.  0.
   445  4.44  0.  0.
   446  4.45  0.  0.
   447  4.46  0.  0.
   448  4.47  0.  0.
   449  4.48  0.  0.
   450  4.49  0.  0.
   451  4.50  0.  0.
   452  4.51  0.  0.
   453  4.52  0.  0.
   454  4.53  0.  0.
   455  4.54  0.  0.
   456  4.55  0.  0.
   457  4.56  0.  0.
   458  4.57  0.  0.
   459  4.58  0.  0.
   460  4.59  0.  0.
   461  4.60  0.  0.
   462  4.61  0.  0.
   463  4.62  0.  0.
   464  4.63  0.  0.
   465  4.64  0.  0.
   466  4.65  0.  0.
   467  4.66  0.  0.
   468  4.67  0.  0.
   469  4.68  0.  0.
   470  4.69  0.  0.
   471  4.70  0.  0.
   472  4.71  0.  0.
   473  4.72  0.  0.
   474  4.73  0.  0.
   475  4.74  0.  0.
   476  4.75  0.  0.
   477  4.76  0.  0.
   478  4.77  0.  0.
   479  4.78  0.  0.
   480  4.79  0.  0.
   481  4.80  0.  0.
   482  4.81  0.  0.
   483  4.82  0.  0.
   484  4.83  0.  0.
   485  4.84  0.  0.
   486  4.85  0.  0.
   487  4.86  0.  0.
   488  4.87  0.  0.
   489  4.88  0.  0.
   490  4.89  0.  0.
   491  4.90  0.  0.
   492  4.91  0.  0.
   493  4.92  0.  0.
   494  4.93  0.  0.
   495  4.94  0.  0.
   496  4.95  0.  0.
   497  4.96  0.  0.
   498  4.97  0.  0.
   499  4.98  0.  0.
   500  4.99  0.  0.
   501  5.00  0.  0.
   502  5.01  0.  0.
   503  5.02  0.  0.
   504  5.03  0.  0.
   505  5.04  0.  0.
   506  5.05  0.  0.
   507  5.06  0.  0.
   508  5.07  0.  0.
   509  5.08  0.  0.
   510  5.09  0.  0.
   511  5.10  0.  0.
   512  5.11  0.  0.
   513  5.12  0.  0.
   514  5.13  0.  0.
   515  5.14  0.  0.
   516  5.15  0.  0.
   517  5.16  0.  0.
   518  5.17  0.  0.
   519  5.18  0.  0.
   520  5.19  0.  0.
   521  5.20  0.  0.
   522  5.21  0.  0.
   523  5.22  0.  0.
   524  5.23  0.  0.
   525  5.24  0.  0.
   526  5.25  0.  0.
   527  5.26  0.  0.
   528  5.27  0.  0.
   529  5.28  0.  0.
   530  5.29  0.  0.
   531  5.30  0.  0.
   532  5.31  0.  0.
   533  5.32  0.  0.
   534  5.33  0.  0.
   535  5.34  0.  0.
   536  5.35  0.  0.
   537  5.36  0.  0.
   538  5.37  0.  0.
   539  5.38  0.  0.
   540  5.39  0.  0.
   541  5.40  0.  0.
   542  5.41  0.  0.
   543  5.42  0.  0.
   544  5.43  0.  0.
   545  5.44  0.  0.
   546  5.45  0.  0.
   547  5.46  0.  0.
   548  5.47  0.  0.
   549  5.48  0.  0.
   550  5.49  0.  0.
   551  5.50  0.  0.
   552  5.51  0.  0.
   553  5.52  0.  0.
   554  5.53  0.  0.
   555  5.54  0.  0.
   556  5.55  0.  0.
   557  5.56  0.  0.
   558  5.57  0.  0.
   559  5.58  0.  0.
   560  5.59  0.  0.
   561  5.60  0.  0.
   562  5.61  0.  0.
   563  5.62  0.  0.
   564  5.63  0.  0.
   565  5.64  0.  0.
   566  5.65  0.  0.
   567  5.66  0.  0.
   568  5.67  0.  0.
   569  5.68  0.  0.
   570  5.69  0.  0.
   571  5.70  0.  0.
   572  5.71  0.  0.
   573  5.72  0.  0.
   574  5.73  0.  0.
   575  5.74  0.  0.
   576  5.75  0.  0.
   577  5.76  0.  0.
   578  5.77  0.  0.
   579  5.78  0.  0.
   580  5.79  0.  0.
   581  5.80  0.  0.
   582  5.81  0.  0.
   583  5.82  0.  0.
   584  5.83  0.  0.
   585  5.84  0.  0.
   586  5.85  0.  0.
   587  5.86  0.  0.
   588  5.87  0.  0.
   589  5.88  0.  0.
   590  5.89  0.  0.
   591  5.90  0.  0.
   592  5.91  0.  0.
   593  5.92  0.  0.
   594  5.93  0.  0.
   595  5.94  0.  0.
   596  5.95  0.  0.
   597  5.96  0.  0.
   598  5.97  0.  0.
   599  5.98  0.  0.
   600  5.99  0.  0.
   1                         7.4484189925892E+00  1.5603611739156E+00  1.6815267132389E-02
     1  0.0000000000000E+00  1.1490305718009E-07 -2.3397864831742E-07  5.2076398762702E-08
     2  1.0000000000000E-02  2.7596046232467E-03 -3.6021966073833E-03 -8.1869418682798E-04
     3  2.0000000000000E-02  1.0962510160654E-02 -1.4259636333443E-02 -3.2974250396691E-03
     4  3.0000000000000E-02  2.4383413683371E-02 -3.1529781812367E-02 -7.5031083908830E-03
     5  4.0000000000000E-02  4.2654809206917E-02 -5.4691295039091E-02 -1.3543874649556E-02
     6  5.0000000000000E-02  6.5278726946245E-02 -8.2767845855599E-02 -2.1564093379092E-02
     7  6.0000000000000E-02  9.1642658062619E-02 -1.1456040426710E-01 -3.1737641026732E-02
     8  7.0000000000000E-02  1.2103917305240E-01 -1.4868701451693E-01 -4.4259636447208E-02
     9  8.0000000000000E-02  1.5268862702475E-01 -1.8362881487034E-01 -5.9336920939131E-02
    10  9.0000000000000E-02  1.8576424839406E-01 -2.1778087020252E-01 -7.7177603006999E-02
    11  1.0000000000000E-01  2.1941883189807E-01 -2.4950623072303E-01 -9.7980021605524E-02
    12  1.1000000000000E-01  2.5281220465039E-01 -2.7719152419956E-01 -1.2192150414164E-01
    13  1.2000000000000E-01  2.8513860676588E-01 -2.9930233416624E-01 -1.4914730626303E-01
    14  1.3000000000000E-01  3.1565312684039E-01 -3.1443661460784E-01 -1.7976011905796E-01
    15  1.4000000000000E-01  3.4369635734532E-01 -3.2137444273350E-01 -2.1381051570958E-01
    16  1.5000000000000E-01  3.6871648516039E-01 -3.1912251435329E-01 -2.5128868423074E-01
    17  1.6000000000000E-01  3.9028810661700E-01 -3.0695193817257E-01 -2.9211775635813E-01
    18  1.7000000000000E-01  4.0812715244479E-01 -2.8442808169134E-01 -3.3614899605115E-01
    19  1.8000000000000E-01  4.2210142313855E-01 -2.5143145667209E-01 -3.8315905567511E-01
    20  1.9000000000000E-01  4.3223636615075E-01 -2.0816889947980E-01 -4.3284944547722E-01
    21  2.0000000000000E-01  4.3871586914392E-01 -1.5517459318481E-01 -4.8484829423914E-01
    22  2.1000000000000E-01  4.4187799411739E-01 -9.3300785581494E-02 -5.3871440803416E-01
    23  2.2000000000000E-01  4.4220573111408E-01 -2.3698371138082E-02 -5.9394356196680E-01
    24  2.3000000000000E-01  4.4031300285534E-01  5.2212183964720E-02 -6.4997688881406E-01
    25  2.4000000000000E-01  4.3692629849746E-01  1.3277879541496E-01 -7.0621116079066E-01
    26  2.5000000000000E-01  4.3286245134956E-01  2.1616353654479E-01 -7.6201069832041E-01
    27  2.6000000000000E-01  4.2900319771042E-01  3.0039493116354E-01 -8.1672058466249E-01
    28  2.7000000000000E-01  4.2626725823869E-01  3.8342524663627E-01 -8.6968081926633E-01
    29  2.8000000000000E-01  4.2558076624096E-01  4.6319110232611E-01 -9.2024100731100E-01
    30  2.9000000000000E-01  4.2784692632365E-01  5.3767558938612E-01 -9.6777515922142E-01
    31  3.0000000000000E-01  4.3391582006949E-01  6.0497003162334E-01 -1.0116961629053E+00
    32  3.1000000000000E-01  4.4455528157398E-01  6.6333350616751E-01 -1.0514694935142E+00
    33  3.2000000000000E-01  4.6042374440271E-01  7.1124828776069E-01 -1.0866257408102E+00
    34  3.3000000000000E-01  4.8204591319756E-01  7.4746948080268E-01 -1.1167715624326E+00
    35  3.4000000000000E-01  5.0979203895681E-01  7.7106725637304E-01 -1.1415987118398E+00
    36  3.5000000000000E-01  5.4386147889308E-01  7.8146031327375E-01 -1.1608908414043E+00
    37  3.6000000000000E-01  5.8427110240286E-01  7.7843942720176E-01 -1.1745278426890E+00
    38  3.7000000000000E-01  6.3084896737277E-01  7.6218023366497E-01 -1.1824875556198E+00
    39  3.8000000000000E-01  6.8323353966330E-01  7.3324470026788E-01 -1.1848447541572E+00
    40  3.9000000000000E-01  7.4087856745784E-01  6.9257107368276E-01 -1.1817673959792E+00
    41  4.0000000000000E-01  8.0306355587074E-01  6.4145242650227E-01 -1.1735102053168E+00
    42  4.1000000000000E-01  8.6890962059477E-01  5.8150426936948E-01 -1.1604057390415E+00
    43  4.2000000000000E-01  9.3740033730741E-01  5.1462202432971E-01 -1.1428531639788E+00
    44  4.3000000000000E-01  1.0074070508326E+00  4.4292946646077E-01 -1.1213050458807E+00
    45  4.4000000000000E-01  1.0777179692297E+00  3.6871952319998E-01 -1.0962525152945E+00
    46  4.5000000000000E-01  1.1470702472514E+00  2.9438906583006E-01 -1.0682092307050E+00
    47  4.6000000000000E-01  1.2141841646930E+00  2.2236952774370E-01 -1.0376946030095E+00
    48  4.7000000000000E-01  1.2777984311633E+00  1.5505533303492E-01 -1.0052167761575E+00
    49  4.8000000000000E-01  1.3367056021684E+00  9.4732211747272E-02 -9.7125587552552E-01
    50  4.9000000000000E-01  1.3897865737770E+00  4.3507511399046E-02 -9.3624803758676E-01
    51  5.0000000000000E-01  1.4360431353587E+00  3.2445865506850E-03 -9.0057072136624E-01
    52  5.1000000000000E-01  1.4746276019444E+00 -2.4496740724749E-02 -8.6452977417540E-01
    53  5.2000000000000E-01  1.5048686187727E+00 -3.8511804699286E-02 -8.2834868174997E-01
    54  5.3000000000000E-01  1.5262923288267E+00 -3.7993163094254E-02 -7.9216037716264E-01
    55  5.4000000000000E-01  1.5386382171148E+00 -2.2561720399883E-02 -7.5600191512267E-01
    56  5.5000000000000E-01  1.5418690898464E+00  7.7141819495132E-03 -7.1981224026611E-01
    57  5.6000000000000E-01  1.5361748085689E+00  5.2312464683968E-02 -6.8343319185049E-01
    58  5.7000000000000E-01  1.5219695743281E+00  1.1026419564049E-01 -6.4661379523889E-01
    59  5.8000000000000E-01  1.4998827400894E+00  1.8017368117528E-01 -6.0901779522755E-01
    60  5.9000000000000E-01  1.4707433158556E+00  2.6025140305932E-01 -5.7023429032158E-01
    61  6.0000000000000E-01  1.4355585148173E+00  3.4835906344520E-01 -5.2979123322496E-01
    62  6.1000000000000E-01  1.3954868651824E+00  4.4206564013566E-01 -4.8717147380491E-01
    63  6.2000000000000E-01  1.3518065758983E+00  5.3871302063139E-01 -4.4183093924111E-01
    64  6.3000000000000E-01  1.3058799904819E+00  6.3548948617622E-01 -3.9321847442742E-01
    65  6.4000000000000E-01  1.2591150872145E+00  7.2950906521270E-01 -3.4079680617055E-01
    66  6.5000000000000E-01  1.2129250822444E+00  8.1789457706561E-01 -2.8406404922632E-01
    67  6.6000000000000E-01  1.1686872615589E+00  8.9786204761862E-01 -2.2257514226839E-01
    68  6.7000000000000E-01  1.1277022060073E+00  9.6680410393847E-01 -1.5596258861029E-01
    69  6.8000000000000E-01  1.0911545791349E+00  1.0223699471561E+00 -8.3955880578022E-02
    70  6.9000000000000E-01  1.0600766199656E+00  1.0625395634820E+00 -6.3990080361912E-03
    71  7.0000000000000E-01  1.0353154224486E+00  1.0856899611303E+00  7.6734509584158E-02
    72  7.1000000000000E-01  1.0175049913828E+00  1.0906514133455E+00  1.6532957311212E-01
    73  7.2000000000000E-01  1.0070439434945E+00  1.0767519400129E+00  2.5912087018733E-01
    74  7.3000000000000E-01  1.0040795750587E+00  1.0438485660364E+00  3.5768800942944E-01
    75  7.4000000000000E-01  1.0084988478656E+00  9.9234424584851E-01  4.6045467775546E-01
    76  7.5000000000000E-01  1.0199266580081E+00  9.2318973062478E-01  5.6669197207962E-01
    77  7.6000000000000E-01  1.0377315519627E+00  8.3787006756134E-01  6.7552594613958E-01
    78  7.7000000000000E-01  1.0610388472512E+00  7.3837584760682E-01  7.8594929944668E-01
    79  7.8000000000000E-01  1.0887509063822E+00  6.2715974741461E-01  8.9683702145633E-01
    80  7.9000000000000E-01  1.1195741086086E+00  5.0707933099682E-01  1.0069656931093E+00
    81  8.0000000000000E-01  1.1520518701177E+00  3.8132747465761E-01  1.1150360430159E+00
    82  8.1000000000000E-01  1.1846028851242E+00  2.5335214388891E-01  1.2196982596934E+00
    83  8.2000000000000E-01  1.2155636031809E+00  1.2676757233902E-01  1.3195794772060E+00
    84  8.3000000000000E-01  1.2432338264574E+00  5.2591612624165E-03  1.4133127817494E+00
    85  8.4000000000000E-01  1.2659242087461E+00 -1.0751537511134E-01  1.4995670333066E+00
    86  8.5000000000000E-01  1.2820043687180E+00 -2.0802595355784E-01  1.5770767611472E+00
    87  8.6000000000000E-01  1.2899502957308E+00 -2.9296842354223E-01  1.6446713758999E+00
    88  8.7000000000000E-01  1.2883897286478E+00 -3.5935850309072E-01  1.7013029448742E+00
    89  8.8000000000000E-01  1.2761442269473E+00 -4.0461870909055E-01  1.7460718014447E+00
    90  8.9000000000000E-01  1.2522667282133E+00 -4.2665580012732E-01  1.7782493032282E+00
    91  9.0000000000000E-01  1.2160734951633E+00 -4.2392647833893E-01  1.7972971165877E+00
    92  9.1000000000000E-01  1.1671694960155E+00 -3.9548939002719E-01  1.8028824852135E+00
    93  9.2000000000000E-01  1.1054664306216E+00 -3.4104181546039E-01  1.7948890362395E+00
    94  9.3000000000000E-01  1.0311928069855E+00 -2.6093983725352E-01  1.7734227861478E+00
    95  9.4000000000000E-01  9.4489568344300E-01 -1.5620121337262E-01  1.7388131278491E+00