Sr    ONCVPSP-4.0.1  r_core=   1.65586   1.30348   1.50472
     38.0000     10.0000      231019    zatom,zion,pspd
     8       2   2     4   600     0    pspcod,pspxc,lmax,lloc,mmax,r2well
  5.99000000  6.00000000  0.00000000    rchrg fchrg qchrg
     2     2     2     0     0    nproj
     1     1           extension_switch
   0                         1.0092773684010E+01  1.0294705473587E+00
     1  0.0000000000000E+00  1.4997753039481E-10 -4.2038647563025E-10
     2  1.0000000000000E-02  4.1055976319640E-02 -2.0228549158356E-02
     3  2.0000000000000E-02  8.2095760455040E-02 -4.0427787209697E-02
     4  3.0000000000000E-02  1.2310294721232E-01 -6.0568126927968E-02
     5  4.0000000000000E-02  1.6406070818911E-01 -8.0619434848577E-02
     6  5.0000000000000E-02  2.0495158715832E-01 -1.0055077303805E-01
     7  6.0000000000000E-02  2.4575730372901E-01 -1.2033015842464E-01
     8  7.0000000000000E-02  2.8645856786418E-01 -1.3992434503938E-01
     9  8.0000000000000E-02  3.2703490768546E-01 -1.5929863409687E-01
    10  9.0000000000000E-02  3.6746451281126E-01 -1.7841671633285E-01
    11  1.0000000000000E-01  4.0772409526152E-01 -1.9724055042205E-01
    12  1.1000000000000E-01  4.4778876972134E-01 -2.1573028063410E-01
    13  1.2000000000000E-01  4.8763195469149E-01 -2.3384419615966E-01
    14  1.3000000000000E-01  5.2722529577034E-01 -2.5153873376649E-01
    15  1.4000000000000E-01  5.6653861201261E-01 -2.6876852463893E-01
    16  1.5000000000000E-01  6.0553986600102E-01 -2.8548648542987E-01
    17  1.6000000000000E-01  6.4419515795154E-01 -3.0164395272484E-01
    18  1.7000000000000E-01  6.8246874385632E-01 -3.1719085929994E-01
    19  1.8000000000000E-01  7.2032307735554E-01 -3.3207594976333E-01
    20  1.9000000000000E-01  7.5771887472508E-01 -3.4624703241760E-01
    21  2.0000000000000E-01  7.9461520207496E-01 -3.5965126348293E-01
    22  2.1000000000000E-01  8.3096958358002E-01 -3.7223545919110E-01
    23  2.2000000000000E-01  8.6673812931075E-01 -3.8394643070937E-01
    24  2.3000000000000E-01  9.0187568100555E-01 -3.9473133639311E-01
    25  2.4000000000000E-01  9.3633597392599E-01 -4.0453804550571E-01
    26  2.5000000000000E-01  9.7007181276964E-01 -4.1331550729041E-01
    27  2.6000000000000E-01  1.0030352594812E+00 -4.2101411913894E-01
    28  2.7000000000000E-01  1.0351778307043E+00 -4.2758608757803E-01
    29  2.8000000000000E-01  1.0664507025566E+00 -4.3298577589124E-01
    30  2.9000000000000E-01  1.0968049203844E+00 -4.3717003240719E-01
    31  3.0000000000000E-01  1.1261916111706E+00 -4.4009849381647E-01
    32  3.1000000000000E-01  1.1545621963193E+00 -4.4173385832217E-01
    33  3.2000000000000E-01  1.1818686026246E+00 -4.4204212397741E-01
    34  3.3000000000000E-01  1.2080634693587E+00 -4.4099278820855E-01
    35  3.4000000000000E-01  1.2331003495591E+00 -4.3855900525470E-01
    36  3.5000000000000E-01  1.2569339037829E+00 -4.3471769906201E-01
    37  3.6000000000000E-01  1.2795200847975E+00 -4.2944963003854E-01
    38  3.7000000000000E-01  1.3008163119104E+00 -4.2273941499029E-01
    39  3.8000000000000E-01  1.3207816338812E+00 -4.1457550050399E-01
    40  3.9000000000000E-01  1.3393768796212E+00 -4.0495009099992E-01
    41  4.0000000000000E-01  1.3565647961515E+00 -3.9385903363219E-01
    42  4.1000000000000E-01  1.3723101735572E+00 -3.8130166314600E-01
    43  4.2000000000000E-01  1.3865799569477E+00 -3.6728061069369E-01
    44  4.3000000000000E-01  1.3993433456886E+00 -3.5180158144663E-01
    45  4.4000000000000E-01  1.4105718804235E+00 -3.3487310660106E-01
    46  4.5000000000000E-01  1.4202395186320E+00 -3.1650627604717E-01
    47  4.6000000000000E-01  1.4283226996844E+00 -2.9671445853676E-01
    48  4.7000000000000E-01  1.4348004005366E+00 -2.7551301663317E-01
    49  4.8000000000000E-01  1.4396541833656E+00 -2.5291902404529E-01
    50  4.9000000000000E-01  1.4428682365694E+00 -2.2895099312641E-01
    51  5.0000000000000E-01  1.4444294106446E+00 -2.0362862035135E-01
    52  5.1000000000000E-01  1.4443272505029E+00 -1.7697255746518E-01
    53  5.2000000000000E-01  1.4425540258049E+00 -1.4900421572316E-01
    54  5.3000000000000E-01  1.4391047608561E+00 -1.1974561021332E-01
    55  5.4000000000000E-01  1.4339772655475E+00 -8.9219250672879E-02
    56  5.5000000000000E-01  1.4271721687126E+00 -5.7448084483793E-02
    57  5.6000000000000E-01  1.4186929551302E+00 -2.4455496668693E-02
    58  5.7000000000000E-01  1.4085460072202E+00  9.7346292835503E-03
    59  5.8000000000000E-01  1.3967406522665E+00  4.5097787038385E-02
    60  5.9000000000000E-01  1.3832892157565E+00  8.1608657962782E-02
    61  6.0000000000000E-01  1.3682070811577E+00  1.1924085636421E-01
    62  6.1000000000000E-01  1.3515127561613E+00  1.5796661053313E-01
    63  6.2000000000000E-01  1.3332279451141E+00  1.9775638208606E-01
    64  6.3000000000000E-01  1.3133776270456E+00  2.3857842751071E-01
    65  6.4000000000000E-01  1.2919901383707E+00  2.8039830720990E-01
    66  6.5000000000000E-01  1.2690972590326E+00  3.2317834870898E-01
    67  6.6000000000000E-01  1.2447343005310E+00  3.6687707200080E-01
    68  6.7000000000000E-01  1.2189401939876E+00  4.1144858623453E-01
    69  6.8000000000000E-01  1.1917575761162E+00  4.5684196808143E-01
    70  6.9000000000000E-01  1.1632328707158E+00  5.0300063311326E-01
    71  7.0000000000000E-01  1.1334163630807E+00  5.4986171238050E-01
    72  7.1000000000000E-01  1.1023622645405E+00  5.9735544706387E-01
    73  7.2000000000000E-01  1.0701287642015E+00  6.4540461457214E-01
    74  7.3000000000000E-01  1.0367780648653E+00  6.9392399975670E-01
    75  7.4000000000000E-01  1.0023764000594E+00  7.4281992499914E-01
    76  7.5000000000000E-01  9.6699402912282E-01  7.9198985278929E-01
    77  7.6000000000000E-01  9.3070520735716E-01  8.4132207404332E-01
    78  7.7000000000000E-01  8.9358812837583E-01  8.9069549481122E-01
    79  7.8000000000000E-01  8.5572483596646E-01  9.3997953319224E-01
    80  7.9000000000000E-01  8.1720110301873E-01  9.8903413721732E-01
    81  8.0000000000000E-01  7.7810627536412E-01  1.0377099331811E+00
    82  8.1000000000000E-01  7.3853307872173E-01  1.0858485124217E+00
    83  8.2000000000000E-01  6.9857738734109E-01  1.1332828628712E+00
    84  8.3000000000000E-01  6.5833795337639E-01  1.1798379498511E+00
    85  8.4000000000000E-01  6.1791609650988E-01  1.2253314485914E+00
    86  8.5000000000000E-01  5.7741535386056E-01  1.2695746288245E+00
    87  8.6000000000000E-01  5.3694109076050E-01  1.3123733895909E+00
    88  8.7000000000000E-01  4.9660007354801E-01  1.3535294401002E+00
    89  8.8000000000000E-01  4.5650000610654E-01  1.3928416201739E+00
    90  8.9000000000000E-01  4.1674903246222E-01  1.4301073514708E+00
    91  9.0000000000000E-01  3.7745520833295E-01  1.4651242084044E+00
    92  9.1000000000000E-01  3.3872594508866E-01  1.4976915954419E+00
    93  9.2000000000000E-01  3.0066743012767E-01  1.5276125153530E+00
    94  9.3000000000000E-01  2.6338402818809E-01  1.5546954109940E+00
    95  9.4000000000000E-01  2.2697766858834E-01  1.5787560614023E+00
    96  9.5000000000000E-01  1.9154722381858E-01  1.5996195113632E+00
    97  9.6000000000000E-01  1.5718788527704E-01  1.6171220122335E+00
    98  9.7000000000000E-01  1.2399054225509E-01  1.6311129506818E+00
    99  9.8000000000000E-01  9.2041170516745E-02  1.6414567411650E+00
   100  9.9000000000000E-01  6.1420236984903E-02  1.6480346574180E+00
   101  1.0000000000000E+00  3.2202127135493E-02  1.6507465780088E+00
   102  1.0100000000000E+00  4.4546017069549E-03  1.6495126211137E+00
   103  1.0200000000000E+00 -2.1761710745731E-02  1.6442746441042E+00
   104  1.0300000000000E+00 -4.6393779086861E-02  1.6349975843097E+00
   105  1.0400000000000E+00 -6.9396586509667E-02  1.6216706184309E+00
   106  1.0500000000000E+00 -9.0733493336850E-02  1.6043081195091E+00
   107  1.0600000000000E+00 -1.1037654034464E-01  1.5829503921086E+00
   108  1.0700000000000E+00 -1.2830668773560E-01  1.5576641684098E+00
   109  1.0800000000000E+00 -1.4451398545056E-01  1.5285428502315E+00
   110  1.0900000000000E+00 -1.5899767114324E-01  1.4957064845685E+00
   111  1.1000000000000E+00 -1.7176619283025E-01  1.4593014630084E+00
   112  1.1100000000000E+00 -1.8283715397355E-01  1.4194999383647E+00
   113  1.1200000000000E+00 -1.9223717953378E-01  1.3764989549687E+00
   114  1.1300000000000E+00 -2.0000170235051E-01  1.3305192922826E+00
   115  1.1400000000000E+00 -2.0617467003972E-01  1.2818040247689E+00
   116  1.1500000000000E+00 -2.1080817344828E-01  1.2306168042557E+00
   117  1.1600000000000E+00 -2.1396199854751E-01  1.1772398742936E+00
   118  1.1700000000000E+00 -2.1570310448420E-01  1.1219718292086E+00
   119  1.1800000000000E+00 -2.1610503131202E-01  1.0651251336197E+00
   120  1.1900000000000E+00 -2.1524724170326E-01  1.0070234211172E+00
   121  1.2000000000000E+00 -2.1321440166309E-01  9.4799859349479E-01
   122  1.2100000000000E+00 -2.1009560594118E-01  8.8838774440564E-01
   123  1.2200000000000E+00 -2.0598355443592E-01  8.2852993348526E-01
   124  1.2300000000000E+00 -2.0097368641382E-01  7.6876283885515E-01
   125  1.2400000000000E+00 -1.9516327981061E-01  7.0941931744253E-01
   126  1.2500000000000E+00 -1.8865052323165E-01  6.5082390369723E-01
   127  1.2600000000000E+00 -1.8153356852719E-01  5.9328927805087E-01
   128  1.2700000000000E+00 -1.7390957197327E-01  5.3711273681295E-01
   129  1.2800000000000E+00 -1.6587373214196E-01  4.8257269514120E-01
   130  1.2900000000000E+00 -1.5751833220715E-01  4.2992525229520E-01
   131  1.3000000000000E+00 -1.4893179819139E-01  3.7940087472569E-01
   132  1.3100000000000E+00 -1.4019777497400E-01  3.3120118638145E-01
   133  1.3200000000000E+00 -1.3139472450568E-01  2.8549935653224E-01
   134  1.3300000000000E+00 -1.2259619665612E-01  2.4244458538878E-01
   135  1.3400000000000E+00 -1.1387061477385E-01  2.0216239507238E-01
   136  1.3500000000000E+00 -1.0528089873649E-01  1.6475351509972E-01
   137  1.3600000000000E+00 -9.6884156531284E-02  1.3029307517870E-01
   138  1.3700000000000E+00 -8.8731441411467E-02  9.8830071052966E-02
   139  1.3800000000000E+00 -8.0867578130082E-02  7.0387118835968E-02
   140  1.3900000000000E+00 -7.3331059975385E-02  4.4960502936860E-02
   141  1.4000000000000E+00 -6.6154017478054E-02  2.2520519246041E-02
   142  1.4100000000000E+00 -5.9362258769875E-02  3.0121116017470E-03
   143  1.4200000000000E+00 -5.2975380673668E-02 -1.3644204111894E-02
   144  1.4300000000000E+00 -4.7006892125647E-02 -2.7551451833584E-02
   145  1.4400000000000E+00 -4.1465206140882E-02 -3.8830580561320E-02
   146  1.4500000000000E+00 -3.6349431479912E-02 -4.7643885861102E-02
   147  1.4600000000000E+00 -3.1687110603732E-02 -5.3985283467540E-02
   148  1.4700000000000E+00 -2.7432654681030E-02 -5.8247534164785E-02
   149  1.4800000000000E+00 -2.3585020068611E-02 -6.0562807101010E-02
   150  1.4900000000000E+00 -2.0128871851551E-02 -6.1133827611876E-02
   151  1.5000000000000E+00 -1.7045785098802E-02 -6.0171374032693E-02
   152  1.5100000000000E+00 -1.4314523387753E-02 -5.7893209573001E-02
   153  1.5200000000000E+00 -1.1911867284851E-02 -5.4519970985918E-02
   154  1.5300000000000E+00 -9.8131916751139E-03 -5.0272503003657E-02
   155  1.5400000000000E+00 -7.9930704569447E-03 -4.5369063901078E-02
   156  1.5500000000000E+00 -6.4258761515598E-03 -4.0022572091103E-02
   157  1.5600000000000E+00 -5.0863687477719E-03 -3.4437922011873E-02
   158  1.5700000000000E+00 -3.9502494028840E-03 -2.8809442848064E-02
   159  1.5800000000000E+00 -2.9957839894002E-03 -2.3316016218012E-02
   160  1.5900000000000E+00 -2.2046967415401E-03 -1.8117635280793E-02
   161  1.6000000000000E+00 -1.5575015339940E-03 -1.3365008557943E-02
   162  1.6100000000000E+00 -1.0374736212722E-03 -9.1902141802018E-03
   163  1.6200000000000E+00 -6.3119998291659E-04 -5.7045775821822E-03
   164  1.6300000000000E+00 -3.2903776740044E-04 -2.9980277997251E-03
   165  1.6400000000000E+00 -1.2424899877279E-04 -1.1280391136730E-03
   166  1.6500000000000E+00 -1.9297972672943E-05 -1.7236164153742E-04
   167  1.6600000000000E+00  2.4410983533353E-06  2.1698476311287E-05
   168  1.6700000000000E+00 -7.3292689081966E-07 -6.5669941180137E-06
   169  1.68  0.  0.
   170  1.69  0. -0.
   171  1.70  0.  0.
   172  1.71  0.  0.
   173  1.72  0.  0.
   174  1.73  0.  0.
   175  1.74  0.  0.
   176  1.75  0.  0.
   177  1.76  0.  0.
   178  1.77  0.  0.
   179  1.78  0.  0.
   180  1.79  0.  0.
   181  1.80  0.  0.
   182  1.81  0.  0.
   183  1.82  0.  0.
   184  1.83  0.  0.
   185  1.84  0.  0.
   186  1.85  0.  0.
   187  1.86  0.  0.
   188  1.87  0.  0.
   189  1.88  0.  0.
   190  1.89  0.  0.
   191  1.90  0.  0.
   192  1.91  0.  0.
   193  1.92  0.  0.
   194  1.93  0.  0.
   195  1.94  0.  0.
   196  1.95  0.  0.
   197  1.96  0.  0.
   198  1.97  0.  0.
   199  1.98  0.  0.
   200  1.99  0.  0.
   201  2.00  0.  0.
   202  2.01  0.  0.
   203  2.02  0.  0.
   204  2.03  0.  0.
   205  2.04  0.  0.
   206  2.05  0.  0.
   207  2.06  0.  0.
   208  2.07  0.  0.
   209  2.08  0.  0.
   210  2.09  0.  0.
   211  2.10  0.  0.
   212  2.11  0.  0.
   213  2.12  0.  0.
   214  2.13  0.  0.
   215  2.14  0.  0.
   216  2.15  0.  0.
   217  2.16  0.  0.
   218  2.17  0.  0.
   219  2.18  0.  0.
   220  2.19  0.  0.
   221  2.20  0.  0.
   222  2.21  0.  0.
   223  2.22  0.  0.
   224  2.23  0.  0.
   225  2.24  0.  0.
   226  2.25  0.  0.
   227  2.26  0.  0.
   228  2.27  0.  0.
   229  2.28  0.  0.
   230  2.29  0.  0.
   231  2.30  0.  0.
   232  2.31  0.  0.
   233  2.32  0.  0.
   234  2.33  0.  0.
   235  2.34  0.  0.
   236  2.35  0.  0.
   237  2.36  0.  0.
   238  2.37  0.  0.
   239  2.38  0.  0.
   240  2.39  0.  0.
   241  2.40  0.  0.
   242  2.41  0.  0.
   243  2.42  0.  0.
   244  2.43  0.  0.
   245  2.44  0.  0.
   246  2.45  0.  0.
   247  2.46  0.  0.
   248  2.47  0.  0.
   249  2.48  0.  0.
   250  2.49  0.  0.
   251  2.50  0.  0.
   252  2.51  0.  0.
   253  2.52  0.  0.
   254  2.53  0.  0.
   255  2.54  0.  0.
   256  2.55  0.  0.
   257  2.56  0.  0.
   258  2.57  0.  0.
   259  2.58  0.  0.
   260  2.59  0.  0.
   261  2.60  0.  0.
   262  2.61  0.  0.
   263  2.62  0.  0.
   264  2.63  0.  0.
   265  2.64  0.  0.
   266  2.65  0.  0.
   267  2.66  0.  0.
   268  2.67  0.  0.
   269  2.68  0.  0.
   270  2.69  0.  0.
   271  2.70  0.  0.
   272  2.71  0.  0.
   273  2.72  0.  0.
   274  2.73  0.  0.
   275  2.74  0.  0.
   276  2.75  0.  0.
   277  2.76  0.  0.
   278  2.77  0.  0.
   279  2.78  0.  0.
   280  2.79  0.  0.
   281  2.80  0.  0.
   282  2.81  0.  0.
   283  2.82  0.  0.
   284  2.83  0.  0.
   285  2.84  0.  0.
   286  2.85  0.  0.
   287  2.86  0.  0.
   288  2.87  0.  0.
   289  2.88  0.  0.
   290  2.89  0.  0.
   291  2.90  0.  0.
   292  2.91  0.  0.
   293  2.92  0.  0.
   294  2.93  0.  0.
   295  2.94  0.  0.
   296  2.95  0.  0.
   297  2.96  0.  0.
   298  2.97  0.  0.
   299  2.98  0.  0.
   300  2.99  0.  0.
   301  3.00  0.  0.
   302  3.01  0.  0.
   303  3.02  0.  0.
   304  3.03  0.  0.
   305  3.04  0.  0.
   306  3.05  0.  0.
   307  3.06  0.  0.
   308  3.07  0.  0.
   309  3.08  0.  0.
   310  3.09  0.  0.
   311  3.10  0.  0.
   312  3.11  0.  0.
   313  3.12  0.  0.
   314  3.13  0.  0.
   315  3.14  0.  0.
   316  3.15  0.  0.
   317  3.16  0.  0.
   318  3.17  0.  0.
   319  3.18  0.  0.
   320  3.19  0.  0.
   321  3.20  0.  0.
   322  3.21  0.  0.
   323  3.22  0.  0.
   324  3.23  0.  0.
   325  3.24  0.  0.
   326  3.25  0.  0.
   327  3.26  0.  0.
   328  3.27  0.  0.
   329  3.28  0.  0.
   330  3.29  0.  0.
   331  3.30  0.  0.
   332  3.31  0.  0.
   333  3.32  0.  0.
   334  3.33  0.  0.
   335  3.34  0.  0.
   336  3.35  0.  0.
   337  3.36  0.  0.
   338  3.37  0.  0.
   339  3.38  0.  0.
   340  3.39  0.  0.
   341  3.40  0.  0.
   342  3.41  0.  0.
   343  3.42  0.  0.
   344  3.43  0.  0.
   345  3.44  0.  0.
   346  3.45  0.  0.
   347  3.46  0.  0.
   348  3.47  0.  0.
   349  3.48  0.  0.
   350  3.49  0.  0.
   351  3.50  0.  0.
   352  3.51  0.  0.
   353  3.52  0.  0.
   354  3.53  0.  0.
   355  3.54  0.  0.
   356  3.55  0.  0.
   357  3.56  0.  0.
   358  3.57  0.  0.
   359  3.58  0.  0.
   360  3.59  0.  0.
   361  3.60  0.  0.
   362  3.61  0.  0.
   363  3.62  0.  0.
   364  3.63  0.  0.
   365  3.64  0.  0.
   366  3.65  0.  0.
   367  3.66  0.  0.
   368  3.67  0.  0.
   369  3.68  0.  0.
   370  3.69  0.  0.
   371  3.70  0.  0.
   372  3.71  0.  0.
   373  3.72  0.  0.
   374  3.73  0.  0.
   375  3.74  0.  0.
   376  3.75  0.  0.
   377  3.76  0.  0.
   378  3.77  0.  0.
   379  3.78  0.  0.
   380  3.79  0.  0.
   381  3.80  0.  0.
   382  3.81  0.  0.
   383  3.82  0.  0.
   384  3.83  0.  0.
   385  3.84  0.  0.
   386  3.85  0.  0.
   387  3.86  0.  0.
   388  3.87  0.  0.
   389  3.88  0.  0.
   390  3.89  0.  0.
   391  3.90  0.  0.
   392  3.91  0.  0.
   393  3.92  0.  0.
   394  3.93  0.  0.
   395  3.94  0.  0.
   396  3.95  0.  0.
   397  3.96  0.  0.
   398  3.97  0.  0.
   399  3.98  0.  0.
   400  3.99  0.  0.
   401  4.00  0.  0.
   402  4.01  0.  0.
   403  4.02  0.  0.
   404  4.03  0.  0.
   405  4.04  0.  0.
   406  4.05  0.  0.
   407  4.06  0.  0.
   408  4.07  0.  0.
   409  4.08  0.  0.
   410  4.09  0.  0.
   411  4.10  0.  0.
   412  4.11  0.  0.
   413  4.12  0.  0.
   414  4.13  0.  0.
   415  4.14  0.  0.
   416  4.15  0.  0.
   417  4.16  0.  0.
   418  4.17  0.  0.
   419  4.18  0.  0.
   420  4.19  0.  0.
   421  4.20  0.  0.
   422  4.21  0.  0.
   423  4.22  0.  0.
   424  4.23  0.  0.
   425  4.24  0.  0.
   426  4.25  0.  0.
   427  4.26  0.  0.
   428  4.27  0.  0.
   429  4.28  0.  0.
   430  4.29  0.  0.
   431  4.30  0.  0.
   432  4.31  0.  0.
   433  4.32  0.  0.
   434  4.33  0.  0.
   435  4.34  0.  0.
   436  4.35  0.  0.
   437  4.36  0.  0.
   438  4.37  0.  0.
   439  4.38  0.  0.
   440  4.39  0.  0.
   441  4.40  0.  0.
   442  4.41  0.  0.
   443  4.42  0.  0.
   444  4.43  0.  0.
   445  4.44  0.  0.
   446  4.45  0.  0.
   447  4.46  0.  0.
   448  4.47  0.  0.
   449  4.48  0.  0.
   450  4.49  0.  0.
   451  4.50  0.  0.
   452  4.51  0.  0.
   453  4.52  0.  0.
   454  4.53  0.  0.
   455  4.54  0.  0.
   456  4.55  0.  0.
   457  4.56  0.  0.
   458  4.57  0.  0.
   459  4.58  0.  0.
   460  4.59  0.  0.
   461  4.60  0.  0.
   462  4.61  0.  0.
   463  4.62  0.  0.
   464  4.63  0.  0.
   465  4.64  0.  0.
   466  4.65  0.  0.
   467  4.66  0.  0.
   468  4.67  0.  0.
   469  4.68  0.  0.
   470  4.69  0.  0.
   471  4.70  0.  0.
   472  4.71  0.  0.
   473  4.72  0.  0.
   474  4.73  0.  0.
   475  4.74  0.  0.
   476  4.75  0.  0.
   477  4.76  0.  0.
   478  4.77  0.  0.
   479  4.78  0.  0.
   480  4.79  0.  0.
   481  4.80  0.  0.
   482  4.81  0.  0.
   483  4.82  0.  0.
   484  4.83  0.  0.
   485  4.84  0.  0.
   486  4.85  0.  0.
   487  4.86  0.  0.
   488  4.87  0.  0.
   489  4.88  0.  0.
   490  4.89  0.  0.
   491  4.90  0.  0.
   492  4.91  0.  0.
   493  4.92  0.  0.
   494  4.93  0.  0.
   495  4.94  0.  0.
   496  4.95  0.  0.
   497  4.96  0.  0.
   498  4.97  0.  0.
   499  4.98  0.  0.
   500  4.99  0.  0.
   501  5.00  0.  0.
   502  5.01  0.  0.
   503  5.02  0.  0.
   504  5.03  0.  0.
   505  5.04  0.  0.
   506  5.05  0.  0.
   507  5.06  0.  0.
   508  5.07  0.  0.
   509  5.08  0.  0.
   510  5.09  0.  0.
   511  5.10  0.  0.
   512  5.11  0.  0.
   513  5.12  0.  0.
   514  5.13  0.  0.
   515  5.14  0.  0.
   516  5.15  0.  0.
   517  5.16  0.  0.
   518  5.17  0.  0.
   519  5.18  0.  0.
   520  5.19  0.  0.
   521  5.20  0.  0.
   522  5.21  0.  0.
   523  5.22  0.  0.
   524  5.23  0.  0.
   525  5.24  0.  0.
   526  5.25  0.  0.
   527  5.26  0.  0.
   528  5.27  0.  0.
   529  5.28  0.  0.
   530  5.29  0.  0.
   531  5.30  0.  0.
   532  5.31  0.  0.
   533  5.32  0.  0.
   534  5.33  0.  0.
   535  5.34  0.  0.
   536  5.35  0.  0.
   537  5.36  0.  0.
   538  5.37  0.  0.
   539  5.38  0.  0.
   540  5.39  0.  0.
   541  5.40  0.  0.
   542  5.41  0.  0.
   543  5.42  0.  0.
   544  5.43  0.  0.
   545  5.44  0.  0.
   546  5.45  0.  0.
   547  5.46  0.  0.
   548  5.47  0.  0.
   549  5.48  0.  0.
   550  5.49  0.  0.
   551  5.50  0.  0.
   552  5.51  0.  0.
   553  5.52  0.  0.
   554  5.53  0.  0.
   555  5.54  0.  0.
   556  5.55  0.  0.
   557  5.56  0.  0.
   558  5.57  0.  0.
   559  5.58  0.  0.
   560  5.59  0.  0.
   561  5.60  0.  0.
   562  5.61  0.  0.
   563  5.62  0.  0.
   564  5.63  0.  0.
   565  5.64  0.  0.
   566  5.65  0.  0.
   567  5.66  0.  0.
   568  5.67  0.  0.
   569  5.68  0.  0.
   570  5.69  0.  0.
   571  5.70  0.  0.
   572  5.71  0.  0.
   573  5.72  0.  0.
   574  5.73  0.  0.
   575  5.74  0.  0.
   576  5.75  0.  0.
   577  5.76  0.  0.
   578  5.77  0.  0.
   579  5.78  0.  0.
   580  5.79  0.  0.
   581  5.80  0.  0.
   582  5.81  0.  0.
   583  5.82  0.  0.
   584  5.83  0.  0.
   585  5.84  0.  0.
   586  5.85  0.  0.
   587  5.86  0.  0.
   588  5.87  0.  0.
   589  5.88  0.  0.
   590  5.89  0.  0.
   591  5.90  0.  0.
   592  5.91  0.  0.
   593  5.92  0.  0.
   594  5.93  0.  0.
   595  5.94  0.  0.
   596  5.95  0.  0.
   597  5.96  0.  0.
   598  5.97  0.  0.
   599  5.98  0.  0.
   600  5.99  0.  0.
   1                         7.4370079914430E+00  1.5513982326792E+00
     1  0.0000000000000E+00  1.1446002481930E-07 -2.3412858471406E-07
     2  1.0000000000000E-02  2.7549243168533E-03 -3.6174498362082E-03
     3  2.0000000000000E-02  1.0944057533676E-02 -1.4320461410606E-02
     4  3.0000000000000E-02  2.4342893299463E-02 -3.1665937674345E-02
     5  4.0000000000000E-02  4.2585222821451E-02 -5.4931620495182E-02
     6  5.0000000000000E-02  6.5174829464002E-02 -8.3139917835809E-02
     7  6.0000000000000E-02  9.1501352947515E-02 -1.1509022159797E-01
     8  7.0000000000000E-02  1.2085983319680E-01 -1.4939871343976E-01
     9  8.0000000000000E-02  1.5247332942827E-01 -1.8454442174506E-01
    10  9.0000000000000E-02  1.8551791371651E-01 -2.1892009593863E-01
    11  1.0000000000000E-01  2.1914926295623E-01 -2.5088631046974E-01
    12  1.1000000000000E-01  2.5253002113286E-01 -2.7882710473629E-01
    13  1.2000000000000E-01  2.8485707674673E-01 -3.0120541028911E-01
    14  1.3000000000000E-01  3.1538789898068E-01 -3.1661651463709E-01
    15  1.4000000000000E-01  3.4346510088001E-01 -3.2383786210031E-01
    16  1.5000000000000E-01  3.6853844777903E-01 -3.2187359509103E-01
    17  1.6000000000000E-01  3.9018360306641E-01 -3.0999239106636E-01
    18  1.7000000000000E-01  4.0811699902592E-01 -2.8775734685654E-01
    19  1.8000000000000E-01  4.2220633516502E-01 -2.5504689746181E-01
    20  1.9000000000000E-01  4.3247633682080E-01 -2.1206602388488E-01
    21  2.0000000000000E-01  4.3910954910655E-01 -1.5934729630468E-01
    22  2.1000000000000E-01  4.4244209125672E-01 -9.7741606324711E-02
    23  2.2000000000000E-01  4.4295444972167E-01 -2.8398756066624E-02
    24  2.3000000000000E-01  4.4125754041416E-01  4.7261616797979E-02
    25  2.4000000000000E-01  4.3807441678668E-01  1.2758799967041E-01
    26  2.5000000000000E-01  4.3421813653686E-01  2.1074279458475E-01
    27  2.6000000000000E-01  4.3056642158484E-01  2.9475463110840E-01
    28  2.7000000000000E-01  4.2803384982342E-01  3.7757568515655E-01
    29  2.8000000000000E-01  4.2754239979513E-01  4.5714231808547E-01
    30  2.9000000000000E-01  4.2999122828967E-01  5.3143723117886E-01
    31  3.0000000000000E-01  4.3622659394857E-01  5.9855126428235E-01
    32  3.1000000000000E-01  4.4701284612317E-01  6.5674295628008E-01
    33  3.2000000000000E-01  4.6300537704946E-01  7.0449403014705E-01
    34  3.3000000000000E-01  4.8472638726821E-01  7.4055906561191E-01
    35  3.4000000000000E-01  5.1254424031420E-01  7.6400777556163E-01
    36  3.5000000000000E-01  5.4665708496895E-01  7.7425850417958E-01
    37  3.6000000000000E-01  5.8708130447502E-01  7.7110180993705E-01
    38  3.7000000000000E-01  6.3364521534517E-01  7.5471327814905E-01
    39  3.8000000000000E-01  6.8598828761263E-01  7.2565501792622E-01
    40  3.9000000000000E-01  7.4356599785028E-01  6.8486562817076E-01
    41  4.0000000000000E-01  8.0566026064654E-01  6.3363875728606E-01
    42  4.1000000000000E-01  8.7139521826520E-01  5.7359072162267E-01
    43  4.2000000000000E-01  9.3975800679003E-01  5.0661797839236E-01
    44  4.3000000000000E-01  1.0096239649279E+00  4.3484556005766E-01
    45  4.4000000000000E-01  1.0797856133592E+00  3.6056785972970E-01
    46  4.5000000000000E-01  1.1489846122611E+00  2.8618340230935E-01
    47  4.6000000000000E-01  1.2159458060917E+00  2.1412543641463E-01
    48  4.7000000000000E-01  1.2794123910086E+00  1.4679033120418E-01
    49  4.8000000000000E-01  1.3381811938325E+00  8.6465855112205E-02
    50  4.9000000000000E-01  1.3911370338974E+00  3.5261446906127E-02
    51  5.0000000000000E-01  1.4372851512911E+00 -4.9574382903000E-03
    52  5.1000000000000E-01  1.4757807268702E+00 -3.2628914205397E-02
    53  5.2000000000000E-01  1.5059545901501E+00 -4.6546334105806E-02
    54  5.3000000000000E-01  1.5273343090127E+00 -4.5900404874742E-02
    55  5.4000000000000E-01  1.5396599776261E+00 -3.0310356449872E-02
    56  5.5000000000000E-01  1.5428941627792E+00  1.5692371471803E-04
    57  5.6000000000000E-01  1.5372256301053E+00  4.4980548231401E-02
    58  5.7000000000000E-01  1.5230666459562E+00  1.0319247682149E-01
    59  5.8000000000000E-01  1.5010438331355E+00  1.7339757423421E-01
    60  5.9000000000000E-01  1.4719827441493E+00  2.5380651874023E-01
    61  6.0000000000000E-01  1.4368864988043E+00  3.4228082436208E-01
    62  6.1000000000000E-01  1.3969090085895E+00  4.3638887952818E-01
    63  6.2000000000000E-01  1.3533234731980E+00  5.3347157095879E-01
    64  6.3000000000000E-01  1.3074869799688E+00  6.3071576420491E-01
    65  6.4000000000000E-01  1.2608021605823E+00  7.2523366032733E-01
    66  6.5000000000000E-01  1.2146769572492E+00  8.1414584948167E-01
    67  6.6000000000000E-01  1.1704836197789E+00  8.9466574300168E-01
    68  6.7000000000000E-01  1.1295180929983E+00  9.6418299064894E-01
    69  6.8000000000000E-01  1.0929609595586E+00  1.0203434819476E+00
    70  6.9000000000000E-01  1.0618410756724E+00  1.0611235909979E+00
    71  7.0000000000000E-01  1.0370029771556E+00  1.0848964519792E+00
    72  7.1000000000000E-01  1.0190790416360E+00  1.0904882449045E+00
    73  7.2000000000000E-01  1.0084672721499E+00  1.0772227234219E+00
    74  7.3000000000000E-01  1.0053154206721E+00  1.0449525221255E+00
    75  7.4000000000000E-01  1.0095120012335E+00  9.9407613198790E-01
    76  7.5000000000000E-01  1.0206845557218E+00  9.2553981972715E-01
    77  7.6000000000000E-01  1.0382053362756E+00  8.4082417970736E-01
    78  7.7000000000000E-01  1.0612043618472E+00  7.4191543401488E-01
    79  7.8000000000000E-01  1.0885895987702E+00  6.3126202575330E-01
    80  7.9000000000000E-01  1.1190738118406E+00  5.1171747034606E-01
    81  8.0000000000000E-01  1.1512074392913E+00  3.8647082777384E-01
    82  8.1000000000000E-01  1.1834166676203E+00  2.5896652382542E-01
    83  8.2000000000000E-01  1.2140457257178E+00  1.3281556992164E-01
    84  8.3000000000000E-01  1.2414022867075E+00  1.1700499425668E-02
    85  8.4000000000000E-01  1.2638047643438E+00 -1.0072345455705E-01
    86  8.5000000000000E-01  1.2796302218447E+00 -2.0092827553140E-01
    87  8.6000000000000E-01  1.2873615769637E+00 -2.8561144278327E-01
    88  8.7000000000000E-01  1.2856327892402E+00 -3.5178985009891E-01
    89  8.8000000000000E-01  1.2732707540308E+00 -3.9688672445888E-01
    90  8.9000000000000E-01  1.2493327024205E+00 -4.1880906293714E-01
    91  9.0000000000000E-01  1.2131380147271E+00 -4.1601333434388E-01
    92  9.1000000000000E-01  1.1642934953717E+00 -3.8755748535090E-01
    93  9.2000000000000E-01  1.1027113248182E+00 -3.3313764146962E-01
    94  9.3000000000000E-01  1.0286190956746E+00 -2.5310829214444E-01
    95  9.4000000000000E-01  9.4256154983579E-01 -1.4848518582376E-01
    96  9.5000000000000E-01  8.4539385609509E-01 -2.0930623496691E-02
    97  9.6000000000000E-01  7.3826649688187E-01  1.2727868480031E-01
    98  9.7000000000000E-01  6.2260206246510E-01  2.9330055949998E-01
    99  9.8000000000000E-01  5.0006447468366E-01  4.7379198234707E-01
   100  9.9000000000000E-01  3.7252137386667E-01  6.6498787573914E-01
   101  1.0000000000000E+00  2.4200059611267E-01  8.6279208753681E-01
   102  1.0100000000000E+00  1.1064183799418E-01  1.0628782874366E+00
   103  1.0200000000000E+00 -1.9355252847387E-02  1.2607981895506E+00
   104  1.0300000000000E+00 -1.4578521381250E-01  1.4520942919829E+00
   105  1.0400000000000E+00 -2.6649170981968E-01  1.6324141752301E+00
   106  1.0500000000000E+00 -3.7942182686472E-01  1.7976233312453E+00
   107  1.0600000000000E+00 -4.8267826585758E-01  1.9439135068881E+00
   108  1.0700000000000E+00 -5.7456802995203E-01  2.0679036394494E+00
   109  1.0800000000000E+00 -6.5364628105458E-01  2.1667306356608E+00
   110  1.0900000000000E+00 -7.1875416063188E-01  2.2381274959505E+00
   111  1.1000000000000E+00 -7.6904952225829E-01  2.2804866041817E+00
   112  1.1100000000000E+00 -8.0402970625525E-01  2.2929063849077E+00
   113  1.1200000000000E+00 -8.2354569328703E-01  2.2752199607538E+00
   114  1.1300000000000E+00 -8.2780720081676E-01  2.2280049155045E+00
   115  1.1400000000000E+00 -8.1737852530822E-01  2.1525737659692E+00
   116  1.1500000000000E+00 -7.9316518001595E-01  2.0509452595066E+00
   117  1.1600000000000E+00 -7.5639162385148E-01  1.9257971248986E+00
   118  1.1700000000000E+00 -7.0857061726261E-01  1.7804014040328E+00
   119  1.1800000000000E+00 -6.5146496651207E-01  1.6185439602226E+00
   120  1.1900000000000E+00 -5.8704262560774E-01  1.4444301906182E+00
   121  1.2000000000000E+00 -5.1742630582785E-01  1.2625793451445E+00
   122  1.2100000000000E+00 -4.4483889490868E-01  1.0777101698541E+00
   123  1.2200000000000E+00 -3.7154610539519E-01  8.9462083481945E-01
   124  1.2300000000000E+00 -2.9979784469023E-01  7.1806626604545E-01